ITEM: TIMESTEP
378673
ITEM: NUMBER OF ATOMS
14500
ITEM: BOX BOUNDS pp pp pp
-1.7408124425093920e+00 5.9661996048686099e+01
-1.7408124425093920e+00 5.9661996048686099e+01
-1.7408124425093920e+00 7.3255997285565158e+01
ITEM: ATOMS id type xs ys zs
1 2 0.981593 0.033164 0.279804
2 2 0.76912 0.407566 0.286851
3 2 0.456112 0.513983 0.436752
4 2 0.8992 0.979875 0.452354
5 2 0.271357 0.128915 0.399052
6 2 0.318088 0.87497 0.195109
7 2 0.0181855 0.298677 0.547886
8 2 0.423062 0.144571 0.281772
9 2 0.195279 0.350211 0.449851
10 2 0.141111 0.117688 0.308182
11 2 0.325658 0.204554 0.161715
12 2 0.254151 0.320761 0.214095
13 2 0.190774 0.441715 0.137099
14 2 0.061155 0.384253 0.54624
15 2 0.550381 0.245669 0.422188
16 2 0.364744 0.130257 0.621247
17 2 0.289248 0.246889 0.145057
18 2 0.0470068 0.131429 0.997371
19 2 0.082121 0.354451 0.469882
20 2 0.263043 0.148093 0.232266
21 2 0.0355821 0.0625999 0.190328
22 2 0.458588 0.0675173 0.469754
23 2 0.871757 0.0701145 0.579441
24 2 0.583241 0.0848657 0.445304
25 2 0.154338 0.348728 0.384887
26 2 0.723115 0.208822 0.167814
27 2 0.809498 0.121023 0.113653
28 2 0.203516 0.337685 0.306468
29 2 0.181936 0.135864 0.117442
30 2 0.162666 0.221298 0.509668
31 2 0.420374 0.148709 0.4186
32 2 0.307934 0.427152 0.156869
33 2 0.149552 0.463967 0.254454
34 2 0.225429 0.0674793 0.63187
35 2 0.142972 0.270685 0.0204306
36 2 0.326234 0.944232 0.0810438
37 2 0.522243 0.0334836 0.127858
38 2 0.312655 0.528794 0.603699
39 2 0.931624 0.659292 0.217249
40 2 0.946788 0.200547 0.416157
41 2 0.783121 0.487211 0.118999
42 2 0.88708 0.651925 0.164633
43 2 0.0800682 0.20919 0.11089
44 2 0.358295 0.319178 0.184054
45 2 0.00848246 0.791712 0.17985
46 2 0.916472 0.471442 0.174979
47 2 0.000160248 0.707208 0.479904
48 2 0.382281 0.526953 0.453732
49 2 0.211517 0.0230414 0.102236
50 2 0.244045 0.131188 0.255104
51 2 0.543067 0.0727201 0.493079
52 2 0.272837 0.0884128 0.565838
53 2 0.341683 0.893893 0.280348
54 2 0.402352 0.43977 0.294582
55 2 0.908269 0.414792 0.501046
56 2 0.134856 0.427853 0.649512
57 2 0.495397 0.230916 0.912413
58 2 0.0932279 0.245349 0.537536
59 2 0.710063 0.442109 0.384764
60 2 0.32576 0.186142 0.438896
61 2 0.0655536 0.169687 0.466263
62 2 0.350259 0.388967 0.424271
63 2 0.911251 0.405107 0.265085
64 2 0.961932 0.753098 0.0241787
65 2 0.563513 0.471287 0.704785
66 2 0.51052 0.236361 0.199233
67 2 0.290909 0.191401 0.314977
68 2 0.733245 0.340725 0.122147
69 2 0.872399 0.703934 0.36984
70 2 0.548302 0.331791 0.190909
71 2 0.323258 0.522652 0.221714
72 2 0.0501282 0.134744 0.2632
73 2 0.26876 0.0229152 0.369838
74 2 0.464106 0.341335 0.438636
75 2 0.516965 0.477159 0.254141
76 2 0.466164 0.194113 0.212762
77 2 0.396611 0.252009 0.270781
78 2 0.0465621 0.191351 0.103799
79 2 0.235497 0.0441865 0.27497
80 2 0.491987 0.231978 0.294416
81 2 0.160716 0.549984 0.0936336
82 2 0.182349 0.450373 0.216065
83 2 0.268864 0.934142 0.0935716
84 2 0.860428 0.395844 0.121168
85 2 0.16753 0.475777 0.176238
86 2 0.332228 0.331267 0.136887
87 2 0.583128 0.603449 0.255149
88 2 0.670732 0.185652 0.55788
89 2 0.399159 0.356322 0.25529
90 2 0.31083 0.137098 0.29746
91 2 0.227369 0.234623 0.268432
92 2 0.412416 0.178943 0.594668
93 2 0.369286 0.294544 0.20602
94 2 0.323454 0.206611 0.362052
95 2 0.141148 0.645774 0.126849
96 2 0.131415 0.388158 0.474922
97 2 0.800672 0.394006 0.212588
98 2 0.40743 0.410553 0.710769
99 2 0.755838 0.908888 0.462325
100 2 0.152354 0.606621 0.309005
101 2 0.348248 0.396687 0.234778
102 2 0.539364 0.0982732 0.282793
103 2 0.420984 0.0909957 0.348137
104 2 0.303832 0.00735305 0.493734
105 2 0.487493 0.234349 0.472406
106 2 0.190736 0.0727754 0.958313
107 2 0.394275 0.355984 0.0460611
108 2 0.219171 0.875121 0.283252
109 2 0.213948 0.662781 0.0691463
110 2 0.412167 0.387876 0.41708
111 2 0.275152 0.432958 0.225746
112 2 0.501921 0.385778 0.615745
113 2 0.292323 0.407026 0.207036
114 2 0.287893 0.578161 0.354716
115 2 0.832688 0.967385 0.240396
116 2 0.878524 0.966659 0.310888
117 2 0.457559 0.382286 0.504636
118 2 0.302699 0.23661 0.690034
119 2 0.119993 0.456151 0.273594
120 2 0.410646 0.0875215 0.294873
121 2 0.28188 0.87515 0.297099
122 2 0.910678 0.494001 0.454152
123 2 0.837796 0.812318 0.263844
124 2 0.732243 0.38853 0.328129
125 2 0.192253 0.280056 0.291213
126 2 0.221985 0.108671 0.207452
127 2 0.284562 0.610553 0.21111
128 2 0.54541 0.352214 0.318169
129 2 0.361385 0.355339 0.523243
130 2 0.913683 0.895644 0.436423
131 2 0.00880137 0.344696 0.99134
132 2 0.423941 0.319371 0.709642
133 2 0.739946 0.690559 0.464613
134 2 0.398595 0.557129 0.535251
135 2 0.144594 0.678015 0.982793
136 2 0.695808 0.167102 0.309867
137 2 0.131123 0.116617 0.498665
138 2 0.300756 0.10206 0.308188
139 2 0.358619 0.51056 0.228429
140 2 0.303179 0.260239 0.495836
141 2 0.920274 0.297345 0.578253
142 2 0.0131486 0.726665 0.454529
143 2 0.109234 0.0830882 0.194739
144 2 0.963105 0.482996 0.385018
145 2 0.205254 0.308242 0.178406
146 2 0.255444 0.0238308 0.254863
147 2 0.100484 0.339825 0.347689
148 2 0.363312 0.365675 0.471684
149 2 0.527232 0.216508 0.506929
150 2 0.128044 0.230576 0.336047
151 2 0.848922 0.311844 0.022518
152 2 0.467791 0.468779 0.98111
153 2 0.29751 0.157924 0.394552
154 2 0.251229 0.306098 0.379403
155 2 0.49078 0.137274 0.935596
156 2 0.369012 0.156211 0.514599
157 2 0.448547 0.538105 0.279051
158 2 0.16138 0.478205 0.64148
159 2 0.085582 0.122902 0.121516
160 2 0.332484 0.919556 0.229792
161 2 0.227964 0.324398 0.265017
162 2 0.97212 0.257218 0.38148
163 2 0.544169 0.568425 0.226274
164 2 0.0125799 0.0808502 0.259851
165 2 0.23458 0.131308 0.161144
166 2 0.282466 0.577889 0.510996
167 2 0.790537 0.2267 0.0923351
168 2 0.320639 0.0878205 0.355304
169 2 0.903872 0.591817 0.358611
170 2 0.53119 0.302159 0.986723
171 2 0.434835 0.296627 0.257062
172 2 0.13158 0.0371094 0.973684
173 2 0.379005 0.224877 0.437642
174 2 0.371618 0.181224 0.090598
175 2 0.227991 0.251218 0.402398
176 2 0.272052 0.253044 0.0142475
177 2 0.604133 0.160478 0.404986
178 2 0.869322 0.265748 0.270532
179 2 0.386662 0.786962 0.22581
180 2 0.365123 0.316204 0.5564
181 2 0.986933 0.349279 0.146919
182 2 0.51879 0.341288 0.148672
183 2 0.0390153 0.318589 0.320765
184 2 0.398314 0.276307 0.4134
185 2 0.0273827 0.950979 0.481179
186 2 0.157335 0.496963 0.268538
187 2 0.427278 0.256907 0.229597
188 2 0.176879 0.161445 0.0541489
189 2 0.335176 0.285372 0.243901
190 2 0.234621 0.224547 0.238886
191 2 0.208572 0.26356 0.693129
192 2 0.295815 0.78397 0.171536
193 2 0.576413 0.475964 0.520427
194 2 0.421951 0.622112 0.480496
195 2 0.203112 0.191816 0.420796
196 2 0.637755 0.0271846 0.0627687
197 2 0.237354 0.144034 0.0686809
198 2 0.752038 0.135826 0.65682
199 2 0.0758504 0.436037 0.653035
200 2 0.309854 0.228332 0.934283
201 2 0.334621 0.55083 0.134939
202 2 0.749659 0.290117 0.236875
203 2 0.890409 0.165449 0.103808
204 2 0.693055 0.100016 0.410913
205 2 0.180005 0.457362 0.406819
206 2 0.259471 0.667307 0.275026
207 2 0.203007 0.920048 0.0759727
208 2 0.0934018 0.94451 0.201802
209 2 0.407743 0.875834 0.45763
210 2 0.979598 0.507689 0.937493
211 2 0.0497919 0.980408 0.532177
212 2 0.995657 0.965534 0.582401
213 2 0.355693 0.407479 0.323231
214 2 0.486703 0.202733 0.0206284
215 2 0.991892 0.918795 0.249127
216 2 0.178071 0.971543 0.1585
217 2 0.153559 0.863124 0.322949
218 2 0.875291 0.215279 0.330933
219 2 0.257843 0.0799677 0.969586
220 2 0.2351 0.125526 0.360218
221 2 0.843813 0.272544 0.727104
222 2 0.81684 0.201715 0.0828992
223 2 0.170298 0.0515016 0.361914
224 2 0.33814 0.84781 0.208357
225 2 0.394518 0.631768 0.276001
226 2 0.427109 0.379712 0.718906
227 2 0.228766 0.502437 0.189079
228 2 0.129469 0.191269 0.627178
229 2 0.757991 0.355556 0.263896
230 2 0.483365 0.398688 0.401563
231 2 0.210565 0.317554 0.458347
232 2 0.327776 0.224742 0.265755
233 2 0.163685 0.930338 0.531374
234 2 0.510681 0.605566 0.606861
235 2 0.31277 0.839989 0.0979399
236 2 0.355815 0.994618 0.543037
237 2 0.0477204 0.899201 0.280825
238 2 0.168437 0.403592 0.252452
239 2 0.941474 0.200935 0.119978
240 2 0.854053 0.42637 0.978832
241 2 0.196658 0.315965 0.28146
242 2 0.103365 0.324648 0.286053
243 2 0.759389 0.268827 0.172189
244 2 0.435552 0.421891 0.136279
245 2 0.92198 0.290353 0.548005
246 2 0.0570124 0.177446 0.22991
247 2 0.447105 0.705344 0.362873
248 2 0.214157 0.381527 0.08244
249 2 0.51451 0.83245 0.307028
250 2 0.943391 0.637149 0.422844
251 2 0.659167 0.963184 0.136056
252 2 0.287172 0.900303 0.047341
253 2 0.367532 0.947461 0.0414714
254 2 0.234495 0.0803792 0.476952
255 2 0.597046 0.352333 0.251102
256 2 0.13166 0.550294 0.148905
257 2 0.493841 0.0806356 0.468573
258 2 0.515077 0.901154 0.966735
259 2 0.589521 0.57169 0.271743
260 2 0.466538 0.304757 0.336251
261 2 0.115574 0.0740431 0.0714366
262 2 0.228333 0.269689 0.211109
263 2 0.346294 0.392869 0.557542
264 2 0.416324 0.850493 0.981212
265 2 0.453547 0.956705 0.748299
266 2 0.514864 0.115288 0.189357
267 2 0.290089 0.40138 0.921209
268 2 0.227984 0.417891 0.440853
269 2 0.886509 0.0150564 0.545835
270 2 0.151663 0.674185 0.302662
271 2 0.322045 0.0524198 0.207522
272 2 0.334855 0.563791 0.164182
273 2 0.49968 0.247843 0.155045
274 2 0.271319 0.0789478 0.301297
275 2 0.372458 0.406617 0.213831
276 2 0.605056 0.948596 0.471837
277 2 0.757982 0.356148 0.180209
278 2 0.63151 0.51515 0.444575
279 2 0.709443 0.246498 0.380849
280 2 0.0106437 0.317339 0.40626
281 2 0.95233 0.511514 0.145103
282 2 0.290805 0.527814 0.176623
283 2 0.324421 0.956525 0.447684
284 2 0.504444 0.923476 0.468327
285 2 0.54849 0.224879 0.448975
286 2 0.155185 0.16626 0.442013
287 2 0.107774 0.181098 0.367284
288 2 0.434581 0.727489 0.223872
289 2 0.326422 0.307512 0.268827
290 2 0.287226 0.0349562 0.994395
291 2 0.815294 0.47827 0.216458
292 2 0.259768 0.350906 0.164424
293 2 0.417474 0.884668 0.271508
294 2 0.1731 0.498327 0.319573
295 2 0.492786 0.262049 0.275414
296 2 0.992716 0.924457 0.280571
297 2 0.480373 0.234659 0.521727
298 2 0.141101 0.997839 0.214122
299 2 0.395861 0.357537 0.304254
300 2 0.603975 0.964769 0.332472
301 2 0.041784 0.520887 0.184487
302 2 0.456399 0.12503 0.167817
303 2 0.162931 0.182985 0.611578
304 2 0.256032 0.320344 0.0634776
305 2 0.456414 0.0245316 0.370552
306 2 0.0267385 0.297415 0.1286
307 2 0.333566 0.549434 0.523119
308 2 0.177892 0.291618 0.19737
309 2 0.377668 0.673856 0.176424
310 2 0.886753 0.427548 0.0766082
311 2 0.818449 0.362471 0.68713
312 2 0.119682 0.390947 0.52816
313 2 0.275035 0.414038 0.360351
314 2 0.741524 0.0201981 0.962467
315 2 0.483764 0.361476 0.24921
316 2 0.376916 0.389089 0.127774
317 2 0.236296 0.318506 0.960641
318 2 0.0330842 0.123659 0.482338
319 2 0.15994 0.100536 0.250286
320 2 0.42625 0.155607 0.531508
321 2 0.350858 0.785424 0.216285
322 2 0.0663844 0.282896 0.28131
323 2 0.324207 0.0796731 0.324772
324 2 0.91345 0.187462 0.362166
325 2 0.193488 0.229778 0.327667
326 2 0.421346 0.329525 0.26998
327 2 0.436597 0.06814 0.277921
328 2 0.490815 0.182646 0.331148
329 2 0.193246 0.363795 0.200215
330 2 0.334413 0.358027 0.293202
331 2 0.199484 0.345948 0.173616
332 2 0.907609 0.586744 0.224349
333 2 0.11101 0.360611 0.0678409
334 2 0.613837 0.313428 0.35585
335 2 0.537785 0.600302 0.0563223
336 2 0.967854 0.966221 0.233515
337 2 0.975403 0.18569 0.679383
338 2 0.40984 0.35253 0.158019
339 2 0.341887 0.149437 0.184027
340 2 0.334199 0.487297 0.397869
341 2 0.177933 0.985827 0.21867
342 2 0.284488 0.370124 0.146132
343 2 0.492107 0.00745064 0.373585
344 2 0.722577 0.488329 0.126706
345 2 0.385599 0.208512 0.224921
346 2 0.306085 0.0335902 0.276864
347 2 0.52739 0.534389 0.231833
348 2 0.948756 0.408098 0.388551
349 2 0.957587 0.621387 0.0334181
350 2 0.879033 0.461463 0.119718
351 2 0.285506 0.203447 0.947093
352 2 0.155147 0.956373 0.280579
353 2 0.323592 0.863203 0.572951
354 2 0.168495 0.00508147 0.55618
355 2 0.385564 0.158476 0.4349
356 2 0.71012 0.497082 0.290191
357 2 0.40356 0.523363 0.202828
358 2 0.23524 0.749509 0.625143
359 2 0.659787 0.0982638 0.458789
360 2 0.0855091 0.136612 0.185203
361 2 0.90432 0.781154 0.372331
362 2 0.418272 0.306615 0.526747
363 2 0.726503 0.267725 0.402558
364 2 0.369866 0.144591 0.236332
365 2 0.534926 0.35001 0.432709
366 2 0.20001 0.538525 0.684279
367 2 0.362587 0.0139316 0.30346
368 2 0.461017 0.982391 0.0733604
369 2 0.261286 0.982149 0.324846
370 2 0.955587 0.170621 0.0710725
371 2 0.695242 0.26842 0.357041
372 2 0.0306024 0.159956 0.117791
373 2 0.165275 0.102903 0.219505
374 2 0.170553 0.371349 0.269773
375 2 0.522068 0.97013 0.296805
376 2 0.281438 0.441353 0.658054
377 2 0.308035 0.192112 0.119488
378 2 0.311838 0.666913 0.123982
379 2 0.259901 0.240734 0.283645
380 2 0.371183 0.299131 0.237486
381 2 0.263297 0.994349 0.273941
382 2 0.329414 0.0789288 0.4937
383 2 0.406854 0.406489 0.369558
384 2 0.988807 0.360009 0.375031
385 2 0.325647 0.0147649 0.396084
386 2 0.117774 0.402545 0.295621
387 2 0.299354 0.294613 0.287737
388 2 0.590239 0.465721 0.306976
389 2 0.314352 0.407073 0.96325
390 2 0.989753 0.565962 0.977898
391 2 0.434644 0.54433 0.57783
392 2 0.166776 0.332928 0.267504
393 2 0.118473 0.179004 0.141887
394 2 0.989188 0.589153 0.540273
395 2 0.262207 0.919894 0.0649837
396 2 0.542757 0.120902 0.441104
397 2 0.996554 0.810965 0.307475
398 2 0.698179 0.0149847 0.153587
399 2 0.563087 0.254922 0.149429
400 2 0.817869 0.965493 0.119404
401 2 0.527621 0.060231 0.393138
402 2 0.270671 0.490679 0.0952789
403 2 0.545499 0.409192 0.639663
404 2 0.700781 0.340754 0.278529
405 2 0.712337 0.10246 0.624344
406 2 0.554505 0.982627 0.247291
407 2 0.600817 0.428909 0.40696
408 2 0.1363 0.0605386 0.551681
409 2 0.0983177 0.336138 0.971846
410 2 0.85018 0.75345 0.0947874
411 2 0.313429 0.160845 0.322006
412 2 0.94925 0.358871 0.978826
413 2 0.255482 0.675229 0.500136
414 2 0.183371 0.307476 0.758796
415 2 0.101286 0.0360736 0.304698
416 2 0.909946 0.965513 0.707094
417 2 0.059197 0.0794989 0.315341
418 2 0.120276 0.210611 0.310239
419 2 0.549112 0.555495 0.487129
420 2 0.0711712 0.238681 0.781315
421 2 0.168315 0.0425236 0.155542
422 2 0.561374 0.939928 0.502906
423 2 0.826927 0.199462 0.474526
424 2 0.0296663 0.101466 0.307271
425 2 0.165804 0.123982 0.331086
426 2 0.0122157 0.34687 0.0774466
427 2 0.106915 0.974216 0.613219
428 2 0.0618752 0.99911 0.33515
429 2 0.0987895 0.248961 0.153922
430 2 0.320811 0.604823 0.121313
431 2 0.419049 0.987673 0.454873
432 2 0.274913 0.415431 0.113869
433 2 0.7434 0.972249 0.150955
434 2 0.399771 0.305643 0.337787
435 2 0.0974247 0.161229 0.289323
436 2 0.0253115 0.182521 0.410566
437 2 0.280918 0.301146 0.230908
438 2 0.23599 0.399887 0.179864
439 2 0.970671 0.197698 0.208953
440 2 0.25065 0.215485 0.442517
441 2 0.292217 0.0764994 0.19979
442 2 0.179435 0.500012 0.154729
443 2 0.215427 0.241356 0.560487
444 2 0.122674 0.898595 0.445595
445 2 0.519304 0.390676 0.213318
446 2 0.0644747 0.482987 0.473845
447 2 0.22815 0.071492 0.0108071
448 2 0.244565 0.457331 0.333841
449 2 0.350879 0.601505 0.522751
450 2 0.389497 0.427603 0.32277
451 2 0.636191 0.993537 0.280604
452 2 0.239148 0.566705 0.464137
453 2 0.05547 0.141017 0.135173
454 2 0.699253 0.985255 0.321794
455 2 0.578521 0.381607 0.171862
456 2 0.323097 0.47571 0.184426
457 2 0.223669 0.121193 0.305204
458 2 0.543048 0.336405 0.289228
459 2 0.351631 0.0923094 0.16847
460 2 0.425824 0.32171 0.39978
461 2 0.785113 0.80088 0.976743
462 2 0.488559 0.401178 0.0639327
463 2 0.0209397 0.948613 0.288012
464 2 0.0515251 0.2441 0.310734
465 2 0.954326 0.190161 0.955679
466 2 0.559904 0.320035 0.391256
467 2 0.378422 0.0535082 0.0481605
468 2 0.619462 0.179696 0.723534
469 2 0.149091 0.481215 0.564952
470 2 0.318831 0.173722 0.238223
471 2 0.434836 0.997417 0.42609
472 2 0.988929 0.0591369 0.163349
473 2 0.234954 0.0694628 0.337028
474 2 0.383393 0.0876786 0.343944
475 2 0.429323 0.140738 0.104912
476 2 0.755748 0.142217 0.281329
477 2 0.829708 0.689404 0.406689
478 2 0.26966 0.291697 0.175601
479 2 0.285783 0.0208293 0.168698
480 2 0.733046 0.157273 0.414216
481 2 0.411827 0.150814 0.130946
482 2 0.681619 0.192705 0.203282
483 2 0.754629 0.166352 0.332008
484 2 0.384435 0.278116 0.979151
485 2 0.106472 0.264542 0.37393
486 2 0.463792 0.264324 0.224857
487 2 0.336861 0.221549 0.680407
488 2 0.858929 0.172386 0.367223
489 2 0.757969 0.602981 0.33105
490 2 0.402318 0.474745 0.446185
491 2 0.313161 0.0268654 0.519346
492 2 0.377236 0.428112 0.3789
493 2 0.352741 0.43823 0.591089
494 2 0.21461 0.492845 0.0897155
495 2 0.307431 0.0744501 0.65181
496 2 0.210459 0.287808 0.71696
497 2 0.0153784 0.22434 0.702919
498 2 0.0299192 0.412283 0.371581
499 2 0.300596 0.351525 0.572828
500 2 0.610123 0.480961 0.160622
501 2 0.97846 0.192856 0.12122
502 2 0.0370505 0.138452 0.0939003
503 2 0.257041 0.00903043 0.149915
504 2 0.749994 0.979061 0.394557
505 2 0.496099 0.0111726 0.934869
506 2 0.232952 0.300529 0.56709
507 2 0.377596 0.304515 0.671159
508 2 0.180768 0.324496 0.111339
509 2 0.0399179 0.577899 0.953104
510 2 0.327119 0.362118 0.0531355
511 2 0.303628 0.252262 0.0916607
512 2 0.963824 0.356935 0.191838
513 2 0.901313 0.356933 0.274665
514 2 0.660134 0.33383 0.0378135
515 2 0.283997 0.0410836 0.302069
516 2 0.338664 0.390974 0.127495
517 2 0.117696 0.230997 0.995275
518 2 0.286188 0.550536 0.397461
519 2 0.158064 0.783936 0.305065
520 2 0.599089 0.440041 0.376974
521 2 0.340419 0.137704 0.278451
522 2 0.341822 0.834047 0.150914
523 2 0.0264242 0.416048 0.430599
524 2 0.140489 0.326377 0.722107
525 2 0.374373 0.764033 0.272665
526 2 0.380938 0.96072 0.729322
527 2 0.144194 0.285379 0.469712
528 2 0.51845 0.439106 0.253386
529 2 0.5378 0.18661 0.260528
530 2 0.290604 0.969664 0.12173
531 2 0.103887 0.33141 0.10927
532 2 0.491399 0.750439 0.37257
533 2 0.115112 0.540499 0.17535
534 2 0.169063 0.226677 0.228797
535 2 0.564737 0.222307 0.501797
536 2 0.947856 0.326137 0.180036
537 2 0.168917 0.140618 0.940819
538 2 0.606517 0.912747 0.232671
539 2 0.492082 0.0462519 0.324553
540 2 0.212942 0.105005 0.875251
541 2 0.93038 0.959998 0.924082
542 2 0.178114 0.376895 0.0749357
543 2 0.229824 0.462405 0.278399
544 2 0.192439 0.205226 0.598872
545 2 0.349805 0.428255 0.0780784
546 2 0.47583 0.427016 0.205828
547 2 0.378249 0.25794 0.580777
548 2 0.636499 0.363381 0.298321
549 2 0.712941 0.940433 0.665079
550 2 0.889122 0.202004 0.588059
551 2 0.264483 0.584518 0.25256
552 2 0.259154 0.387476 0.203564
553 2 0.779201 0.098691 0.0538048
554 2 0.585529 0.958679 0.0241821
555 2 0.462311 0.388994 0.934177
556 2 0.205862 0.291483 0.150501
557 2 0.274195 0.363298 0.985264
558 2 0.935784 0.40854 0.240261
559 2 0.595239 0.316364 0.26128
560 2 0.699131 0.11732 0.345774
561 2 0.834552 0.297909 0.683738
562 2 0.166729 0.399647 0.476091
563 2 0.323718 0.15349 0.454915
564 2 0.182023 0.0150119 0.265074
565 2 0.0903871 0.202561 0.185853
566 2 0.417538 0.595653 0.337047
567 2 0.410864 0.320132 0.597758
568 2 0.158932 0.904249 0.241914
569 2 0.966346 0.321617 0.275423
570 2 0.221202 0.0779386 0.399819
571 2 0.422304 0.531316 0.0297622
572 2 0.0998897 0.287833 0.295569
573 2 0.553296 0.343881 0.366434
574 2 0.458054 0.427721 0.0222565
575 2 0.989237 0.116505 0.0789225
576 2 0.250011 0.0992638 0.322124
577 2 0.816741 0.589781 0.321468
578 2 0.416919 0.872472 0.166931
579 2 0.68467 0.168961 0.69173
580 2 0.084685 0.307719 0.228993
581 2 0.568742 0.169412 0.467455
582 2 0.114634 0.188264 0.224386
583 2 0.265003 0.8551 0.252149
584 2 0.486729 0.138225 0.150691
585 2 0.122918 0.543118 0.693378
586 2 0.339453 0.546881 0.371813
587 2 0.553204 0.487001 0.261242
588 2 0.0443891 0.582426 0.316541
589 2 0.899053 0.404931 0.00817027
590 2 0.391395 0.84587 0.414175
591 2 0.284107 0.0876898 0.363518
592 2 0.123284 0.499214 0.128514
593 2 0.0401033 0.827024 0.0653907
594 2 0.105427 0.641147 0.625856
595 2 0.931221 0.884009 0.110737
596 2 0.90424 0.159577 0.314493
597 2 0.115115 0.434121 0.187852
598 2 0.198593 0.66402 0.530538
599 2 0.110373 0.147807 0.966672
600 2 0.904083 0.307876 0.0239698
601 2 0.438889 0.204251 0.304328
602 2 0.925616 0.347984 0.351396
603 2 0.432504 0.577345 0.187546
604 2 0.3113 0.550371 0.272509
605 2 0.0456907 0.616223 0.1017
606 2 0.626034 0.515494 0.162969
607 2 0.408298 0.375034 0.387182
608 2 0.125565 0.579943 0.924476
609 2 0.175384 0.437568 0.264507
610 2 0.137742 0.333847 0.168463
611 2 0.268289 0.00200435 0.120458
612 2 0.204049 0.154211 0.159886
613 2 0.357955 0.304548 0.945687
614 2 0.205579 0.256624 0.476337
615 2 0.133885 0.335131 0.636524
616 2 0.485453 0.954742 0.155047
617 2 0.177953 0.253783 0.382527
618 2 0.978385 0.98556 0.119771
619 2 0.167176 0.355731 0.158593
620 2 0.167722 0.520275 0.439354
621 2 0.307708 0.248347 0.191667
622 2 0.0982075 0.481946 0.288967
623 2 0.518346 0.626896 0.337879
624 2 0.409053 0.488677 0.216132
625 2 0.231173 0.312574 0.484903
626 2 0.0908348 0.0820042 0.472512
627 2 0.38593 0.209324 0.0105938
628 2 0.38083 0.843343 0.257593
629 2 0.786421 0.285701 0.401729
630 2 0.590758 0.182657 0.563643
631 2 0.465125 0.2099 0.917624
632 2 0.207061 0.214998 0.354896
633 2 0.0905282 0.296927 0.58893
634 2 0.723041 0.689044 0.251628
635 2 0.677157 0.415356 0.971405
636 2 0.2946 0.417883 0.531708
637 2 0.336112 0.286738 0.0165732
638 2 0.126337 0.0323828 0.219966
639 2 0.155331 0.26603 0.160086
640 2 0.361716 0.473369 0.415865
641 2 0.496454 0.0126324 0.420523
642 2 0.117453 0.389134 0.443627
643 2 0.438262 0.965481 0.407482
644 2 0.764093 0.250986 0.764209
645 2 0.336666 0.616262 0.287529
646 2 0.0470636 0.163399 0.551581
647 2 0.442963 0.0324998 0.289857
648 2 0.384267 0.467076 0.276819
649 2 0.141324 0.277097 0.252899
650 2 0.334311 0.995933 0.19052
651 2 0.242394 0.3667 0.0297298
652 2 0.104771 0.838542 0.0481697
653 2 0.343567 0.139739 0.0569986
654 2 0.247014 0.365144 0.33678
655 2 0.468557 0.336729 0.0113054
656 2 0.192074 0.210712 0.72038
657 2 0.254234 0.137342 0.990052
658 2 0.201625 0.513905 0.0172989
659 2 0.983968 0.00367355 0.0924046
660 2 0.139704 0.454145 0.542199
661 2 0.334737 0.179803 0.00450556
662 2 0.248418 0.354195 0.274808
663 2 0.757962 0.894855 0.341863
664 2 0.407206 0.279828 0.361513
665 2 0.473443 0.429227 0.286767
666 2 0.982654 0.661858 0.13445
667 2 0.274823 0.296206 0.329422
668 2 0.907532 0.280252 0.225491
669 2 0.322625 0.390991 0.935511
670 2 0.851179 0.126706 0.490476
671 2 0.148422 0.57826 0.330403
672 2 0.870424 0.576409 0.481775
673 2 0.0706938 0.528315 0.322455
674 2 0.527349 0.221 0.299228
675 2 0.407943 0.0810767 0.148462
676 2 0.190232 0.369235 0.475938
677 2 0.200612 0.821595 0.171746
678 2 0.0251168 0.638079 0.971259
679 2 0.28185 0.264146 0.240947
680 2 0.959854 0.343758 0.542181
681 2 0.917828 0.384101 0.539371
682 2 0.213386 0.114151 0.111184
683 2 0.0918967 0.631725 0.386811
684 2 0.00192195 0.666654 0.272136
685 2 0.280751 0.963442 0.175555
686 2 0.599982 0.393193 0.444871
687 2 0.430275 0.568514 0.0311653
688 2 0.0588464 0.344117 0.632206
689 2 0.560746 0.236188 0.922599
690 2 0.0465302 0.0548354 0.484048
691 2 0.478412 0.204853 0.377048
692 2 0.602579 0.250196 0.465064
693 2 0.269716 0.339919 0.297715
694 2 0.212752 0.495709 0.277458
695 2 0.38241 0.260037 0.164681
696 2 0.839052 0.119664 0.729535
697 2 0.0505149 0.43602 0.229244
698 2 0.578448 0.937014 0.981489
699 2 0.276114 0.114748 0.0378968
700 2 0.224826 0.325473 0.234087
701 2 0.605833 0.72435 0.663449
702 2 0.93247 0.356878 0.142825
703 2 0.614324 0.442874 0.489127
704 2 0.368304 0.324364 0.395248
705 2 0.185229 0.0281947 0.338846
706 2 0.178511 0.262878 0.117025
707 2 0.999369 0.166532 0.985038
708 2 0.159252 0.509515 0.973602
709 2 0.0982384 0.485401 0.148397
710 2 0.240528 0.50264 0.469917
711 2 0.818947 0.90793 0.989337
712 2 0.307112 0.316219 0.584069
713 2 0.870169 0.225887 0.191962
714 2 0.344469 0.395527 0.294869
715 2 0.634179 0.0622245 0.273349
716 2 0.020874 0.538041 0.139822
717 2 0.246438 0.886915 0.30407
718 2 0.223388 0.905037 0.232401
719 2 0.0677727 0.337318 0.158349
720 2 0.0470158 0.359528 0.359287
721 2 0.106685 0.457901 0.52756
722 2 0.475574 0.346874 0.654391
723 2 0.179714 0.280935 0.736138
724 2 0.491026 0.100011 0.67509
725 2 0.839248 0.71923 0.254106
726 2 0.509542 0.0791335 0.41542
727 2 0.100768 0.365017 0.241809
728 2 0.590889 0.086242 0.155508
729 2 0.237354 0.866589 0.514154
730 2 0.189176 0.206483 0.303244
731 2 0.401387 0.131251 0.0852934
732 2 0.301317 0.143729 0.348206
733 2 0.519419 0.610826 0.267284
734 2 0.114308 0.395495 0.198257
735 2 0.0919651 0.241852 0.184707
736 2 0.928191 0.705565 0.431322
737 2 0.973377 0.779822 0.226156
738 2 0.220526 0.226049 0.42574
739 2 0.145204 0.162961 0.0717208
740 2 0.42118 0.337613 0.340698
741 2 0.229823 0.783702 0.201256
742 2 0.454547 0.386841 0.247635
743 2 0.101843 0.303361 0.200262
744 2 0.444911 0.812205 0.162279
745 2 0.993548 0.292221 0.426517
746 2 0.772133 0.428157 0.434077
747 2 0.355125 0.424123 0.254938
748 2 0.525031 0.149766 0.376303
749 2 0.926313 0.0682465 0.595534
750 2 0.0512289 0.595575 0.163545
751 2 0.839918 0.214947 0.387761
752 2 0.0868758 0.195639 0.301451
753 2 0.403799 0.277685 0.247671
754 2 0.899023 0.984284 0.0577541
755 2 0.327897 0.047228 0.0701782
756 2 0.476165 0.445373 0.116802
757 2 0.260028 0.202522 0.178827
758 2 0.0854361 0.282238 0.53712
759 2 0.433894 0.325326 0.550487
760 2 0.396228 0.117218 0.279764
761 2 0.0352287 0.270688 0.0209955
762 2 0.484615 0.176557 0.18877
763 2 0.999204 0.138759 0.563949
764 2 0.112846 0.0987693 0.32237
765 2 0.933816 0.569012 0.184623
766 2 0.344797 0.549431 0.326104
767 2 0.988869 0.0256617 0.454508
768 2 0.284309 0.394637 0.302293
769 2 0.074801 0.351108 0.0569558
770 2 0.436881 0.00267744 0.269915
771 2 0.508607 0.417131 0.27689
772 2 0.261108 0.638892 0.319834
773 2 0.231268 0.0376015 0.150665
774 2 0.210538 0.571876 0.234095
775 2 0.23966 0.336424 0.317327
776 2 0.666566 0.289743 0.367415
777 2 0.067144 0.315656 0.9675
778 2 0.122811 0.59676 0.0324324
779 2 0.983379 0.281253 0.546495
780 2 0.826723 0.407947 0.165491
781 2 0.338802 0.627049 0.543199
782 2 0.995389 0.161647 0.262993
783 2 0.302792 0.966869 0.377029
784 2 0.883421 0.0800046 0.208083
785 2 0.429164 0.331029 0.430684
786 2 0.990526 0.922768 0.729013
787 2 0.132966 0.0569394 0.401009
788 2 0.492893 0.0181191 0.17187
789 2 0.162604 0.382047 0.715122
790 2 0.398033 0.132586 0.575072
791 2 0.250287 0.995027 0.21031
792 2 0.119987 0.418482 0.393616
793 2 0.241024 0.431361 0.106088
794 2 0.482481 0.103624 0.406061
795 2 0.54716 0.0181188 0.493474
796 2 0.185391 0.15764 0.202354
797 2 0.420617 0.251336 0.199743
798 2 0.39141 0.208561 0.104237
799 2 0.0533275 0.474763 0.0450661
800 2 0.0963964 0.258318 0.0395518
801 2 0.446003 0.0574984 0.417173
802 2 0.384965 0.612913 0.384391
803 2 0.929786 0.506797 0.0679669
804 2 0.385271 0.0287675 0.204772
805 2 0.724091 0.13841 0.162407
806 2 0.541497 0.273996 0.308909
807 2 0.119894 0.308798 0.342196
808 2 0.874987 0.335874 0.12812
809 2 0.991933 0.140624 0.428283
810 2 0.140591 0.593531 0.372927
811 2 0.189919 0.314888 0.0644912
812 2 0.208181 0.190666 0.154779
813 2 0.746612 0.172361 0.261079
814 2 0.253164 0.197734 0.318426
815 2 0.140331 0.99592 0.390012
816 2 0.563018 0.166529 0.726252
817 2 0.37905 0.474903 0.01387
818 2 0.473193 0.388063 0.3516
819 2 0.0526793 0.998353 0.463793
820 2 0.545933 0.614528 0.188773
821 2 0.14572 0.135761 0.250829
822 2 0.247391 0.463277 0.049612
823 2 0.370389 0.727909 0.470216
824 2 0.291298 0.9272 0.177593
825 2 0.259217 0.190865 0.849288
826 2 0.256104 0.247071 0.221169
827 2 0.454697 0.265576 0.269618
828 2 0.324364 0.730006 0.245429
829 2 0.151748 0.264528 0.190343
830 2 0.93428 0.530015 0.373963
831 2 0.180741 0.195535 0.371621
832 2 0.877348 0.131872 0.587725
833 2 0.449293 0.168923 0.591675
834 2 0.928406 0.185922 0.172974
835 2 0.048158 0.34554 0.258476
836 2 0.530374 0.167196 0.210285
837 2 0.0382981 0.961553 0.133953
838 2 0.308609 0.463745 0.0523123
839 2 0.953315 0.863156 0.129571
840 2 0.215718 0.103895 0.176152
841 2 0.238709 0.29825 0.192894
842 2 0.201753 0.185492 0.25612
843 2 0.0675178 0.568524 0.403628
844 2 0.305484 0.286561 0.189496
845 2 0.916671 0.889464 0.526697
846 2 0.363416 0.335316 0.305007
847 2 0.532078 0.250787 0.372458
848 2 0.191975 0.161421 0.877426
849 2 0.300394 0.359806 0.308946
850 2 0.330098 0.123447 0.361783
851 2 0.700062 0.332166 0.668767
852 2 0.971942 0.0519752 0.325673
853 2 0.254654 0.435628 0.679683
854 2 0.326772 0.232295 0.622761
855 2 0.20222 0.00189567 0.357784
856 2 0.290627 0.997435 4.87835e-05
857 2 0.727976 0.0407565 0.106856
858 2 0.170248 0.150166 0.627203
859 2 0.882119 0.383169 0.168391
860 2 0.583896 0.241426 0.524398
861 2 0.254903 0.174705 0.555956
862 2 0.143238 0.447355 0.16871
863 2 0.548255 0.292217 0.450121
864 2 0.618144 0.190375 0.203808
865 2 0.0357848 0.807997 0.637707
866 2 0.272681 0.146721 0.889162
867 2 0.34305 0.398266 0.627912
868 2 0.175569 0.893884 0.324746
869 2 0.973424 0.972666 0.169659
870 2 0.126316 0.448689 0.327085
871 2 0.951335 0.606738 0.629117
872 2 0.550979 0.0851478 0.029311
873 2 0.91893 0.498988 0.222089
874 2 0.194533 0.616582 0.204418
875 2 0.356998 0.820687 0.124224
876 2 0.105255 0.328477 0.253108
877 2 0.0734966 0.653586 0.275576
878 2 0.958971 0.923861 0.412602
879 2 0.10261 0.379564 0.142271
880 2 0.0283702 0.253104 0.0873222
881 2 0.0490861 0.349133 0.55509
882 2 0.576996 0.936693 0.231308
883 2 0.718394 0.0696782 0.451759
884 2 0.988144 0.290838 0.267139
885 2 0.163937 0.959665 0.926758
886 2 0.19905 0.247496 0.445635
887 2 0.654799 0.934086 0.443404
888 2 0.196427 0.946238 0.0980988
889 2 0.0080411 0.240631 0.0442955
890 2 0.463613 0.144053 0.36673
891 2 0.248481 0.389555 0.312352
892 2 0.173238 0.978748 0.303596
893 2 0.13987 0.0302413 0.297603
894 2 0.302137 0.564217 0.442876
895 2 0.131865 0.253637 0.615549
896 2 0.969738 0.929126 0.549372
897 2 0.372889 0.476327 0.220907
898 2 0.231542 0.446066 0.306071
899 2 0.44051 0.352208 0.385016
900 2 0.470065 0.873277 0.479846
901 2 0.255853 0.553885 0.296553
902 2 0.037308 0.262246 0.0564135
903 2 0.575012 0.223502 0.330009
904 2 0.608519 0.385638 0.496666
905 2 0.881532 0.291859 0.471655