 vasp.6.5.0 16Dec24 (build Jan 20 2025 08:32:48) complex                         
 executed on        HPECrayEX_GCC date 2025.07.21  14:52:31
 running  128 mpi-ranks, with    1 threads/rank, on    1 nodes
 distrk:  each k-point on  128 cores,    1 groups
 distr:  one band on NCORE=  16 cores,    8 groups


--------------------------------------------------------------------------------------------------------


 INCAR:
   SYSTEM = a-Si SPC
   NCORE = 16
   ISTART = 1
   ICHARG = 1
   ISPIN = 1
   ISYM = 1
   EDIFF = 1E-6
   NELM = 150
   EDIFFG = -0.01
   NSW = 0
   ISIF = 2
   IBRION = -1
   PREC = Accurate
   ENCUT = 1200
   KSPACING = 0.23
   KGAMMA = .TRUE.
   METAGGA = SCAN
   LASPH = .TRUE.
   LDIAG = .FALSE.
   LMIXTAU = .TRUE.
   ADDGRID = .TRUE.
   ALGO = Normal
   ISMEAR = 0
   SIGMA = 0.1
   LORBIT = 11
   NEDOS = 2000
   LWAVE = .FALSE.
   LCHARG = .FALSE.

 POTCAR:    PAW_PBE H 15Jun2001                   
 POTCAR:    PAW_PBE Si 05Jan2001                  
 POTCAR:    PAW_PBE H 15Jun2001                   
   SHA256 =  030f79b5d3ab3cf0e668861823c8fb652ff669f3e15e46930bd03bfd63a607b6 H/POTCAR              
   COPYR  = (c) Copyright 15Jun2001 Georg Kresse                                                    
   COPYR  = This file is part of the software VASP. Any use, copying, and all other rights are regul
   COPYR  = If you do not have a valid VASP license, you may not use, copy or distribute this file. 
   VRHFIN =H: ultrasoft test                                                                        
   LEXCH  = PE                                                                                      
   EATOM  =    12.4884 eV,    0.9179 Ry                                                             
                                                                                                    
   TITEL  = PAW_PBE H 15Jun2001                                                                     
   LULTRA =        F    use ultrasoft PP ?                                                          
   IUNSCR =        0    unscreen: 0-lin 1-nonlin 2-no                                               
   RPACOR =    0.000    partial core radius                                                         
   POMASS =    1.000; ZVAL   =    1.000    mass and valenz                                          
   RCORE  =    1.100    outmost cutoff radius                                                       
   RWIGS  =    0.700; RWIGS  =    0.370    wigner-seitz radius (au A)                               
   ENMAX  =  250.000; ENMIN  =  200.000 eV                                                          
   RCLOC  =    0.701    cutoff for local pot                                                        
   LCOR   =        T    correct aug charges                                                         
   LPAW   =        T    paw PP                                                                      
   EAUG   =  400.000                                                                                
   RMAX   =    1.123    core radius for proj-oper                                                   
   RAUG   =    1.200    factor for augmentation sphere                                              
   RDEP   =    1.112    radius for radial grids                                                     
   RDEPT  =    0.926    core radius for aug-charge                                                  
                                                                                                    
   Atomic configuration                                                                             
    2 entries                                                                                       
     n  l   j            E        occ.                                                              
     1  0  0.50        -6.4927   1.0000                                                             
     2  1  0.50        -3.4015   0.0000                                                             
   Description                                                                                      
     l       E           TYP  RCUT    TYP  RCUT                                                     
     0     -6.4927494     23  1.100                                                                 
     0      6.8029130     23  1.100                                                                 
     1     -4.0817478     23  1.100                                                                 
  local pseudopotential read in
  atomic valenz-charges read in
  non local Contribution for L=           0  read in
    real space projection operators read in
  non local Contribution for L=           0  read in
    real space projection operators read in
  non local Contribution for L=           1  read in
    real space projection operators read in
    PAW grid and wavefunctions read in

   number of l-projection  operators is LMAX  =           3
   number of lm-projection operators is LMMAX =           5

 POTCAR:    PAW_PBE Si 05Jan2001                  
   SHA256 =  79d9987ad8750f624c4d6acb2a16d13abf6a777132adc04dc6c8399be72b42bb Si/POTCAR             
   COPYR  = (c) Copyright 05Jan2001 Georg Kresse                                                    
   COPYR  = This file is part of the software VASP. Any use, copying, and all other rights are regul
   COPYR  = If you do not have a valid VASP license, you may not use, copy or distribute this file. 
   VRHFIN =Si: s2p2                                                                                 
   LEXCH  = PE                                                                                      
   EATOM  =   103.0669 eV,    7.5752 Ry                                                             
                                                                                                    
   TITEL  = PAW_PBE Si 05Jan2001                                                                    
   LULTRA =        F    use ultrasoft PP ?                                                          
   IUNSCR =        1    unscreen: 0-lin 1-nonlin 2-no                                               
   RPACOR =    1.500    partial core radius                                                         
   POMASS =   28.085; ZVAL   =    4.000    mass and valenz                                          
   RCORE  =    1.900    outmost cutoff radius                                                       
   RWIGS  =    2.480; RWIGS  =    1.312    wigner-seitz radius (au A)                               
   ENMAX  =  245.345; ENMIN  =  184.009 eV                                                          
   ICORE  =        2    local potential                                                             
   LCOR   =        T    correct aug charges                                                         
   LPAW   =        T    paw PP                                                                      
   EAUG   =  322.069                                                                                
   DEXC   =    0.000                                                                                
   RMAX   =    1.950    core radius for proj-oper                                                   
   RAUG   =    1.300    factor for augmentation sphere                                              
   RDEP   =    1.993    radius for radial grids                                                     
   RDEPT  =    1.837    core radius for aug-charge                                                  
                                                                                                    
   Atomic configuration                                                                             
    6 entries                                                                                       
     n  l   j            E        occ.                                                              
     1  0  0.50     -1785.8828   2.0000                                                             
     2  0  0.50      -139.4969   2.0000                                                             
     2  1  1.50       -95.5546   6.0000                                                             
     3  0  0.50       -10.8127   2.0000                                                             
     3  1  0.50        -4.0811   2.0000                                                             
     3  2  1.50        -4.0817   0.0000                                                             
   Description                                                                                      
     l       E           TYP  RCUT    TYP  RCUT                                                     
     0    -10.8127223     23  1.900                                                                 
     0     -7.6451159     23  1.900                                                                 
     1     -4.0811372     23  1.900                                                                 
     1      2.4879257     23  1.900                                                                 
     2     -4.0817478      7  1.900                                                                 
  local pseudopotential read in
  partial core-charges read in
  partial kinetic energy density read in
  atomic valenz-charges read in
  non local Contribution for L=           0  read in
    real space projection operators read in
  non local Contribution for L=           0  read in
    real space projection operators read in
  non local Contribution for L=           1  read in
    real space projection operators read in
  non local Contribution for L=           1  read in
    real space projection operators read in
    PAW grid and wavefunctions read in

   number of l-projection  operators is LMAX  =           4
   number of lm-projection operators is LMMAX =           8

 -----------------------------------------------------------------------------
|                                                                             |
|               ----> ADVICE to this user running VASP <----                  |
|                                                                             |
|     You have a (more or less) 'large supercell' and for larger cells it     |
|     might be more efficient to use real-space projection operators.         |
|     Therefore, try LREAL= Auto in the INCAR file.                           |
|     Mind: For very accurate calculation, you might also keep the            |
|     reciprocal projection scheme (i.e. LREAL=.FALSE.).                      |
|                                                                             |
 -----------------------------------------------------------------------------

 -----------------------------------------------------------------------------
|                                                                             |
|               ----> ADVICE to this user running VASP <----                  |
|                                                                             |
|     You enforced a specific xc type in the INCAR file but a different       |
|     type was found in the POTCAR file.                                      |
|     I HOPE YOU KNOW WHAT YOU ARE DOING!                                     |
|                                                                             |
 -----------------------------------------------------------------------------

  PAW_PBE H 15Jun2001                   :
 energy of atom  1       EATOM=  -12.4884
 kinetic energy error for atom=    0.0000 (will be added to EATOM!!)
  PAW_PBE Si 05Jan2001                  :
 energy of atom  2       EATOM= -103.0669
 kinetic energy error for atom=    0.0001 (will be added to EATOM!!)


 POSCAR:  H Si
  positions in cartesian coordinates
  No initial velocities read in


 exchange-correlation table for SCAN
   RHO(1)=    0.500       N(1)  =     2000
   RHO(2)=  100.500       N(2)  =     4000



--------------------------------------------------------------------------------------------------------


 ion  position               nearest neighbor table
   1  0.975  0.540  0.460-  73 1.50
   2  0.456  0.749  0.435-  75 1.53
   3  0.759  0.816  0.523-  21 0.79
   4  0.505  0.061  0.446-  13 0.77
   5  0.741  0.137  0.464-  95 1.52
   6  0.631  0.975  0.414-
   7  0.690  0.568  0.383-  36 0.77
   8  0.658  0.181  0.542-  95 1.54
   9  0.652  0.400  0.401-
  10  0.649  0.053  0.482-  55 1.47
  11  0.650  0.261  0.460-  69 1.54
  12  0.695  0.251  0.601-
  13  0.541  0.056  0.424-   4 0.77
  14  0.032  0.395  0.441-  39 0.76
  15  0.768  0.291  0.510-  95 1.53
  16  0.804  0.283  0.416-  92 1.48
  17  0.997  0.386  0.525-  68 1.52
  18  0.685  0.380  0.527-  91 1.47
  19  0.564  0.473  0.430-  99 1.51
  20  0.914  0.344  0.477-  92 1.50
  21  0.803  0.831  0.507-   3 0.79
  22  0.818  0.732  0.582-
  23  0.983  0.259  0.414-  64 1.49
  24  0.649  0.715  0.394-
  25  0.896  0.225  0.575-
  26  0.702  0.534  0.475-  97 1.43
  27  0.589  0.643  0.456-  88 1.57
  28  0.892  0.692  0.514-  32 0.75
  29  0.885  0.413  0.562-  49 0.77
  30  0.510  0.422  0.512-  99 1.55  61 1.96
  31  0.660  0.797  0.463-  53 1.52
  32  0.931  0.720  0.504-  28 0.75
  33  0.776  0.944  0.462-  85 1.46
  34  0.698  0.188  0.402-
  35  0.823  0.135  0.541-  95 1.49
  36  0.702  0.550  0.410-   7 0.77
  37  0.966  0.239  0.503-  59 1.50
  38  0.479  0.984  0.561-  79 1.50
  39  0.047  0.374  0.416-  14 0.76
  40  0.736  0.093  0.617-
  41  0.716  0.668  0.491-  97 1.53
  42  0.763  0.420  0.453-  92 1.48
  43  0.753  0.980  0.545-  55 1.46
  44  0.855  0.063  0.451-  85 1.40
  45  0.804  0.778  0.437-  81 1.43
  46  0.932  0.588  0.561-  50 0.71
  47  0.915  0.146  0.455-  64 1.49
  48  0.056  0.626  0.500- 102 1.65
  49  0.834  0.415  0.567-  29 0.77
  50  0.958  0.554  0.548-  46 0.71
  51  0.265  0.691  0.552-  62 2.24  90 2.29  98 2.38 103 2.44
  52  0.175  0.467  0.523-  98 2.22 102 2.23  54 2.31  68 2.33
  53  0.590  0.852  0.493-  31 1.52  94 2.15  75 2.31  55 2.37
  54  0.262  0.348  0.491-  52 2.31  58 2.31  76 2.35  82 2.42
  55  0.661  0.987  0.524-  43 1.46  10 1.47  79 2.20  53 2.37
  56  0.891  0.941  0.595-  63 2.20
  57  0.376  0.062  0.517-  60 2.29  77 2.39  67 2.40  93 2.40
  58  0.350  0.448  0.443-  99 2.24  84 2.30  54 2.31
  59  0.062  0.207  0.512-  37 1.50  96 2.24  70 2.31  82 2.34
  60  0.297  0.066  0.593-  78 2.20  57 2.29  74 2.45
  61  0.531  0.518  0.563-  30 1.96  65 2.28  88 2.29  91 2.35  80 3.13
  62  0.262  0.679  0.467-  51 2.24  84 2.28 102 2.36 101 2.92  86 3.12
  63  0.956  0.927  0.519-  56 2.20  85 2.26 100 2.30  70 2.53
  64  0.948  0.165  0.402-  23 1.49  47 1.49
  65  0.405  0.439  0.590-  61 2.28  76 2.30  98 2.33
  66  0.126  0.847  0.617- 103 2.24  78 2.29
  67  0.350  0.902  0.502-  75 2.27  86 2.34  57 2.40  90 2.46
  68  0.058  0.400  0.571-  17 1.52  96 2.17  52 2.33
  69  0.545  0.255  0.456-  11 1.54  99 2.32  77 2.32
  70  0.076  0.051  0.526-  59 2.31  89 2.37  78 2.37  63 2.53
  71  0.967  0.931  0.389-  85 2.19  72 2.29
  72  0.007  0.785  0.412-  71 2.29  81 2.29 100 2.56
  73  0.887  0.572  0.436-   1 1.50  81 2.35  97 2.35  92 3.04
  74  0.272  0.230  0.605-  76 2.24  96 2.32  60 2.45
  75  0.457  0.853  0.445-   2 1.53  67 2.27  53 2.31
  76  0.370  0.301  0.552-  77 2.23  74 2.24  65 2.30  54 2.35
  77  0.470  0.195  0.527-  76 2.23  69 2.32  83 2.33  57 2.39
  78  0.165  0.995  0.596-  60 2.20  66 2.29  70 2.37
  79  0.566  0.018  0.587-  38 1.50  55 2.20  83 2.29
  80  0.631  0.688  0.610-  87 2.38  94 2.39  61 3.13
  81  0.863  0.722  0.407-  45 1.43  72 2.29  73 2.35
  82  0.159  0.248  0.444-  59 2.34  54 2.42  93 2.59
  83  0.503  0.155  0.611-  79 2.29  77 2.33
  84  0.392  0.599  0.449-  88 2.26  62 2.28  58 2.30
  85  0.871  0.969  0.450-  44 1.40  33 1.46  71 2.19  63 2.26
  86  0.202  0.885  0.469-  89 2.22 101 2.33  67 2.34 100 2.38  62 3.12
  87  0.747  0.582  0.585-  97 2.27  91 2.30  80 2.38
  88  0.516  0.623  0.498-  27 1.57  84 2.26  61 2.29  94 2.29
  89  0.161  0.027  0.450-  86 2.22  93 2.36  70 2.37
  90  0.379  0.793  0.572-  51 2.29  94 2.43  67 2.46
  91  0.674  0.445  0.570-  18 1.47  87 2.30  61 2.35  97 3.08
  92  0.845  0.368  0.437-  16 1.48  42 1.48  20 1.50  73 3.04
  93  0.289  0.126  0.448-  89 2.36  57 2.40  82 2.59
  94  0.534  0.754  0.546-  53 2.15  88 2.29  80 2.39  90 2.43
  95  0.751  0.188  0.514-  35 1.49   5 1.52  15 1.53   8 1.54
  96  0.121  0.267  0.584-  68 2.17  59 2.24  74 2.32
  97  0.774  0.583  0.500-  26 1.43  41 1.53  87 2.27  73 2.35  91 3.08
  98  0.279  0.533  0.574-  52 2.22  65 2.33  51 2.38
  99  0.496  0.406  0.454-  19 1.51  30 1.55  58 2.24  69 2.32
 100  0.066  0.819  0.502-  63 2.30 103 2.33  86 2.38  72 2.56
 101  0.241  0.822  0.389-  86 2.33  62 2.92
 102  0.138  0.575  0.467-  48 1.65  52 2.23  62 2.36
 103  0.103  0.721  0.570-  66 2.24 100 2.33  51 2.44

  LATTYP: Found a simple tetragonal cell.
 ALAT       =    14.5894768955
 C/A-ratio  =     1.7905966052
  
  Lattice vectors:
  
 A1 = (  14.5894768955,   0.0000000000,   0.0000000000)
 A2 = (   0.0000000000,  14.5894768955,   0.0000000000)
 A3 = (   0.0000000000,   0.0000000000,  26.1238678000)


Analysis of symmetry for initial positions (statically):
=====================================================================
 Subroutine PRICEL returns:
 Original cell was already a primitive cell.
 

 Routine SETGRP: Setting up the symmetry group for a 
 simple tetragonal supercell.


 Subroutine GETGRP returns: Found  1 space group operations
 (whereof  1 operations were pure point group operations)
 out of a pool of 16 trial point group operations.


The static configuration has the point symmetry C_1 .


Analysis of symmetry for dynamics (positions and initial velocities):
=====================================================================
 Subroutine PRICEL returns:
 Original cell was already a primitive cell.
 

 Routine SETGRP: Setting up the symmetry group for a 
 simple tetragonal supercell.


 Subroutine GETGRP returns: Found  1 space group operations
 (whereof  1 operations were pure point group operations)
 out of a pool of 16 trial point group operations.


The dynamic configuration has the point symmetry C_1 .


 Subroutine INISYM returns: Found  1 space group operations
 (whereof  1 operations are pure point group operations),
 and found     1 'primitive' translations


----------------------------------------------------------------------------------------

                                     Primitive cell                                     

  volume of cell :    5560.5394

  direct lattice vectors                    reciprocal lattice vectors
    14.589476895  0.000000000  0.000000000     0.068542553  0.000000000  0.000000000
     0.000000000 14.589476895  0.000000000     0.000000000  0.068542553  0.000000000
     0.000000000  0.000000000 26.123867800     0.000000000  0.000000000  0.038279171

  length of vectors
    14.589476895 14.589476895 26.123867800     0.068542553  0.068542553  0.038279171

  position of ions in fractional coordinates (direct lattice)
     0.974873884  0.539614961  0.459839174
     0.456346725  0.749368883  0.434598655
     0.759286990  0.816211581  0.523024305
     0.504863201  0.060763179  0.445734831
     0.740787355  0.136559386  0.463647952
     0.630986982  0.974716236  0.414319307
     0.690086428  0.567905214  0.382791709
     0.657920779  0.181043503  0.541535729
     0.651949351  0.399908786  0.400840943
     0.649038349  0.052725605  0.481727204
     0.649723089  0.261198536  0.459902718
     0.695206557  0.250956222  0.601341575
     0.540798690  0.056118050  0.424043135
     0.032109582  0.395184834  0.441192625
     0.767765704  0.291023457  0.510207290
     0.803825941  0.282539260  0.416273114
     0.997047400  0.385534728  0.524814239
     0.684851148  0.380152766  0.526940264
     0.563523289  0.472622154  0.430262390
     0.914302829  0.343902666  0.476841251
     0.803366706  0.830674060  0.507243334
     0.818322691  0.731616361  0.582037006
     0.982701443  0.258595289  0.413762192
     0.649307721  0.714878270  0.393956319
     0.895926570  0.224729785  0.574945790
     0.701827768  0.533583216  0.475493058
     0.589445397  0.643171792  0.455710383
     0.892095042  0.692218102  0.513864865
     0.885432706  0.413366431  0.561921302
     0.510138921  0.421883529  0.511870903
     0.660467820  0.796882581  0.463183243
     0.930766750  0.720443925  0.503791701
     0.776114187  0.944016026  0.461684613
     0.698393786  0.187919692  0.402497857
     0.823463383  0.134577135  0.540513675
     0.702280148  0.549968999  0.409702954
     0.966148416  0.238718634  0.503267277
     0.479458589  0.984319047  0.561469607
     0.046990307  0.373792017  0.415976489
     0.735996230  0.092555752  0.616585489
     0.715940679  0.667821065  0.490734676
     0.762755243  0.419958854  0.453085580
     0.753282662  0.980124243  0.544658161
     0.855088917  0.063374582  0.450916300
     0.804011006  0.777855168  0.437418681
     0.932110184  0.588072490  0.561326826
     0.914995109  0.146370567  0.454817330
     0.055830583  0.625821615  0.500427728
     0.833511721  0.415382268  0.566588298
     0.958156355  0.553728558  0.548393060
     0.264988253  0.690908939  0.552494290
     0.175429182  0.467069522  0.523293790
     0.589924509  0.851812583  0.493055542
     0.261637893  0.348095414  0.490669984
     0.660717315  0.987122438  0.523836206
     0.891395908  0.940931611  0.594769424
     0.376215682  0.061956025  0.516722405
     0.349956344  0.447597268  0.442777382
     0.062450903  0.207107494  0.512340588
     0.297157330  0.066225198  0.592594401
     0.530518678  0.518064496  0.562862587
     0.261875051  0.679465760  0.466848091
     0.955832762  0.927456145  0.518841157
     0.947593947  0.165054581  0.401708961
     0.404861671  0.438841642  0.590369616
     0.125942829  0.847220232  0.617208291
     0.350217491  0.901773250  0.502175172
     0.058182415  0.400032163  0.571137012
     0.544580869  0.254788436  0.455575258
     0.076345438  0.051447904  0.526176595
     0.967320494  0.930869564  0.389211287
     0.007130071  0.784942468  0.411942209
     0.887276500  0.571585264  0.436001969
     0.271648533  0.230374264  0.605244136
     0.457036263  0.852580260  0.445201985
     0.369582134  0.301291817  0.552120303
     0.469844810  0.195479250  0.526737002
     0.164735858  0.994504471  0.595570224
     0.565685121  0.018159664  0.586818457
     0.631108303  0.687755981  0.609844910
     0.863457963  0.722136926  0.407143685
     0.158711653  0.247568849  0.444449799
     0.503123591  0.155155666  0.611190805
     0.391555505  0.598951564  0.448757737
     0.871059332  0.968540552  0.450187081
     0.202360237  0.884959762  0.468507110
     0.746956185  0.581719966  0.585230637
     0.515861539  0.623111443  0.498314717
     0.160882396  0.027283775  0.449868981
     0.378712002  0.793181283  0.572211891
     0.673891194  0.445007730  0.569743650
     0.844862368  0.367618390  0.436679128
     0.288591567  0.126256754  0.447541608
     0.533844363  0.753645938  0.546029321
     0.750506689  0.188007426  0.513884387
     0.121203797  0.267032878  0.584266002
     0.774352643  0.582618559  0.499832487
     0.278811916  0.532653093  0.573983068
     0.496184342  0.406150271  0.453843125
     0.066401901  0.818679113  0.502133447
     0.240972313  0.822400973  0.389465587
     0.137791095  0.575270111  0.467055564
     0.103378621  0.721129351  0.569677045

  ion indices of the primitive-cell ions
   primitive index   ion index
                 1           1
                 2           2
                 3           3
                 4           4
                 5           5
                 6           6
                 7           7
                 8           8
                 9           9
                10          10
                11          11
                12          12
                13          13
                14          14
                15          15
                16          16
                17          17
                18          18
                19          19
                20          20
                21          21
                22          22
                23          23
                24          24
                25          25
                26          26
                27          27
                28          28
                29          29
                30          30
                31          31
                32          32
                33          33
                34          34
                35          35
                36          36
                37          37
                38          38
                39          39
                40          40
                41          41
                42          42
                43          43
                44          44
                45          45
                46          46
                47          47
                48          48
                49          49
                50          50
                51          51
                52          52
                53          53
                54          54
                55          55
                56          56
                57          57
                58          58
                59          59
                60          60
                61          61
                62          62
                63          63
                64          64
                65          65
                66          66
                67          67
                68          68
                69          69
                70          70
                71          71
                72          72
                73          73
                74          74
                75          75
                76          76
                77          77
                78          78
                79          79
                80          80
                81          81
                82          82
                83          83
                84          84
                85          85
                86          86
                87          87
                88          88
                89          89
                90          90
                91          91
                92          92
                93          93
                94          94
                95          95
                96          96
                97          97
                98          98
                99          99
               100         100
               101         101
               102         102
               103         103

----------------------------------------------------------------------------------------


 -----------------------------------------------------------------------------
|                                                                             |
|           W    W    AA    RRRRR   N    N  II  N    N   GGGG   !!!           |
|           W    W   A  A   R    R  NN   N  II  NN   N  G    G  !!!           |
|           W    W  A    A  R    R  N N  N  II  N N  N  G       !!!           |
|           W WW W  AAAAAA  RRRRR   N  N N  II  N  N N  G  GGG   !            |
|           WW  WW  A    A  R   R   N   NN  II  N   NN  G    G                |
|           W    W  A    A  R    R  N    N  II  N    N   GGGG   !!!           |
|                                                                             |
|     The requested file  could not be found or opened for reading            |
|     k-point information. Automatic k-point generation is used as a          |
|     fallback, which may lead to unwanted results.                           |
|                                                                             |
 -----------------------------------------------------------------------------



Automatic generation of k-mesh.
 Grid dimensions derived from KSPACING:
 generate k-points for:    2    2    2

 Generating k-lattice:

  Cartesian coordinates                     Fractional coordinates (reciprocal lattice)
     0.034271277  0.000000000  0.000000000     0.500000000  0.000000000  0.000000000
     0.000000000  0.034271277  0.000000000     0.000000000  0.500000000  0.000000000
     0.000000000  0.000000000  0.019139585     0.000000000  0.000000000  0.500000000

  Length of vectors
     0.034271277  0.034271277  0.019139585

  Shift w.r.t. Gamma in fractional coordinates (k-lattice)
     0.000000000  0.000000000  0.000000000

 
 Subroutine IBZKPT returns following result:
 ===========================================
 
 Found      8 irreducible k-points:
 
 Following reciprocal coordinates:
            Coordinates               Weight
  0.000000  0.000000  0.000000      1.000000
  0.500000  0.000000  0.000000      1.000000
  0.000000  0.500000  0.000000      1.000000
  0.500000  0.500000  0.000000      1.000000
  0.000000  0.000000  0.500000      1.000000
  0.500000  0.000000  0.500000      1.000000
  0.000000  0.500000  0.500000      1.000000
  0.500000  0.500000  0.500000      1.000000
 
 Following cartesian coordinates:
            Coordinates               Weight
  0.000000  0.000000  0.000000      1.000000
  0.034271  0.000000  0.000000      1.000000
  0.000000  0.034271  0.000000      1.000000
  0.034271  0.034271  0.000000      1.000000
  0.000000  0.000000  0.019140      1.000000
  0.034271  0.000000  0.019140      1.000000
  0.000000  0.034271  0.019140      1.000000
  0.034271  0.034271  0.019140      1.000000
 


--------------------------------------------------------------------------------------------------------




 Dimension of arrays:
   k-points           NKPTS =      8   k-points in BZ     NKDIM =      8   number of bands    NBANDS=    184
   number of dos      NEDOS =   2000   number of ions     NIONS =    103
   non local maximal  LDIM  =      4   non local SUM 2l+1 LMDIM =      8
   total plane-waves  NPLWV = ******
   max r-space proj   IRMAX =      1   max aug-charges    IRDMAX= 407451
   dimension x,y,z NGX =   168 NGY =  168 NGZ =  300
   dimension x,y,z NGXF=   336 NGYF=  336 NGZF=  600
   support grid    NGXF=   672 NGYF=  672 NGZF= 1200
   ions per type =              50  53
   NGX,Y,Z   is equivalent  to a cutoff of  19.14, 19.14, 19.09 a.u.
   NGXF,Y,Z  is equivalent  to a cutoff of  38.29, 38.29, 38.18 a.u.

 SYSTEM =  a-Si SPC                                
 POSCAR =   H Si                                   

 Startparameter for this run:
   NWRITE =      2    write-flag & timer
   PREC   = accura    normal or accurate (medium, high low for compatibility)
   ISTART =      1    job   : 0-new  1-cont  2-samecut
   ICHARG =      1    charge: 1-file 2-atom 10-const
   ISPIN  =      1    spin polarized calculation?
   LNONCOLLINEAR =      F non collinear calculations
   LSORBIT =      F    spin-orbit coupling
   INIWAV =      1    electr: 0-lowe 1-rand  2-diag
   LASPH  =      T    aspherical Exc in radial PAW
 Electronic Relaxation 1
   ENCUT  = 1200.0 eV  88.20 Ry    9.39 a.u.  41.21 41.21 73.79*2*pi/ulx,y,z
   ENINI  = 1200.0     initial cutoff
   ENAUG  =  400.0 eV  augmentation charge cutoff
   NELM   =    150;   NELMIN=  2; NELMDL=  0     # of ELM steps 
   EDIFF  = 0.1E-05   stopping-criterion for ELM
   LREAL  =      F    real-space projection
   NLSPLINE    = F    spline interpolate recip. space projectors
   LCOMPAT=      F    compatible to vasp.4.4
   GGA_COMPAT  = T    GGA compatible to vasp.4.4-vasp.4.6
   LMAXPAW     = -100 max onsite density
   LMAXMIX     =    2 max onsite mixed and CHGCAR
   VOSKOWN=      0    Vosko Wilk Nusair interpolation
   ROPT   =    0.00000   0.00000
 Ionic relaxation
   EDIFFG = -.1E-01   stopping-criterion for IOM
   NSW    =      0    number of steps for IOM
   NBLOCK =      1;   KBLOCK =      1    inner block; outer block 
   IBRION =     -1    ionic relax: 0-MD 1-quasi-New 2-CG
   NFREE  =      0    steps in history (QN), initial steepest desc. (CG)
   ISIF   =      2    stress and relaxation
   IWAVPR =     10    prediction:  0-non 1-charg 2-wave 3-comb
   ISYM   =      1    0-nonsym 1-usesym 2-fastsym
   LCORR  =      T    Harris-Foulkes like correction to forces

   POTIM  = 0.5000    time-step for ionic-motion
   TEIN   =    0.0    initial temperature
   TEBEG  =    0.0;   TEEND  =   0.0 temperature during run
   SMASS  =  -3.00    Nose mass-parameter (am)
   estimated Nose-frequenzy (Omega)   =  0.10E-29 period in steps = 0.13E+47 mass=  -0.486E-26a.u.
   SCALEE = 1.0000    scale energy and forces
   NPACO  =    256;   APACO  = 10.0  distance and # of slots for P.C.
   PSTRESS=    0.0 pullay stress

  Mass of Ions in am
   POMASS =   1.00 28.09
  Ionic Valenz
   ZVAL   =   1.00  4.00
  Atomic Wigner-Seitz radii
   RWIGS  =  -1.00 -1.00
  virtual crystal weights 
   VCA    =   1.00  1.00
   NELECT =     262.0000    total number of electrons
   NUPDOWN=      -1.0000    fix difference up-down

 DOS related values:
   EMIN   =  10.00;   EMAX   =-10.00  energy-range for DOS
   EFERMI =   0.00;   METHOD = LEGACY      
   ISMEAR =     0;   SIGMA  =   0.10  broadening in eV -4-tet -1-fermi 0-gaus
   EFERMI_NEDOS =   21; number of points for ismear=-14 and -15

 Electronic relaxation 2 (details)
   IALGO  =     38    algorithm
   LDIAG  =      F    sub-space diagonalisation (order eigenvalues)
   LSUBROT=      F    optimize rotation matrix (better conditioning)
   TURBO    =      0    0=normal 1=particle mesh
   IRESTART =      0    0=no restart 2=restart with 2 vectors
   NREBOOT  =      0    no. of reboots
   NMIN     =      0    reboot dimension
   EREF     =   0.00    reference energy to select bands
   IMIX   =      4    mixing-type and parameters
     AMIX     =   0.40;   BMIX     =  1.00
     AMIX_MAG =   1.60;   BMIX_MAG =  1.00
     AMIN     =   0.10
     WC   =   100.;   INIMIX=   1;  MIXPRE=   1;  MAXMIX= -45

 Intra band minimization:
   WEIMIN = 0.0000     energy-eigenvalue tresh-hold
   EBREAK =  0.14E-08  absolut break condition
   DEPER  =   0.30     relativ break condition  

   TIME   =   0.40     timestep for ELM

  volume/ion in A,a.u.               =      53.99       364.31
  Fermi-wavevector in a.u.,A,eV,Ry     =   0.591293  1.117382  4.756974  0.349628
  Thomas-Fermi vector in A             =   1.639666

 Write flags
   LWAVE        =      F    write WAVECAR
   LDOWNSAMPLE  =      F    k-point downsampling of WAVECAR
   LCHARG       =      F    write CHGCAR
   LVTOT        =      F    write LOCPOT, total local potential
   LVHAR        =      F    write LOCPOT, Hartree potential only
   WRT_POTENTIAL= false  ! write potential to hdf5 file
   LELF         =      F    write electronic localiz. function (ELF)
   LORBIT       =     11    0 simple, 1 ext, 2 COOP (PROOUT), +10 PAW based schemes


 Python interface
   PLUGINS active      =      F    recompile with -DPLUGINS to activate

 Dipole corrections
   LMONO      =      F    monopole corrections only (constant potential shift)
   LDIPOL     =      F    correct potential (dipole corrections)
   IDIPOL     =      0    1-x, 2-y, 3-z, 4-all directions 
   EPSILON    =  1.0000000 bulk dielectric constant
   LVACPOTAV  =      F  vacuum potentials using an averaging scheme for the charge density
   VACPOTFLAT =  0.1000000 required flatness to determine vacuum potential

Coulomb truncation method
  LTRUNCATE          =      F  Coulomb kernel truncation to be used
  IDIMENSIONALITY    =      3  Dimensionality of cutoff (0 molecules / 2 surfaces)
  ISURFACE           =     -1  Direction of surface normal
  LCOARSEN           =      F  Coarsen the charge grid before padding, preferred


 Exchange correlation treatment:
   METAGGA = SCAN    functional components
   XC_C    = 1    coefficients multiplying the functional components
   LIBXC   =     F    Libxc                    
   VOSKOWN =     0    Vosko Wilk Nusair interpolation
   LHFCALC =     F    Hartree Fock is set to
   LHFONE  =     F    Hartree Fock one center treatment
   AEXX    =    0.0000 exact exchange contribution

 Parameters of functionals:
   SCAN:
     P1 =  0.000000E+00
     P2 =  0.000000E+00
     P3 =  0.000000E+00

 Accuracy and mixing parameters for tau-dependent meta-GGA functionals:
   LMAXTAU = 6
   LMIXTAU = T

 Van der Waals corrections
   IVDW    =     0    specifies the selected vdW correction

 Linear response parameters
   LEPSILON=     F    determine dielectric tensor
   LRPA    =     F    only Hartree local field effects (RPA)
   LNABLA  =     F    use nabla operator in PAW spheres
   LVEL    =     F    velocity operator in full k-point grid
   CSHIFT  =0.1000    complex shift for real part using Kramers Kronig
   OMEGAMAX=  -1.0    maximum frequency
   DEG_THRESHOLD= 0.2000000E-02 threshold for treating states as degnerate
   RTIME   =   -0.100 relaxation time in fs
  (WPLASMAI=    0.000 imaginary part of plasma frequency in eV, 0.658/RTIME)
   DFIELD  = 0.0000000 0.0000000 0.0000000 field for delta impulse in time

  Optional k-point grid parameters
   LKPOINTS_OPT  =     F    use optional k-point grid
   KPOINTS_OPT_MODE=     1    mode for optional k-point grid

 Orbital magnetization related:
   ORBITALMAG=     F  switch on orbital magnetization
   LCHIMAG   =     F  perturbation theory with respect to B field
   DQ        =  0.001000  dq finite difference perturbation B field
   LLRAUG    =     F  two centre corrections for induced B field
   LBONE     =     F  B-component reconstruction in AE one-centre
   LVGVCALC  =     T  calculate vGv susceptibility
   LVGVAPPL  =     F  apply vGv susceptibility instead of pGv for G=0

 Random number generation:
   RANDOM_GENERATOR = DEFAULT
   PCG_SEED         = not used


--------------------------------------------------------------------------------------------------------


 Static calculation
 charge density and potential will be updated during run
 non-spin polarized calculation
 Variant of blocked Davidson
 perform Loewdin sub-space diagonalisation
    ordering is kept fixed
    before iterative eigenvector-optimisation
 modified Broyden-mixing scheme, WC =      100.0
 initial mixing is a Kerker type mixing with AMIX =  0.4000 and BMIX =      1.0000
 Hartree-type preconditioning will be used
 using additional bands           53
 reciprocal scheme for non local part
 use partial core corrections
 calculate Harris-corrections to forces   (improved forces if not selfconsistent)
 use gradient corrections 
 use of overlap-Matrix (Vanderbilt PP)
 Gauss-broadening in eV      SIGMA  =   0.10


--------------------------------------------------------------------------------------------------------


  energy-cutoff  :     1200.00
  volume of cell :     5560.54
      direct lattice vectors                 reciprocal lattice vectors
    14.589476895  0.000000000  0.000000000     0.068542553  0.000000000  0.000000000
     0.000000000 14.589476895  0.000000000     0.000000000  0.068542553  0.000000000
     0.000000000  0.000000000 26.123867800     0.000000000  0.000000000  0.038279171

  length of vectors
    14.589476895 14.589476895 26.123867800     0.068542553  0.068542553  0.038279171



 old parameters found on file WAVECAR:
  energy-cutoff  :     1200.00
  volume of cell :     5560.54
      direct lattice vectors                 reciprocal lattice vectors
    14.589476895  0.000000000  0.000000000     0.068542553  0.000000000  0.000000000
     0.000000000 14.589476895  0.000000000     0.000000000  0.068542553  0.000000000
     0.000000000  0.000000000 26.123867800     0.000000000  0.000000000  0.038279171

  length of vectors


 k-points in units of 2pi/SCALE and weight: read from INCAR                         
   0.00000000  0.00000000  0.00000000       0.125
   0.03427128  0.00000000  0.00000000       0.125
   0.00000000  0.03427128  0.00000000       0.125
   0.03427128  0.03427128  0.00000000       0.125
   0.00000000  0.00000000  0.01913959       0.125
   0.03427128  0.00000000  0.01913959       0.125
   0.00000000  0.03427128  0.01913959       0.125
   0.03427128  0.03427128  0.01913959       0.125

 k-points in reciprocal lattice and weights: read from INCAR                         
   0.00000000  0.00000000  0.00000000       0.125
   0.50000000  0.00000000  0.00000000       0.125
   0.00000000  0.50000000  0.00000000       0.125
   0.50000000  0.50000000  0.00000000       0.125
   0.00000000  0.00000000  0.50000000       0.125
   0.50000000  0.00000000  0.50000000       0.125
   0.00000000  0.50000000  0.50000000       0.125
   0.50000000  0.50000000  0.50000000       0.125

 position of ions in fractional coordinates (direct lattice) 
   0.97487388  0.53961496  0.45983917
   0.45634672  0.74936888  0.43459865
   0.75928699  0.81621158  0.52302430
   0.50486320  0.06076318  0.44573483
   0.74078735  0.13655939  0.46364795
   0.63098698  0.97471624  0.41431931
   0.69008643  0.56790521  0.38279171
   0.65792078  0.18104350  0.54153573
   0.65194935  0.39990879  0.40084094
   0.64903835  0.05272561  0.48172720
   0.64972309  0.26119854  0.45990272
   0.69520656  0.25095622  0.60134157
   0.54079869  0.05611805  0.42404313
   0.03210958  0.39518483  0.44119262
   0.76776570  0.29102346  0.51020729
   0.80382594  0.28253926  0.41627311
   0.99704740  0.38553473  0.52481424
   0.68485115  0.38015277  0.52694026
   0.56352329  0.47262215  0.43026239
   0.91430283  0.34390267  0.47684125
   0.80336671  0.83067406  0.50724333
   0.81832269  0.73161636  0.58203701
   0.98270144  0.25859529  0.41376219
   0.64930772  0.71487827  0.39395632
   0.89592657  0.22472978  0.57494579
   0.70182777  0.53358322  0.47549306
   0.58944540  0.64317179  0.45571038
   0.89209504  0.69221810  0.51386486
   0.88543271  0.41336643  0.56192130
   0.51013892  0.42188353  0.51187090
   0.66046782  0.79688258  0.46318324
   0.93076675  0.72044393  0.50379170
   0.77611419  0.94401603  0.46168461
   0.69839379  0.18791969  0.40249786
   0.82346338  0.13457713  0.54051368
   0.70228015  0.54996900  0.40970295
   0.96614842  0.23871863  0.50326728
   0.47945859  0.98431905  0.56146961
   0.04699031  0.37379202  0.41597649
   0.73599623  0.09255575  0.61658549
   0.71594068  0.66782107  0.49073468
   0.76275524  0.41995885  0.45308558
   0.75328266  0.98012424  0.54465816
   0.85508892  0.06337458  0.45091630
   0.80401101  0.77785517  0.43741868
   0.93211018  0.58807249  0.56132683
   0.91499511  0.14637057  0.45481733
   0.05583058  0.62582162  0.50042773
   0.83351172  0.41538227  0.56658830
   0.95815635  0.55372856  0.54839306
   0.26498825  0.69090894  0.55249429
   0.17542918  0.46706952  0.52329379
   0.58992451  0.85181258  0.49305554
   0.26163789  0.34809541  0.49066998
   0.66071731  0.98712244  0.52383621
   0.89139591  0.94093161  0.59476942
   0.37621568  0.06195603  0.51672241
   0.34995634  0.44759727  0.44277738
   0.06245090  0.20710749  0.51234059
   0.29715733  0.06622520  0.59259440
   0.53051868  0.51806450  0.56286259
   0.26187505  0.67946576  0.46684809
   0.95583276  0.92745615  0.51884116
   0.94759395  0.16505458  0.40170896
   0.40486167  0.43884164  0.59036962
   0.12594283  0.84722023  0.61720829
   0.35021749  0.90177325  0.50217517
   0.05818242  0.40003216  0.57113701
   0.54458087  0.25478844  0.45557526
   0.07634544  0.05144790  0.52617659
   0.96732049  0.93086956  0.38921129
   0.00713007  0.78494247  0.41194221
   0.88727650  0.57158526  0.43600197
   0.27164853  0.23037426  0.60524414
   0.45703626  0.85258026  0.44520198
   0.36958213  0.30129182  0.55212030
   0.46984481  0.19547925  0.52673700
   0.16473586  0.99450447  0.59557022
   0.56568512  0.01815966  0.58681846
   0.63110830  0.68775598  0.60984491
   0.86345796  0.72213693  0.40714368
   0.15871165  0.24756885  0.44444980
   0.50312359  0.15515567  0.61119081
   0.39155551  0.59895156  0.44875774
   0.87105933  0.96854055  0.45018708
   0.20236024  0.88495976  0.46850711
   0.74695618  0.58171997  0.58523064
   0.51586154  0.62311144  0.49831472
   0.16088240  0.02728377  0.44986898
   0.37871200  0.79318128  0.57221189
   0.67389119  0.44500773  0.56974365
   0.84486237  0.36761839  0.43667913
   0.28859157  0.12625675  0.44754161
   0.53384436  0.75364594  0.54602932
   0.75050669  0.18800743  0.51388439
   0.12120380  0.26703288  0.58426600
   0.77435264  0.58261856  0.49983249
   0.27881192  0.53265309  0.57398307
   0.49618434  0.40615027  0.45384313
   0.06640190  0.81867911  0.50213345
   0.24097231  0.82240097  0.38946559
   0.13779110  0.57527011  0.46705556
   0.10337862  0.72112935  0.56967704

 position of ions in cartesian coordinates  (Angst):
  14.22290000  7.87270000 12.01277780
   6.65786000 10.93290000 11.35339780
  11.07760000 11.90810000 13.66341780
   7.36569000  0.88650300 11.64431780
  10.80770000  1.99233000 12.11227780
   9.20577000 14.22060000 10.82362280
  10.06800000  8.28544000 10.00000000
   9.59872000  2.64133000 14.14700780
   9.51160000  5.83446000 10.47151580
   9.46913000  0.76923900 12.58457780
   9.47912000  3.81075000 12.01443780
  10.14270000  3.66132000 15.70936780
   7.88997000  0.81873300 11.07764680
   0.46846200  5.76554000 11.52565780
  11.20130000  4.24588000 13.32858780
  11.72740000  4.12210000 10.87466380
  14.54640000  5.62475000 13.71017780
   9.99162000  5.54623000 13.76571780
   8.22151000  6.89531000 11.24011780
  13.33920000  5.01736000 12.45693780
  11.72070000 12.11910000 13.25115780
  11.93890000 10.67390000 15.20505780
  14.33710000  3.77277000 10.80906880
   9.47306000 10.42970000 10.29166280
  13.07110000  3.27869000 15.01980780
  10.23930000  7.78470000 12.42171780
   8.59970000  9.38354000 11.90491780
  13.01520000 10.09910000 13.42413780
  12.91800000  6.03080000 14.67955780
   7.44266000  6.15506000 13.37204780
   9.63588000 11.62610000 12.10013780
  13.57940000 10.51090000 13.16098780
  11.32310000 13.77270000 12.06098780
  10.18920000  2.74165000 10.51480080
  12.01390000  1.96341000 14.12030780
  10.24590000  8.02376000 10.70302580
  14.09560000  3.48278000 13.14728780
   6.99505000 14.36070000 14.66775780
   0.68556400  5.45343000 10.86691480
  10.73780000  1.35034000 16.10759780
  10.44520000  9.74316000 12.81988780
  11.12820000  6.12698000 11.83634780
  10.99000000 14.29950000 14.22857780
  12.47530000  0.92460200 11.77967780
  11.73010000 11.34850000 11.42706780
  13.59900000  8.57967000 14.66402780
  13.34930000  2.13547000 11.88158780
   0.81453900  9.13041000 13.07310780
  12.16050000  6.06021000 14.80147780
  13.97900000  8.07861000 14.32614780
   3.86604000 10.08000000 14.43328780
   2.55942000  6.81430000 13.67045780
   8.60669000 12.42750000 12.88051780
   3.81716000  5.07853000 12.81819780
   9.63952000 14.40160000 13.68462780
  13.00500000 13.72770000 15.53767780
   5.48879000  0.90390600 13.49878780
   5.10568000  6.53021000 11.56705780
   0.91112600  3.02159000 13.38431780
   4.33537000  0.96619100 15.48085780
   7.73999000  7.55829000 14.70414780
   3.82062000  9.91305000 12.19587780
  13.94510000 13.53110000 13.55413780
  13.82490000  2.40806000 10.49419180
   5.90672000  6.40247000 15.42273780
   1.83744000 12.36050000 16.12386780
   5.10949000 13.15640000 13.11875780
   0.84885100  5.83626000 14.92030780
   7.94515000  3.71723000 11.90138780
   1.11384000  0.75059800 13.74576780
  14.11270000 13.58090000 10.16770420
   0.10402400 11.45190000 10.76152380
  12.94490000  8.33913000 11.39005780
   3.96321000  3.36104000 15.81131780
   6.66792000 12.43870000 11.63039780
   5.39201000  4.39569000 14.42351780
   6.85479000  2.85194000 13.76040780
   2.40341000 14.50930000 15.55859780
   8.25305000  0.26494000 15.32996780
   9.20754000 10.03400000 15.93150780
  12.59740000 10.53560000 10.63616780
   2.31552000  3.61190000 11.61074780
   7.34031000  2.26364000 15.96666780
   5.71259000  8.73839000 11.72328780
  12.70830000 14.13050000 11.76062780
   2.95233000 12.91110000 12.23921780
  10.89770000  8.48699000 15.28848780
   7.52615000  9.09087000 13.01790780
   2.34719000  0.39805600 11.75231780
   5.52521000 11.57210000 14.94838780
   9.83172000  6.49243000 14.88390780
  12.32610000  5.36336000 11.40774780
   4.21040000  1.84202000 11.69151780
   7.78851000 10.99530000 14.26439780
  10.94950000  2.74293000 13.42464780
   1.76830000  3.89587000 15.26328780
  11.29740000  8.50010000 13.05755780
   4.06772000  7.77113000 14.99465780
   7.23907000  5.92552000 11.85613780
   0.96876900 11.94410000 13.11766780
   3.51566000 11.99840000 10.17434750
   2.01030000  8.39289000 12.20129780
   1.50824000 10.52090000 14.88216780



--------------------------------------------------------------------------------------------------------


 k-point     1 :   0.0000 0.0000 0.0000  plane waves:  524811
 k-point     2 :   0.5000 0.0000 0.0000  plane waves:  524890
 k-point     3 :   0.0000 0.5000 0.0000  plane waves:  524890
 k-point     4 :   0.5000 0.5000 0.0000  plane waves:  524940
 k-point     5 :   0.0000 0.0000 0.5000  plane waves:  524804
 k-point     6 :   0.5000 0.0000 0.5000  plane waves:  524864
 k-point     7 :   0.0000 0.5000 0.5000  plane waves:  524864
 k-point     8 :   0.5000 0.5000 0.5000  plane waves:  524928

 maximum and minimum number of plane-waves per node :     32888    32742

 maximum number of plane-waves:    524940
 maximum index in each direction: 
   IXMAX=   41   IYMAX=   41   IZMAX=   73
   IXMIN=  -41   IYMIN=  -41   IZMIN=  -74


 parallel 3D FFT for wavefunctions:
    minimum data exchange during FFTs selected (reduces bandwidth)
 parallel 3D FFT for charge:
    minimum data exchange during FFTs selected (reduces bandwidth)


 total amount of memory used by VASP MPI-rank0   395453. kBytes
=======================================================================

   base                                    :      30000. kBytes
   nonl-proj                               :      87769. kBytes
   fftplans                                :     102068. kBytes
   grid                                    :      78750. kBytes
   one-center                              :         21. kBytes
   wavefun                                 :      96845. kBytes

     INWAV:  cpu time     28.7369: real time     28.7550
 Broyden mixing: mesh for mixing (old mesh)
   NGX = 83   NGY = 83   NGZ =147
  (NGX  =336   NGY  =336   NGZ  =600)
  gives a total of ****** points

 initial charge density was supplied:
 number of electron     261.9999999 magnetization 
 keeping initial charge density in first step


--------------------------------------------------------------------------------------------------------


 Maximum index for augmentation-charges        11184 (set IRDMAX)


--------------------------------------------------------------------------------------------------------


 First call to EWALD:  gamma=   0.100
 Maximum number of real-space cells   3x   3x   2
 Maximum number of reciprocal cells   2x   2x   4

    FEWALD:  cpu time      0.0166: real time      0.0170


--------------------------------------- Ionic step        1  -------------------------------------------




--------------------------------------- Iteration      1(   1)  ---------------------------------------


    POTLOK:  cpu time      1.9864: real time      1.9874
    SETDIJ:  cpu time      1.6147: real time      1.6160
    EDDIAG:  cpu time     54.6291: real time     54.6575
     EDDAV:  cpu time    251.2862: real time    251.4359
       DOS:  cpu time      0.0096: real time      0.0100
    CHARGE:  cpu time     30.6104: real time     30.6374
    MIXING:  cpu time      0.0495: real time      0.0501
    --------------------------------------------
      LOOP:  cpu time    340.1860: real time    340.3944

 eigenvalue-minimisations  :  3024
 total energy-change (2. order) :-0.6692748E+03  (-0.7717841E+00)
 number of electron     261.9999999 magnetization 
 augmentation part      -11.3334913 magnetization 

 Broyden mixing:
  rms(total) = 0.86831E+00    rms(broyden)= 0.25768E+02
  rms(prec ) = 0.91572E+00
  weight for this iteration     100.00
  WARNING: grid for Broyden might be to small

 Free energy of the ion-electron system (eV)
  ---------------------------------------------------
  alpha Z        PSCENC =        26.75556155
  Ewald energy   TEWEN  =     32176.46617356
  -Hartree energ DENC   =    -37265.59336667
  -exchange      EXHF   =         0.00000000
  -V(xc)+E(xc)   XCENC  =      -114.45883173
  PAW double counting   =     20358.65741031   -19830.83070284
  entropy T*S    EENTRO =        -0.20090331
  eigenvalues    EBANDS =     -2107.03049339
  atomic energy  EATOM  =      6086.96040057
  Solvation  Ediel_sol  =         0.00000000
  ---------------------------------------------------
  free energy    TOTEN  =      -669.27475195 eV

  energy without entropy =     -669.07384865  energy(sigma->0) =     -669.17430030


--------------------------------------------------------------------------------------------------------




--------------------------------------- Iteration      1(   2)  ---------------------------------------


    POTLOK:  cpu time      1.9555: real time      1.9799
    SETDIJ:  cpu time      1.6180: real time      1.6186
    EDDIAG:  cpu time     54.4256: real time     54.4556
     EDDAV:  cpu time    247.9014: real time    248.0515
       DOS:  cpu time      0.0028: real time      0.0028
    CHARGE:  cpu time     30.4756: real time     30.5026
    MIXING:  cpu time      0.0394: real time      0.0394
    --------------------------------------------
      LOOP:  cpu time    336.4183: real time    336.6504

 eigenvalue-minimisations  :  2960
 total energy-change (2. order) : 0.4849752E+02  (-0.9126538E+00)
 number of electron     261.9999999 magnetization 
 augmentation part      -11.4110105 magnetization 

 Broyden mixing:
  rms(total) = 0.74604E+00    rms(broyden)= 0.14902E+02
  rms(prec ) = 0.82204E+00
  weight for this iteration     100.00
  WARNING: grid for Broyden might be to small

 eigenvalues of (default mixing * dielectric matrix)
  average eigenvalue GAMMA=   0.6339
  0.6339

 Free energy of the ion-electron system (eV)
  ---------------------------------------------------
  alpha Z        PSCENC =        26.75556155
  Ewald energy   TEWEN  =     32176.46617356
  -Hartree energ DENC   =    -37254.82726157
  -exchange      EXHF   =         0.00000000
  -V(xc)+E(xc)   XCENC  =      -110.48684489
  PAW double counting   =     23974.86726190   -23446.83005162
  entropy T*S    EENTRO =        -0.18525614
  eigenvalues    EBANDS =     -2073.49721270
  atomic energy  EATOM  =      6086.96040057
  Solvation  Ediel_sol  =         0.00000000
  ---------------------------------------------------
  free energy    TOTEN  =      -620.77722935 eV

  energy without entropy =     -620.59197321  energy(sigma->0) =     -620.68460128


--------------------------------------------------------------------------------------------------------




--------------------------------------- Iteration      1(   3)  ---------------------------------------


    POTLOK:  cpu time      1.9436: real time      1.9739
    SETDIJ:  cpu time      1.6143: real time      1.6156
    EDDIAG:  cpu time     54.4738: real time     54.5032
     EDDAV:  cpu time    247.3934: real time    247.5468
       DOS:  cpu time      0.0053: real time      0.0053
    CHARGE:  cpu time     30.4930: real time     30.5223
    MIXING:  cpu time      0.0384: real time      0.0384
    --------------------------------------------
      LOOP:  cpu time    335.9619: real time    336.2054

 eigenvalue-minimisations  :  2944
 total energy-change (2. order) :-0.1215057E+01  (-0.9564266E+00)
 number of electron     261.9999999 magnetization 
 augmentation part      -11.2566969 magnetization 

 Broyden mixing:
  rms(total) = 0.54883E+00    rms(broyden)= 0.14430E+01
  rms(prec ) = 0.58962E+00
  weight for this iteration     100.00
  WARNING: grid for Broyden might be to small

 eigenvalues of (default mixing * dielectric matrix)
  average eigenvalue GAMMA=   0.5057
  0.6369  0.3745

 Free energy of the ion-electron system (eV)
  ---------------------------------------------------
  alpha Z        PSCENC =        26.75556155
  Ewald energy   TEWEN  =     32176.46617356
  -Hartree energ DENC   =    -37260.19032636
  -exchange      EXHF   =         0.00000000
  -V(xc)+E(xc)   XCENC  =      -112.16467990
  PAW double counting   =     25695.61100624   -25167.69841213
  entropy T*S    EENTRO =        -0.16298771
  eigenvalues    EBANDS =     -2067.56902224
  atomic energy  EATOM  =      6086.96040057
  Solvation  Ediel_sol  =         0.00000000
  ---------------------------------------------------
  free energy    TOTEN  =      -621.99228643 eV

  energy without entropy =     -621.82929872  energy(sigma->0) =     -621.91079257


--------------------------------------------------------------------------------------------------------




--------------------------------------- Iteration      1(   4)  ---------------------------------------


    POTLOK:  cpu time      1.9483: real time      1.9743
    SETDIJ:  cpu time      1.6153: real time      1.6161
    EDDIAG:  cpu time     54.5185: real time     54.5511
     EDDAV:  cpu time    257.9353: real time    258.0949
       DOS:  cpu time      0.0032: real time      0.0032
    CHARGE:  cpu time     30.4885: real time     30.5159
    MIXING:  cpu time      0.0387: real time      0.0387
    --------------------------------------------
      LOOP:  cpu time    346.5478: real time    346.7941

 eigenvalue-minimisations  :  3168
 total energy-change (2. order) : 0.4423212E-01  (-0.7882614E-01)
 number of electron     261.9999999 magnetization 
 augmentation part      -11.2574395 magnetization 

 Broyden mixing:
  rms(total) = 0.29142E+00    rms(broyden)= 0.13053E+02
  rms(prec ) = 0.36668E+00
  weight for this iteration     100.00
  WARNING: grid for Broyden might be to small

 eigenvalues of (default mixing * dielectric matrix)
  average eigenvalue GAMMA=   0.6092
  0.7651  0.5898  0.4727

 Free energy of the ion-electron system (eV)
  ---------------------------------------------------
  alpha Z        PSCENC =        26.75556155
  Ewald energy   TEWEN  =     32176.46617356
  -Hartree energ DENC   =    -37261.26659077
  -exchange      EXHF   =         0.00000000
  -V(xc)+E(xc)   XCENC  =      -111.78148882
  PAW double counting   =     29706.25581540   -29178.40648887
  entropy T*S    EENTRO =        -0.20212965
  eigenvalues    EBANDS =     -2066.72930726
  atomic energy  EATOM  =      6086.96040057
  Solvation  Ediel_sol  =         0.00000000
  ---------------------------------------------------
  free energy    TOTEN  =      -621.94805430 eV

  energy without entropy =     -621.74592466  energy(sigma->0) =     -621.84698948


--------------------------------------------------------------------------------------------------------




--------------------------------------- Iteration      1(   5)  ---------------------------------------


    POTLOK:  cpu time      1.9517: real time      1.9766
    SETDIJ:  cpu time      1.6166: real time      1.6179
    EDDIAG:  cpu time     54.5555: real time     54.5885
     EDDAV:  cpu time    271.9115: real time    272.0794
       DOS:  cpu time      0.0046: real time      0.0046
    CHARGE:  cpu time     30.4841: real time     30.5132
    MIXING:  cpu time      0.0387: real time      0.0387
    --------------------------------------------
      LOOP:  cpu time    360.5628: real time    360.8190

 eigenvalue-minimisations  :  3464
 total energy-change (2. order) : 0.1346321E+00  (-0.4164907E-01)
 number of electron     261.9999999 magnetization 
 augmentation part      -11.3007772 magnetization 

 Broyden mixing:
  rms(total) = 0.27353E+00    rms(broyden)= 0.21182E+01
  rms(prec ) = 0.34961E+00
  weight for this iteration     100.00
  WARNING: grid for Broyden might be to small

 eigenvalues of (default mixing * dielectric matrix)
  average eigenvalue GAMMA=   0.6847
  1.4159  0.6323  0.3452  0.3452

 Free energy of the ion-electron system (eV)
  ---------------------------------------------------
  alpha Z        PSCENC =        26.75556155
  Ewald energy   TEWEN  =     32176.46617356
  -Hartree energ DENC   =    -37259.88721266
  -exchange      EXHF   =         0.00000000
  -V(xc)+E(xc)   XCENC  =      -111.63543507
  PAW double counting   =     31319.93268057   -30792.08890851
  entropy T*S    EENTRO =        -0.17947149
  eigenvalues    EBANDS =     -2068.13721072
  atomic energy  EATOM  =      6086.96040057
  Solvation  Ediel_sol  =         0.00000000
  ---------------------------------------------------
  free energy    TOTEN  =      -621.81342221 eV

  energy without entropy =     -621.63395072  energy(sigma->0) =     -621.72368646


--------------------------------------------------------------------------------------------------------




--------------------------------------- Iteration      1(   6)  ---------------------------------------


    POTLOK:  cpu time      1.9452: real time      1.9741
    SETDIJ:  cpu time      1.6104: real time      1.6118
    EDDIAG:  cpu time     54.5968: real time     54.6281
     EDDAV:  cpu time    248.6411: real time    248.7966
       DOS:  cpu time      0.0027: real time      0.0028
    CHARGE:  cpu time     30.4795: real time     30.5098
    MIXING:  cpu time      0.0400: real time      0.0400
    --------------------------------------------
      LOOP:  cpu time    337.3158: real time    337.5632

 eigenvalue-minimisations  :  2968
 total energy-change (2. order) :-0.8672049E-02  (-0.3472491E-01)
 number of electron     261.9999999 magnetization 
 augmentation part      -11.3000470 magnetization 

 Broyden mixing:
  rms(total) = 0.13059E+00    rms(broyden)= 0.11032E+01
  rms(prec ) = 0.15261E+00
  weight for this iteration     100.00
  WARNING: grid for Broyden might be to small

 eigenvalues of (default mixing * dielectric matrix)
  average eigenvalue GAMMA=   0.7510
  2.0087  0.6379  0.4248  0.4248  0.2589

 Free energy of the ion-electron system (eV)
  ---------------------------------------------------
  alpha Z        PSCENC =        26.75556155
  Ewald energy   TEWEN  =     32176.46617356
  -Hartree energ DENC   =    -37260.01671191
  -exchange      EXHF   =         0.00000000
  -V(xc)+E(xc)   XCENC  =      -111.72609879
  PAW double counting   =     31569.55406953   -31041.71768344
  entropy T*S    EENTRO =        -0.19230015
  eigenvalues    EBANDS =     -2067.90550519
  atomic energy  EATOM  =      6086.96040057
  Solvation  Ediel_sol  =         0.00000000
  ---------------------------------------------------
  free energy    TOTEN  =      -621.82209426 eV

  energy without entropy =     -621.62979411  energy(sigma->0) =     -621.72594418


--------------------------------------------------------------------------------------------------------




--------------------------------------- Iteration      1(   7)  ---------------------------------------


    POTLOK:  cpu time      1.9757: real time      2.0053
    SETDIJ:  cpu time      1.6102: real time      1.6109
    EDDIAG:  cpu time     54.5533: real time     54.5818
     EDDAV:  cpu time    250.8678: real time    251.0262
       DOS:  cpu time      0.0028: real time      0.0028
    CHARGE:  cpu time     30.4836: real time     30.5118
    MIXING:  cpu time      0.0397: real time      0.0397
    --------------------------------------------
      LOOP:  cpu time    339.5332: real time    339.7784

 eigenvalue-minimisations  :  3024
 total energy-change (2. order) : 0.3237204E-01  (-0.1002390E-01)
 number of electron     261.9999999 magnetization 
 augmentation part      -11.2975153 magnetization 

 Broyden mixing:
  rms(total) = 0.66225E-01    rms(broyden)= 0.72727E+00
  rms(prec ) = 0.79464E-01
  weight for this iteration     100.00
  WARNING: grid for Broyden might be to small

 eigenvalues of (default mixing * dielectric matrix)
  average eigenvalue GAMMA=   0.7519
  2.1983  0.6433  0.5007  0.5007  0.3342  0.3342

 Free energy of the ion-electron system (eV)
  ---------------------------------------------------
  alpha Z        PSCENC =        26.75556155
  Ewald energy   TEWEN  =     32176.46617356
  -Hartree energ DENC   =    -37259.95435116
  -exchange      EXHF   =         0.00000000
  -V(xc)+E(xc)   XCENC  =      -111.85192265
  PAW double counting   =     31578.39710550   -31050.55711984
  entropy T*S    EENTRO =        -0.20256404
  eigenvalues    EBANDS =     -2067.80300570
  atomic energy  EATOM  =      6086.96040057
  Solvation  Ediel_sol  =         0.00000000
  ---------------------------------------------------
  free energy    TOTEN  =      -621.78972222 eV

  energy without entropy =     -621.58715818  energy(sigma->0) =     -621.68844020


--------------------------------------------------------------------------------------------------------




--------------------------------------- Iteration      1(   8)  ---------------------------------------


    POTLOK:  cpu time      1.9502: real time      1.9802
    SETDIJ:  cpu time      1.6191: real time      1.6198
    EDDIAG:  cpu time     54.4805: real time     54.5129
     EDDAV:  cpu time    250.7622: real time    250.9217
       DOS:  cpu time      0.0121: real time      0.0127
    CHARGE:  cpu time     30.4880: real time     30.5157
    MIXING:  cpu time      0.0560: real time      0.0564
    --------------------------------------------
      LOOP:  cpu time    339.3687: real time    339.6201

 eigenvalue-minimisations  :  3008
 total energy-change (2. order) : 0.4005305E-02  (-0.2415323E-02)
 number of electron     261.9999999 magnetization 
 augmentation part      -11.2975564 magnetization 

 Broyden mixing:
  rms(total) = 0.50806E-01    rms(broyden)= 0.41372E+00
  rms(prec ) = 0.59436E-01
  weight for this iteration     100.00
  WARNING: grid for Broyden might be to small

 eigenvalues of (default mixing * dielectric matrix)
  average eigenvalue GAMMA=   0.7894
  2.5695  0.8033  0.6128  0.4464  0.4464  0.3236  0.3236

 Free energy of the ion-electron system (eV)
  ---------------------------------------------------
  alpha Z        PSCENC =        26.75556155
  Ewald energy   TEWEN  =     32176.46617356
  -Hartree energ DENC   =    -37259.80749661
  -exchange      EXHF   =         0.00000000
  -V(xc)+E(xc)   XCENC  =      -111.85699517
  PAW double counting   =     31525.60614068   -30997.76312826
  entropy T*S    EENTRO =        -0.20090295
  eigenvalues    EBANDS =     -2067.94547027
  atomic energy  EATOM  =      6086.96040057
  Solvation  Ediel_sol  =         0.00000000
  ---------------------------------------------------
  free energy    TOTEN  =      -621.78571691 eV

  energy without entropy =     -621.58481396  energy(sigma->0) =     -621.68526544


--------------------------------------------------------------------------------------------------------




--------------------------------------- Iteration      1(   9)  ---------------------------------------


    POTLOK:  cpu time      1.9558: real time      1.9801
    SETDIJ:  cpu time      1.6190: real time      1.6209
    EDDIAG:  cpu time     54.6123: real time     54.6409
     EDDAV:  cpu time    253.5472: real time    253.7000
       DOS:  cpu time      0.0028: real time      0.0028
    CHARGE:  cpu time     30.4915: real time     30.5188
    MIXING:  cpu time      0.0420: real time      0.0420
    --------------------------------------------
      LOOP:  cpu time    342.2703: real time    342.5051

 eigenvalue-minimisations  :  3072
 total energy-change (2. order) : 0.2470150E-02  (-0.7671174E-03)
 number of electron     261.9999999 magnetization 
 augmentation part      -11.2986364 magnetization 

 Broyden mixing:
  rms(total) = 0.17843E-01    rms(broyden)= 0.99784E-01
  rms(prec ) = 0.21410E-01
  weight for this iteration     100.00
  WARNING: grid for Broyden might be to small

 eigenvalues of (default mixing * dielectric matrix)
  average eigenvalue GAMMA=   0.7748
  2.6102  0.7139  0.7139  0.6411  0.4635  0.3866  0.3866  0.2825

 Free energy of the ion-electron system (eV)
  ---------------------------------------------------
  alpha Z        PSCENC =        26.75556155
  Ewald energy   TEWEN  =     32176.46617356
  -Hartree energ DENC   =    -37259.31698349
  -exchange      EXHF   =         0.00000000
  -V(xc)+E(xc)   XCENC  =      -111.80443667
  PAW double counting   =     31490.46286817   -30962.61379000
  entropy T*S    EENTRO =        -0.19887602
  eigenvalues    EBANDS =     -2068.49416443
  atomic energy  EATOM  =      6086.96040057
  Solvation  Ediel_sol  =         0.00000000
  ---------------------------------------------------
  free energy    TOTEN  =      -621.78324676 eV

  energy without entropy =     -621.58437075  energy(sigma->0) =     -621.68380876


--------------------------------------------------------------------------------------------------------




--------------------------------------- Iteration      1(  10)  ---------------------------------------


    POTLOK:  cpu time      1.9498: real time      1.9781
    SETDIJ:  cpu time      1.6070: real time      1.6078
    EDDIAG:  cpu time     54.6147: real time     54.6441
     EDDAV:  cpu time    256.1018: real time    256.2580
       DOS:  cpu time      0.0027: real time      0.0027
    CHARGE:  cpu time     30.4738: real time     30.5035
    MIXING:  cpu time      0.0422: real time      0.0422
    --------------------------------------------
      LOOP:  cpu time    344.7917: real time    345.0361

 eigenvalue-minimisations  :  3120
 total energy-change (2. order) : 0.1576385E-02  (-0.5021543E-03)
 number of electron     261.9999999 magnetization 
 augmentation part      -11.2976028 magnetization 

 Broyden mixing:
  rms(total) = 0.19679E-01    rms(broyden)= 0.67925E-01
  rms(prec ) = 0.23023E-01
  weight for this iteration     100.00
  WARNING: grid for Broyden might be to small

 eigenvalues of (default mixing * dielectric matrix)
  average eigenvalue GAMMA=   0.7823
  2.6047  0.9651  0.6716  0.6716  0.5506  0.5506  0.2946  0.3660  0.3660

 Free energy of the ion-electron system (eV)
  ---------------------------------------------------
  alpha Z        PSCENC =        26.75556155
  Ewald energy   TEWEN  =     32176.46617356
  -Hartree energ DENC   =    -37259.11410990
  -exchange      EXHF   =         0.00000000
  -V(xc)+E(xc)   XCENC  =      -111.77755241
  PAW double counting   =     31492.18756864   -30964.33676386
  entropy T*S    EENTRO =        -0.19990903
  eigenvalues    EBANDS =     -2068.72303950
  atomic energy  EATOM  =      6086.96040057
  Solvation  Ediel_sol  =         0.00000000
  ---------------------------------------------------
  free energy    TOTEN  =      -621.78167038 eV

  energy without entropy =     -621.58176135  energy(sigma->0) =     -621.68171586


--------------------------------------------------------------------------------------------------------




--------------------------------------- Iteration      1(  11)  ---------------------------------------


    POTLOK:  cpu time      1.9741: real time      1.9756
    SETDIJ:  cpu time      1.6099: real time      1.6105
    EDDIAG:  cpu time     54.5549: real time     54.5853
     EDDAV:  cpu time    253.5148: real time    253.6691
       DOS:  cpu time      0.0064: real time      0.0064
    CHARGE:  cpu time     30.4809: real time     30.5077
    MIXING:  cpu time      0.0425: real time      0.0425
    --------------------------------------------
      LOOP:  cpu time    342.1835: real time    342.3972

 eigenvalue-minimisations  :  3072
 total energy-change (2. order) : 0.4468766E-05  (-0.1798495E-03)
 number of electron     261.9999999 magnetization 
 augmentation part      -11.2970965 magnetization 

 Broyden mixing:
  rms(total) = 0.12473E-01    rms(broyden)= 0.64969E-01
  rms(prec ) = 0.14601E-01
  weight for this iteration     100.00
  WARNING: grid for Broyden might be to small

 eigenvalues of (default mixing * dielectric matrix)
  average eigenvalue GAMMA=   0.7884
  2.6039  1.2082  0.7827  0.6295  0.6295  0.5987  0.4277  0.2922  0.3558  0.3558

 Free energy of the ion-electron system (eV)
  ---------------------------------------------------
  alpha Z        PSCENC =        26.75556155
  Ewald energy   TEWEN  =     32176.46617356
  -Hartree energ DENC   =    -37258.82425397
  -exchange      EXHF   =         0.00000000
  -V(xc)+E(xc)   XCENC  =      -111.74879746
  PAW double counting   =     31498.58957567   -30970.73643681
  entropy T*S    EENTRO =        -0.20015889
  eigenvalues    EBANDS =     -2069.04373012
  atomic energy  EATOM  =      6086.96040057
  Solvation  Ediel_sol  =         0.00000000
  ---------------------------------------------------
  free energy    TOTEN  =      -621.78166591 eV

  energy without entropy =     -621.58150702  energy(sigma->0) =     -621.68158647


--------------------------------------------------------------------------------------------------------




--------------------------------------- Iteration      1(  12)  ---------------------------------------


    POTLOK:  cpu time      1.9957: real time      2.0171
    SETDIJ:  cpu time      1.6183: real time      1.6195
    EDDIAG:  cpu time     54.5688: real time     54.5953
     EDDAV:  cpu time    267.8401: real time    268.0003
       DOS:  cpu time      0.0118: real time      0.0125
    CHARGE:  cpu time     30.4318: real time     30.4752
    MIXING:  cpu time      0.0576: real time      0.0581
    --------------------------------------------
      LOOP:  cpu time    356.5240: real time    356.7779

 eigenvalue-minimisations  :  3376
 total energy-change (2. order) : 0.2419779E-03  (-0.4773011E-04)
 number of electron     261.9999999 magnetization 
 augmentation part      -11.2970121 magnetization 

 Broyden mixing:
  rms(total) = 0.43136E-02    rms(broyden)= 0.35577E-01
  rms(prec ) = 0.51755E-02
  weight for this iteration     100.00
  WARNING: grid for Broyden might be to small

 eigenvalues of (default mixing * dielectric matrix)
  average eigenvalue GAMMA=   0.8466
  2.6029  1.7852  0.8411  0.8411  0.6999  0.5701  0.5701  0.2915  0.3599  0.3599
  0.3914

 Free energy of the ion-electron system (eV)
  ---------------------------------------------------
  alpha Z        PSCENC =        26.75556155
  Ewald energy   TEWEN  =     32176.46617356
  -Hartree energ DENC   =    -37258.58028555
  -exchange      EXHF   =         0.00000000
  -V(xc)+E(xc)   XCENC  =      -111.74131287
  PAW double counting   =     31497.41703121   -30969.56257887
  entropy T*S    EENTRO =        -0.20019053
  eigenvalues    EBANDS =     -2069.29622299
  atomic energy  EATOM  =      6086.96040057
  Solvation  Ediel_sol  =         0.00000000
  ---------------------------------------------------
  free energy    TOTEN  =      -621.78142393 eV

  energy without entropy =     -621.58123340  energy(sigma->0) =     -621.68132866


--------------------------------------------------------------------------------------------------------




--------------------------------------- Iteration      1(  13)  ---------------------------------------


    POTLOK:  cpu time      1.9537: real time      1.9776
    SETDIJ:  cpu time      1.6223: real time      1.6237
    EDDIAG:  cpu time     54.5640: real time     54.5946
     EDDAV:  cpu time    253.6736: real time    253.8327
       DOS:  cpu time      0.0030: real time      0.0030
    CHARGE:  cpu time     30.4534: real time     30.4794
    MIXING:  cpu time      0.0434: real time      0.0439
    --------------------------------------------
      LOOP:  cpu time    342.3134: real time    342.5548

 eigenvalue-minimisations  :  3072
 total energy-change (2. order) : 0.6529898E-04  (-0.4365106E-04)
 number of electron     261.9999999 magnetization 
 augmentation part      -11.2970043 magnetization 

 Broyden mixing:
  rms(total) = 0.27771E-02    rms(broyden)= 0.14846E-01
  rms(prec ) = 0.33377E-02
  weight for this iteration     100.00
  WARNING: grid for Broyden might be to small

 eigenvalues of (default mixing * dielectric matrix)
  average eigenvalue GAMMA=   0.8714
  2.5628  2.1804  0.9599  0.9599  0.6344  0.6344  0.5965  0.5252  0.2920  0.3634
  0.3634  0.3848

 Free energy of the ion-electron system (eV)
  ---------------------------------------------------
  alpha Z        PSCENC =        26.75556155
  Ewald energy   TEWEN  =     32176.46617356
  -Hartree energ DENC   =    -37258.39970465
  -exchange      EXHF   =         0.00000000
  -V(xc)+E(xc)   XCENC  =      -111.74034021
  PAW double counting   =     31494.56909614   -30966.71382629
  entropy T*S    EENTRO =        -0.20010223
  eigenvalues    EBANDS =     -2069.47861706
  atomic energy  EATOM  =      6086.96040057
  Solvation  Ediel_sol  =         0.00000000
  ---------------------------------------------------
  free energy    TOTEN  =      -621.78135863 eV

  energy without entropy =     -621.58125640  energy(sigma->0) =     -621.68130752


--------------------------------------------------------------------------------------------------------




--------------------------------------- Iteration      1(  14)  ---------------------------------------


    POTLOK:  cpu time      1.9416: real time      1.9697
    SETDIJ:  cpu time      1.6401: real time      1.6413
    EDDIAG:  cpu time     54.5924: real time     54.6226
     EDDAV:  cpu time    253.4076: real time    253.5516
       DOS:  cpu time      0.0053: real time      0.0053
    CHARGE:  cpu time     30.4571: real time     30.4873
    MIXING:  cpu time      0.0451: real time      0.0451
    --------------------------------------------
      LOOP:  cpu time    342.0891: real time    342.3228

 eigenvalue-minimisations  :  3072
 total energy-change (2. order) :-0.4821322E-04  (-0.1075553E-04)
 number of electron     261.9999999 magnetization 
 augmentation part      -11.2969841 magnetization 

 Broyden mixing:
  rms(total) = 0.12544E-02    rms(broyden)= 0.90106E-02
  rms(prec ) = 0.15534E-02
  weight for this iteration     100.00
  WARNING: grid for Broyden might be to small

 eigenvalues of (default mixing * dielectric matrix)
  average eigenvalue GAMMA=   0.8989
  2.5648  2.5648  1.0488  1.0488  0.7303  0.7303  0.6282  0.5168  0.2922  0.3645
  0.3645  0.3872  0.4447

 Free energy of the ion-electron system (eV)
  ---------------------------------------------------
  alpha Z        PSCENC =        26.75556155
  Ewald energy   TEWEN  =     32176.46617356
  -Hartree energ DENC   =    -37258.26213980
  -exchange      EXHF   =         0.00000000
  -V(xc)+E(xc)   XCENC  =      -111.74110963
  PAW double counting   =     31493.78149728   -30965.92583786
  entropy T*S    EENTRO =        -0.19998009
  eigenvalues    EBANDS =     -2069.61597241
  atomic energy  EATOM  =      6086.96040057
  Solvation  Ediel_sol  =         0.00000000
  ---------------------------------------------------
  free energy    TOTEN  =      -621.78140685 eV

  energy without entropy =     -621.58142675  energy(sigma->0) =     -621.68141680


--------------------------------------------------------------------------------------------------------




--------------------------------------- Iteration      1(  15)  ---------------------------------------


    POTLOK:  cpu time      1.9680: real time      1.9747
    SETDIJ:  cpu time      1.6114: real time      1.6122
    EDDIAG:  cpu time     54.4510: real time     54.4802
     EDDAV:  cpu time    253.6740: real time    253.8310
       DOS:  cpu time      0.0062: real time      0.0062
    CHARGE:  cpu time     30.4772: real time     30.5041
    MIXING:  cpu time      0.0454: real time      0.0454
[...]
   -.247E+02 0.365E+02 0.233E+03   0.228E+02 -.348E+02 -.232E+03   0.323E+01 -.159E+01 -.831E+00   0.367E-04 -.742E-04 -.744E-04
   -.997E+01 0.276E+02 0.196E+03   0.101E+02 -.269E+02 -.192E+03   -.866E+00 -.201E+01 -.373E+01   -.179E-03 -.153E-03 -.636E-04
   0.117E+02 -.756E+01 -.268E+03   -.980E+01 0.752E+01 0.266E+03   -.260E+01 -.139E+01 0.270E+01   0.751E-04 0.387E-04 0.401E-06
   -.137E+02 -.264E+02 0.213E+03   0.143E+02 0.252E+02 -.210E+03   -.183E+00 0.830E+00 -.337E+01   -.151E-04 -.119E-03 -.128E-04
   -.181E+02 -.825E+01 -.112E+03   0.170E+02 0.689E+01 0.112E+03   0.344E+00 0.228E+01 0.490E+00   0.946E-04 0.208E-04 -.506E-04
   -.358E+02 -.344E-01 -.238E+02   0.352E+02 0.131E+01 0.252E+02   0.137E+01 -.220E+01 -.178E+01   0.345E-04 0.105E-03 -.301E-04
   0.220E+02 -.501E+01 -.240E+03   -.210E+02 0.401E+01 0.238E+03   -.223E+01 0.517E-01 0.200E+01   0.571E-04 0.391E-04 0.639E-04
   -.338E+02 0.219E+02 -.236E+03   0.326E+02 -.197E+02 0.231E+03   0.982E+00 -.129E+01 0.558E+01   -.101E-03 -.104E-04 0.553E-04
   -.139E+02 -.232E+02 -.267E+03   0.126E+02 0.240E+02 0.271E+03   0.974E+00 -.129E+01 -.344E+01   -.346E-04 -.477E-04 0.309E-04
   0.259E+02 0.145E+02 0.258E+03   -.247E+02 -.119E+02 -.254E+03   -.588E+00 -.346E+01 -.516E+01   -.171E-03 -.139E-03 -.428E-04
   -.549E+01 -.147E+02 0.206E+03   0.408E+01 0.156E+02 -.207E+03   0.286E+01 -.144E+01 0.976E+00   0.839E-04 0.675E-04 -.582E-04
   -.304E+02 -.210E+02 -.275E+03   0.295E+02 0.222E+02 0.276E+03   0.105E+01 -.848E+00 -.162E+00   -.293E-04 0.292E-04 -.415E-04
   -.674E+01 -.352E+01 0.196E+03   0.639E+01 0.309E+01 -.193E+03   -.589E+00 -.415E-01 -.290E+01   0.158E-03 -.104E-03 -.635E-04
   0.312E+02 0.394E+00 0.143E+03   -.326E+02 0.408E+01 -.143E+03   0.165E+00 -.497E+01 -.544E+00   -.594E-04 0.356E-04 -.167E-04
   -.830E+01 0.746E+01 0.969E+02   0.764E+01 -.492E+01 -.100E+03   0.489E+00 -.350E+01 0.329E+01   0.105E-03 -.862E-05 -.200E-04
   -.475E+02 -.415E+01 -.235E+03   0.439E+02 0.374E+01 0.232E+03   0.365E+01 0.167E+01 0.364E+01   -.786E-04 -.624E-04 -.291E-04
   -.108E+02 0.375E+01 0.330E+02   0.109E+02 -.184E+01 -.339E+02   0.866E+00 -.135E+01 -.232E+00   0.758E-04 -.149E-03 -.117E-03
   0.754E+01 -.228E+02 0.187E+03   -.407E+01 0.212E+02 -.185E+03   -.381E+01 0.256E+01 -.313E+01   0.101E-03 0.608E-04 -.383E-04
   -.126E+02 -.742E+01 -.213E+03   0.113E+02 0.772E+01 0.213E+03   0.178E+01 0.651E+00 -.424E+00   0.611E-04 -.263E-04 0.306E-04
   -.199E+02 0.431E+02 -.193E+03   0.185E+02 -.402E+02 0.190E+03   0.686E+00 -.287E+01 0.345E+01   -.815E-04 0.311E-04 -.137E-03
   -.866E+01 -.135E+02 0.190E+03   0.481E+01 0.114E+02 -.185E+03   0.372E+01 0.332E+01 -.461E+01   -.397E-03 0.106E-03 -.130E-03
   -.317E+02 -.197E+02 0.200E+03   0.330E+02 0.191E+02 -.200E+03   -.239E+01 0.107E+01 -.393E-01   0.901E-04 0.723E-04 -.118E-04
   -.962E+01 -.111E+02 -.137E+03   0.117E+02 0.106E+02 0.134E+03   -.317E+01 -.626E+00 0.518E+01   0.195E-05 -.823E-04 -.188E-05
   -.124E+02 -.124E+02 -.380E+02   0.110E+02 0.103E+02 0.377E+02   0.617E+00 0.252E+01 0.737E+00   -.184E-03 0.161E-03 -.166E-03
   0.336E+02 0.802E+01 -.236E+03   -.339E+02 -.611E+01 0.230E+03   0.117E+01 -.250E+01 0.605E+01   0.103E-03 0.447E-04 0.485E-04
   -.301E+02 0.561E+01 0.212E+01   0.247E+02 -.479E+01 -.483E+01   0.515E+01 0.291E+00 0.194E+01   -.184E-03 -.144E-03 -.108E-03
   0.693E+01 -.136E+02 -.214E+03   -.755E+01 0.116E+02 0.211E+03   0.201E+01 0.216E+01 0.321E+01   0.890E-04 -.496E-04 0.117E-04
   -.146E+02 0.204E+02 0.172E+03   0.131E+02 -.186E+02 -.171E+03   0.228E+01 -.195E+01 -.166E+01   0.350E-03 0.449E-04 -.230E-03
   0.156E+02 0.214E+02 0.136E+01   -.153E+02 -.214E+02 -.108E+01   0.149E+00 -.339E-02 -.675E+00   0.411E-04 -.335E-04 0.336E-04
   -.181E+02 0.978E+01 0.293E+03   0.195E+02 -.864E+01 -.296E+03   -.138E+01 -.235E+01 0.329E+01   0.772E-04 -.459E-04 -.811E-04
   0.263E+02 0.150E+02 0.150E+03   -.251E+02 -.155E+02 -.149E+03   -.243E+01 0.197E+01 -.107E+01   0.585E-04 -.733E-04 -.420E-04
   0.392E+02 0.447E+02 -.191E+03   -.402E+02 -.456E+02 0.192E+03   0.919E+00 -.375E+00 -.119E+01   0.397E-04 -.389E-04 0.600E-04
 -----------------------------------------------------------------------------------------------
   -.231E+02 0.121E+02 -.126E+02   -.782E-13 0.128E-12 0.142E-12   0.231E+02 -.121E+02 0.126E+02   0.116E-03 -.204E-03 -.229E-02


 POSITION                                       TOTAL-FORCE (eV/Angst)
 -----------------------------------------------------------------------------------
     14.22290      7.87270     12.01278         0.140707      0.364033     -0.331702
      6.65786     10.93290     11.35340        -0.228129      0.232044     -0.220344
     11.07760     11.90810     13.66342         1.300650      0.237732     -0.585673
      7.36569      0.88650     11.64432         0.039226      0.065722     -0.335677
     10.80770      1.99233     12.11228         0.157219      0.713343     -0.375604
      9.20577     14.22060     10.82362        -0.061083      0.000907      0.444655
     10.06800      8.28544     10.00000         0.149483     -0.201391      0.548652
      9.59872      2.64133     14.14701         0.911834     -0.043334     -0.327810
      9.51160      5.83446     10.47152        -0.231466     -0.077751      0.382341
      9.46913      0.76924     12.58458         0.048899      0.093532     -0.345407
      9.47912      3.81075     12.01444        -0.916387      0.077268      0.292369
     10.14270      3.66132     15.70937        -0.221360      0.027540      0.119506
      7.88997      0.81873     11.07765        -0.230210     -0.198444      0.328358
      0.46846      5.76554     11.52566         0.216789      0.037505     -0.484977
     11.20130      4.24588     13.32859         0.295334     -0.838948     -0.144791
     11.72740      4.12210     10.87466         0.196849     -0.301794     -0.797884
     14.54640      5.62475     13.71018        -0.042733     -0.105270      0.501887
      9.99162      5.54623     13.76572         0.298058     -0.030420     -0.146055
      8.22151      6.89531     11.24012        -0.018282     -0.222104     -0.042643
     13.33920      5.01736     12.45694        -0.437131      0.355516     -0.115760
     11.72070     12.11910     13.25116        -1.211834     -0.442727      0.844945
     11.93890     10.67390     15.20506        -0.404511     -0.866818      0.431998
     14.33710      3.77277     10.80907         0.084475      0.449824     -0.278014
      9.47306     10.42970     10.29166         0.460083     -0.021933      0.131001
     13.07110      3.27869     15.01981         0.275904      0.010987     -0.193563
     10.23930      7.78470     12.42172        -0.880393     -1.236856     -0.372511
      8.59970      9.38354     11.90492        -0.396674     -0.346193      0.579511
     13.01520     10.09910     13.42414        -0.101050      0.133801      0.408688
     12.91800      6.03080     14.67956        -0.643007     -0.056104      0.095159
      7.44266      6.15506     13.37205         0.258889      0.230804      0.545674
      9.63588     11.62610     12.10014        -0.492348      0.131270      0.045022
     13.57940     10.51090     13.16099         0.201151      0.164518      0.130311
     11.32310     13.77270     12.06099        -0.399299     -0.920077     -0.388275
     10.18920      2.74165     10.51480        -0.442643     -0.113653      0.301205
     12.01390      1.96341     14.12031         0.155767      0.181733      0.350480
     10.24590      8.02376     10.70303        -0.250940      0.062076     -0.919774
     14.09560      3.48278     13.14729         0.207304     -0.083692      0.356535
      6.99505     14.36070     14.66776        -0.203417     -0.495362      0.046801
      0.68556      5.45343     10.86691        -0.044666      0.350250      0.373606
     10.73780      1.35034     16.10760        -0.294863     -0.069945     -0.063972
     10.44520      9.74316     12.81989         0.749483      0.056536      0.137560
     11.12820      6.12698     11.83635        -0.325699     -0.302625      0.193254
     10.99000     14.29950     14.22858         0.529446     -0.176430      0.002743
     12.47530      0.92460     11.77968        -0.347589      0.967302      0.178195
     11.73010     11.34850     11.42707        -0.620951      0.328466      0.649806
     13.59900      8.57967     14.66403        -0.584640      0.837740      0.785842
     13.34930      2.13547     11.88159         0.360087      0.597223      0.083576
      0.81454      9.13041     13.07311         1.467432     -0.568317     -0.800331
     12.16050      6.06021     14.80148         0.593579     -0.072147     -0.040640
     13.97900      8.07861     14.32615         0.769191     -0.924289     -0.476896
      3.86604     10.08000     14.43329        -0.378274     -0.294544      1.375412
      2.55942      6.81430     13.67046        -0.724179     -1.023717      1.017207
      8.60669     12.42750     12.88052         2.141415      1.815274     -1.973975
      3.81716      5.07853     12.81820        -0.715112     -0.454261     -0.765970
      9.63952     14.40160     13.68463        -0.209182     -1.243810     -0.959616
     13.00500     13.72770     15.53768        -0.237358      0.100690      1.232658
      5.48879      0.90391     13.49879        -0.241846      0.027148     -0.431078
      5.10568      6.53021     11.56706         0.014754      0.399186     -0.465014
      0.91113      3.02159     13.38432        -0.695345     -0.206730      0.005798
      4.33537      0.96619     15.48086         0.731869      2.285385      0.648896
      7.73999      7.55829     14.70415         0.702703     -0.440790      0.376642
      3.82062      9.91305     12.19588        -0.511793      0.735162     -2.024198
     13.94510     13.53110     13.55414         1.401822      0.863411      0.160728
     13.82490      2.40806     10.49419         0.149388     -0.174874     -0.707688
      5.90672      6.40247     15.42274        -0.607474      0.990585      0.428726
      1.83744     12.36050     16.12387         0.045636      1.329962     -0.023470
      5.10949     13.15640     13.11876        -0.256339     -0.100115      0.847810
      0.84885      5.83626     14.92031        -0.343107      1.343826     -0.609869
      7.94515      3.71723     11.90139         1.380214      0.040945     -0.464938
      1.11384      0.75060     13.74577        -0.609900     -0.996162      0.104306
     14.11270     13.58090     10.16770         1.219049      0.118535     -0.842936
      0.10402     11.45190     10.76152         1.348034      0.180792      0.111014
     12.94490      8.33913     11.39006        -0.728151     -1.343352      0.063331
      3.96321      3.36104     15.81132        -0.924713     -1.545919      0.395556
      6.66792     12.43870     11.63040         0.382797     -0.490010     -0.298956
      5.39201      4.39569     14.42352        -0.746644      1.035492     -0.194349
      6.85479      2.85194     13.76041         0.815163     -1.033667     -0.414965
      2.40341     14.50930     15.55860        -1.327780     -0.996140     -0.473263
      8.25305      0.26494     15.32997        -0.322201      0.830761      0.883242
      9.20754     10.03400     15.93151        -0.202343     -0.641569      0.078417
     12.59740     10.53560     10.63617         0.572634     -1.010361     -1.042793
      2.31552      3.61190     11.61075         1.727098     -0.604471      0.143675
      7.34031      2.26364     15.96667         0.290570      0.189254      0.618270
      5.71259      8.73839     11.72329        -1.051061     -0.539027     -0.031482
     12.70830     14.13050     11.76063        -1.231703     -0.691786      0.280255
      2.95233     12.91110     12.23922        -0.130553     -1.135793     -0.026318
     10.89770      8.48699     15.28849         0.042143      1.316993      0.542708
      7.52615      9.09087     13.01791         1.085446      0.508737     -1.172598
      2.34719      0.39806     11.75232        -0.476743      1.108635     -0.171500
      5.52521     11.57210     14.94839         0.559063      0.909524     -0.764537
      9.83172      6.49243     14.88391        -0.698287     -0.112803      0.453447
     12.32610      5.36336     11.40775         0.016167      1.313627      0.398381
      4.21040      1.84202     11.69152        -1.436822      0.427017     -0.134590
      7.78851     10.99530     14.26440        -1.272001     -1.207939      1.884996
     10.94950      2.74293     13.42465        -0.757870      0.545552      0.485858
      1.76830      3.89587     15.26329         0.940805     -0.636830      0.716029
     11.29740      8.50010     13.05756        -0.230902      1.153390     -0.724007
      4.06772      7.77113     14.99466         1.523028      0.274520      0.073278
      7.23907      5.92552     11.85614         0.962431     -0.299076     -0.703191
      0.96877     11.94410     13.11767         0.499227      0.086716     -0.439229
      3.51566     11.99840     10.17435        -0.147965     -1.354123      1.065256
      2.01030      8.39289     12.20130        -1.331098      1.660747      0.214804
      1.50824     10.52090     14.88217         0.158753     -1.005045     -0.247545
 -----------------------------------------------------------------------------------
    total drift:                               -0.003745      0.014938     -0.007233


--------------------------------------------------------------------------------------------------------



  FREE ENERGIE OF THE ION-ELECTRON SYSTEM (eV)
  ---------------------------------------------------
  free  energy   TOTEN  =      -621.78189281 eV

  energy  without entropy=     -621.58186552  energy(sigma->0) =     -621.68187916



--------------------------------------------------------------------------------------------------------


    POTLOK:  cpu time      3.5422: real time      3.5597


--------------------------------------------------------------------------------------------------------


     LOOP+:  cpu time   8721.9871: real time   8728.1777
    4ORBIT:  cpu time      0.0000: real time      0.0000



 total charge

# of ion       s       p       d       tot
------------------------------------------
    1        0.556   0.018   0.000   0.574
    2        0.546   0.016   0.000   0.562
    3        0.581   0.028   0.000   0.609
    4        0.603   0.028   0.000   0.630
    5        0.552   0.017   0.000   0.569
    6        0.390   0.001   0.000   0.392
    7        0.589   0.029   0.000   0.618
    8        0.550   0.016   0.000   0.566
    9        0.384   0.002   0.000   0.386
   10        0.561   0.020   0.000   0.581
   11        0.539   0.017   0.000   0.556
   12        0.373   0.002   0.000   0.375
   13        0.571   0.032   0.000   0.603
   14        0.602   0.032   0.000   0.633
   15        0.558   0.015   0.000   0.573
   16        0.563   0.018   0.000   0.581
   17        0.554   0.017   0.000   0.571
   18        0.564   0.019   0.000   0.583
   19        0.538   0.017   0.000   0.555
   20        0.565   0.017   0.000   0.583
   21        0.585   0.028   0.000   0.613
   22        0.399   0.002   0.000   0.401
   23        0.584   0.018   0.000   0.601
   24        0.379   0.001   0.000   0.380
   25        0.377   0.001   0.000   0.379
   26        0.603   0.021   0.000   0.623
   27        0.517   0.015   0.000   0.531
   28        0.612   0.035   0.000   0.647
   29        0.588   0.032   0.000   0.620
   30        0.552   0.020   0.000   0.572
   31        0.545   0.016   0.000   0.561
   32        0.614   0.035   0.000   0.649
   33        0.581   0.018   0.000   0.599
   34        0.371   0.002   0.000   0.373
   35        0.556   0.017   0.000   0.573
   36        0.595   0.031   0.000   0.626
   37        0.548   0.019   0.000   0.567
   38        0.566   0.019   0.000   0.585
   39        0.598   0.032   0.000   0.630
   40        0.378   0.001   0.000   0.379
   41        0.550   0.015   0.000   0.565
   42        0.563   0.019   0.000   0.582
   43        0.582   0.018   0.000   0.601
   44        0.618   0.026   0.000   0.644
   45        0.581   0.021   0.000   0.602
   46        0.633   0.039   0.000   0.672
   47        0.585   0.020   0.000   0.605
   48        0.506   0.013   0.000   0.519
   49        0.607   0.029   0.000   0.637
   50        0.638   0.039   0.000   0.676
   51        0.763   0.918   0.000   1.682
   52        0.767   1.004   0.000   1.771
   53        0.758   1.004   0.000   1.762
   54        0.779   0.899   0.000   1.678
   55        0.759   1.017   0.000   1.775
   56        0.921   0.628   0.000   1.549
   57        0.774   0.869   0.000   1.643
   58        0.788   0.912   0.000   1.701
   59        0.770   0.957   0.000   1.727
   60        0.789   0.885   0.000   1.674
   61        0.778   0.882   0.000   1.660
   62        0.778   0.898   0.000   1.676
   63        0.772   0.988   0.000   1.760
   64        0.874   0.760   0.000   1.634
   65        0.783   0.892   0.000   1.675
   66        0.843   0.778   0.000   1.621
   67        0.770   0.899   0.000   1.670
   68        0.796   0.921   0.000   1.717
   69        0.784   0.868   0.000   1.652
   70        0.785   0.867   0.000   1.652
   71        0.845   0.799   0.000   1.644
   72        0.802   0.843   0.000   1.645
   73        0.771   0.884   0.000   1.655
   74        0.796   0.861   0.000   1.657
   75        0.801   0.872   0.000   1.673
   76        0.769   0.976   0.000   1.744
   77        0.769   0.941   0.000   1.709
   78        0.783   0.897   0.000   1.681
   79        0.798   0.916   0.000   1.715
   80        0.867   0.711   0.000   1.578
   81        0.771   0.905   0.000   1.676
   82        0.840   0.773   0.000   1.614
   83        0.871   0.731   0.000   1.602
   84        0.796   0.897   0.000   1.693
   85        0.764   1.087   0.000   1.851
   86        0.764   0.967   0.000   1.731
   87        0.792   0.842   0.000   1.635
   88        0.765   0.957   0.000   1.723
   89        0.808   0.860   0.000   1.668
   90        0.810   0.816   0.000   1.626
   91        0.800   0.852   0.000   1.652
   92        0.762   0.922   0.000   1.684
   93        0.834   0.773   0.000   1.607
   94        0.771   0.966   0.000   1.737
   95        0.752   0.962   0.000   1.715
   96        0.793   0.919   0.000   1.712
   97        0.765   1.016   0.000   1.781
   98        0.796   0.868   0.000   1.664
   99        0.767   0.966   0.000   1.733
  100        0.789   0.868   0.000   1.657
  101        0.909   0.626   0.000   1.534
  102        0.810   0.849   0.000   1.659
  103        0.838   0.812   0.000   1.651
--------------------------------------------------
tot         69.349  47.745   0.000 117.093


 total amount of memory used by VASP MPI-rank0   395453. kBytes
=======================================================================

   base                                    :      30000. kBytes
   nonl-proj                               :      87769. kBytes
   fftplans                                :     102068. kBytes
   grid                                    :      78750. kBytes
   one-center                              :         21. kBytes
   wavefun                                 :      96845. kBytes

  
  
 General timing and accounting informations for this job:
 ========================================================
  
                  Total CPU time used (sec):     8875.659
                            User time (sec):     7846.792
                          System time (sec):     1028.867
                         Elapsed time (sec):     8881.851
  
                   Maximum memory used (kb):      660648.
                   Average memory used (kb):          N/A
  
                          Minor page faults:     16352189
                          Major page faults:         1217
                 Voluntary context switches:         3612
