 vasp.6.5.0 16Dec24 (build Jan 20 2025 08:32:48) complex                         
 executed on        HPECrayEX_GCC date 2025.07.22  01:51:04
 running  128 mpi-ranks, with    1 threads/rank, on    1 nodes
 distrk:  each k-point on  128 cores,    1 groups
 distr:  one band on NCORE=  16 cores,    8 groups


--------------------------------------------------------------------------------------------------------


 INCAR:
   SYSTEM = a-Si SPC
   NCORE = 16
   ISTART = 1
   ICHARG = 1
   ISPIN = 1
   ISYM = 1
   EDIFF = 1E-6
   NELM = 150
   EDIFFG = -0.01
   NSW = 0
   ISIF = 2
   IBRION = -1
   PREC = Accurate
   ENCUT = 1200
   KSPACING = 0.23
   KGAMMA = .TRUE.
   METAGGA = SCAN
   LASPH = .TRUE.
   LDIAG = .FALSE.
   LMIXTAU = .TRUE.
   ADDGRID = .TRUE.
   ALGO = Normal
   ISMEAR = 0
   SIGMA = 0.1
   LORBIT = 11
   NEDOS = 2000
   LWAVE = .FALSE.
   LCHARG = .FALSE.

 POTCAR:    PAW_PBE H 15Jun2001                   
 POTCAR:    PAW_PBE Si 05Jan2001                  
 POTCAR:    PAW_PBE H 15Jun2001                   
   SHA256 =  030f79b5d3ab3cf0e668861823c8fb652ff669f3e15e46930bd03bfd63a607b6 H/POTCAR              
   COPYR  = (c) Copyright 15Jun2001 Georg Kresse                                                    
   COPYR  = This file is part of the software VASP. Any use, copying, and all other rights are regul
   COPYR  = If you do not have a valid VASP license, you may not use, copy or distribute this file. 
   VRHFIN =H: ultrasoft test                                                                        
   LEXCH  = PE                                                                                      
   EATOM  =    12.4884 eV,    0.9179 Ry                                                             
                                                                                                    
   TITEL  = PAW_PBE H 15Jun2001                                                                     
   LULTRA =        F    use ultrasoft PP ?                                                          
   IUNSCR =        0    unscreen: 0-lin 1-nonlin 2-no                                               
   RPACOR =    0.000    partial core radius                                                         
   POMASS =    1.000; ZVAL   =    1.000    mass and valenz                                          
   RCORE  =    1.100    outmost cutoff radius                                                       
   RWIGS  =    0.700; RWIGS  =    0.370    wigner-seitz radius (au A)                               
   ENMAX  =  250.000; ENMIN  =  200.000 eV                                                          
   RCLOC  =    0.701    cutoff for local pot                                                        
   LCOR   =        T    correct aug charges                                                         
   LPAW   =        T    paw PP                                                                      
   EAUG   =  400.000                                                                                
   RMAX   =    1.123    core radius for proj-oper                                                   
   RAUG   =    1.200    factor for augmentation sphere                                              
   RDEP   =    1.112    radius for radial grids                                                     
   RDEPT  =    0.926    core radius for aug-charge                                                  
                                                                                                    
   Atomic configuration                                                                             
    2 entries                                                                                       
     n  l   j            E        occ.                                                              
     1  0  0.50        -6.4927   1.0000                                                             
     2  1  0.50        -3.4015   0.0000                                                             
   Description                                                                                      
     l       E           TYP  RCUT    TYP  RCUT                                                     
     0     -6.4927494     23  1.100                                                                 
     0      6.8029130     23  1.100                                                                 
     1     -4.0817478     23  1.100                                                                 
  local pseudopotential read in
  atomic valenz-charges read in
  non local Contribution for L=           0  read in
    real space projection operators read in
  non local Contribution for L=           0  read in
    real space projection operators read in
  non local Contribution for L=           1  read in
    real space projection operators read in
    PAW grid and wavefunctions read in

   number of l-projection  operators is LMAX  =           3
   number of lm-projection operators is LMMAX =           5

 POTCAR:    PAW_PBE Si 05Jan2001                  
   SHA256 =  79d9987ad8750f624c4d6acb2a16d13abf6a777132adc04dc6c8399be72b42bb Si/POTCAR             
   COPYR  = (c) Copyright 05Jan2001 Georg Kresse                                                    
   COPYR  = This file is part of the software VASP. Any use, copying, and all other rights are regul
   COPYR  = If you do not have a valid VASP license, you may not use, copy or distribute this file. 
   VRHFIN =Si: s2p2                                                                                 
   LEXCH  = PE                                                                                      
   EATOM  =   103.0669 eV,    7.5752 Ry                                                             
                                                                                                    
   TITEL  = PAW_PBE Si 05Jan2001                                                                    
   LULTRA =        F    use ultrasoft PP ?                                                          
   IUNSCR =        1    unscreen: 0-lin 1-nonlin 2-no                                               
   RPACOR =    1.500    partial core radius                                                         
   POMASS =   28.085; ZVAL   =    4.000    mass and valenz                                          
   RCORE  =    1.900    outmost cutoff radius                                                       
   RWIGS  =    2.480; RWIGS  =    1.312    wigner-seitz radius (au A)                               
   ENMAX  =  245.345; ENMIN  =  184.009 eV                                                          
   ICORE  =        2    local potential                                                             
   LCOR   =        T    correct aug charges                                                         
   LPAW   =        T    paw PP                                                                      
   EAUG   =  322.069                                                                                
   DEXC   =    0.000                                                                                
   RMAX   =    1.950    core radius for proj-oper                                                   
   RAUG   =    1.300    factor for augmentation sphere                                              
   RDEP   =    1.993    radius for radial grids                                                     
   RDEPT  =    1.837    core radius for aug-charge                                                  
                                                                                                    
   Atomic configuration                                                                             
    6 entries                                                                                       
     n  l   j            E        occ.                                                              
     1  0  0.50     -1785.8828   2.0000                                                             
     2  0  0.50      -139.4969   2.0000                                                             
     2  1  1.50       -95.5546   6.0000                                                             
     3  0  0.50       -10.8127   2.0000                                                             
     3  1  0.50        -4.0811   2.0000                                                             
     3  2  1.50        -4.0817   0.0000                                                             
   Description                                                                                      
     l       E           TYP  RCUT    TYP  RCUT                                                     
     0    -10.8127223     23  1.900                                                                 
     0     -7.6451159     23  1.900                                                                 
     1     -4.0811372     23  1.900                                                                 
     1      2.4879257     23  1.900                                                                 
     2     -4.0817478      7  1.900                                                                 
  local pseudopotential read in
  partial core-charges read in
  partial kinetic energy density read in
  atomic valenz-charges read in
  non local Contribution for L=           0  read in
    real space projection operators read in
  non local Contribution for L=           0  read in
    real space projection operators read in
  non local Contribution for L=           1  read in
    real space projection operators read in
  non local Contribution for L=           1  read in
    real space projection operators read in
    PAW grid and wavefunctions read in

   number of l-projection  operators is LMAX  =           4
   number of lm-projection operators is LMMAX =           8

 -----------------------------------------------------------------------------
|                                                                             |
|               ----> ADVICE to this user running VASP <----                  |
|                                                                             |
|     You have a (more or less) 'large supercell' and for larger cells it     |
|     might be more efficient to use real-space projection operators.         |
|     Therefore, try LREAL= Auto in the INCAR file.                           |
|     Mind: For very accurate calculation, you might also keep the            |
|     reciprocal projection scheme (i.e. LREAL=.FALSE.).                      |
|                                                                             |
 -----------------------------------------------------------------------------

 -----------------------------------------------------------------------------
|                                                                             |
|               ----> ADVICE to this user running VASP <----                  |
|                                                                             |
|     You enforced a specific xc type in the INCAR file but a different       |
|     type was found in the POTCAR file.                                      |
|     I HOPE YOU KNOW WHAT YOU ARE DOING!                                     |
|                                                                             |
 -----------------------------------------------------------------------------

  PAW_PBE H 15Jun2001                   :
 energy of atom  1       EATOM=  -12.4884
 kinetic energy error for atom=    0.0000 (will be added to EATOM!!)
  PAW_PBE Si 05Jan2001                  :
 energy of atom  2       EATOM= -103.0669
 kinetic energy error for atom=    0.0001 (will be added to EATOM!!)


 POSCAR:  H Si
  positions in cartesian coordinates
  No initial velocities read in


 exchange-correlation table for SCAN
   RHO(1)=    0.500       N(1)  =     2000
   RHO(2)=  100.500       N(2)  =     4000



--------------------------------------------------------------------------------------------------------


 ion  position               nearest neighbor table
   1  0.262  0.516  0.629-  39 1.48
   2  0.226  0.767  0.837-  44 1.52
   3  0.992  0.764  0.726-   6 1.48
   4  0.967  0.752  0.256-  65 1.58
   5  0.905  0.540  0.046-  76 1.53
   6  0.919  0.829  0.772-   3 1.48  37 2.35  56 2.36  78 2.46
   7  0.645  0.143  0.041-  42 2.36  43 2.39  61 2.51  34 2.52
   8  0.755  0.785  0.194-  65 2.27  17 2.34  36 2.38  30 2.39
   9  0.118  0.039  0.695-  52 2.34  69 2.38  66 2.52  78 2.58
  10  0.592  0.360  0.481-  38 2.24  77 2.33  16 2.39  11 2.45
  11  0.483  0.235  0.423-  21 2.23  43 2.39  10 2.45  55 2.49
  12  0.370  0.362  0.733-  55 2.26  22 2.37  39 2.38  63 2.40
  13  0.806  0.308  0.262-  71 2.22  61 2.39  38 2.41  72 2.49
  14  0.544  0.819  0.399-  41 2.28  36 2.34  26 2.38  32 2.45  17 3.10
  15  0.696  0.142  0.596-  38 2.31  23 2.49  27 2.57  34 2.59
  16  0.605  0.448  0.258-  72 2.35  20 2.36  10 2.39  54 2.40
  17  0.665  0.918  0.164-  42 2.21   8 2.34  26 2.43  27 2.55  62 3.03  14 3.10
  18  0.849  0.374  0.621-  73 2.33  74 2.36  57 2.40  38 2.49
  19  0.448  0.020  0.195-  43 2.27  25 2.44  26 2.47  64 2.48
  20  0.539  0.594  0.295-  36 2.32  16 2.36  51 2.40  24 2.45
  21  0.397  0.313  0.260-  75 2.21  11 2.23  29 2.31  54 2.33  28 2.89  60 3.06
  22  0.271  0.368  0.941-  12 2.37  60 2.40  29 2.41  50 2.60
  23  0.855  0.111  0.688-  73 2.43  35 2.43  15 2.49  78 2.49
  24  0.431  0.623  0.091-  48 2.33  60 2.41  20 2.45  53 2.50
  25  0.338  0.966  0.381-  68 2.28  19 2.44  52 2.45  31 2.51
  26  0.507  0.863  0.151-  14 2.38  47 2.42  17 2.43  19 2.47  48 2.59
  27  0.661  0.032  0.380-  43 2.31  41 2.32  33 2.49  17 2.55  15 2.57
  28  0.202  0.275  0.280-  29 2.31  70 2.33  75 2.41  81 2.47  21 2.89
  29  0.304  0.235  0.094-  21 2.31  28 2.31  22 2.41  64 2.42
  30  0.736  0.685  0.987-  76 2.30  37 2.33   8 2.39  53 2.50
  31  0.427  0.982  0.619-  49 2.23  41 2.33  40 2.35  25 2.51
  32  0.409  0.753  0.525-  40 2.23  68 2.29  51 2.43  14 2.45
  33  0.822  0.059  0.297-  62 2.42  59 2.48  27 2.49  71 2.51
  34  0.573  0.185  0.794-  63 2.28  49 2.49   7 2.52  15 2.59
  35  0.884  0.156  0.943-  80 2.21  62 2.37  23 2.43  61 2.44
  36  0.651  0.703  0.350-  20 2.32  14 2.34   8 2.38  67 2.46
  37  0.771  0.765  0.769-  30 2.33  58 2.34   6 2.35  67 2.48
  38  0.726  0.284  0.493-  10 2.24  15 2.31  13 2.41  18 2.49  71 3.13
  39  0.343  0.477  0.551-   1 1.48  51 2.35  12 2.38  75 2.46
  40  0.415  0.837  0.733-  32 2.23  31 2.35  47 2.37  44 2.38
  41  0.577  0.944  0.546-  14 2.28  27 2.32  31 2.33  58 2.52
  42  0.684  0.995  0.954-  17 2.21  62 2.31   7 2.36  58 2.38
  43  0.555  0.126  0.262-  19 2.27  27 2.31   7 2.39  11 2.39
  44  0.290  0.838  0.904-   2 1.52  40 2.38  48 2.40  66 2.48
  45  0.076  0.011  0.042-  46 2.35  66 2.37  56 2.46  80 2.50
  46  0.071  0.047  0.297-  45 2.35  81 2.37  52 2.39  59 2.52
  47  0.538  0.810  0.901-  53 2.35  58 2.35  40 2.37  26 2.42
  48  0.359  0.766  0.117-  24 2.33  44 2.40  68 2.47  26 2.59
  49  0.421  0.107  0.763-  31 2.23  55 2.35  64 2.41  34 2.49
  50  0.110  0.300  0.871-  69 2.27  80 2.40  22 2.60
  51  0.455  0.593  0.525-  39 2.35  79 2.40  20 2.40  32 2.43
  52  0.197  0.041  0.468-  70 2.34   9 2.34  46 2.39  25 2.45
  53  0.570  0.653  0.936-  79 2.33  47 2.35  30 2.50  24 2.50
  54  0.496  0.382  0.089-  21 2.33  16 2.40  63 2.50  60 2.78
  55  0.360  0.225  0.614-  12 2.26  49 2.35  70 2.36  11 2.49
  56  0.956  0.893  0.005-  65 2.35   6 2.36  45 2.46  62 2.51
  57  0.764  0.399  0.847-  18 2.40  61 2.44  77 2.47  76 2.64
  58  0.658  0.880  0.770-  37 2.34  47 2.35  42 2.38  41 2.52
  59  0.940  0.951  0.396-  78 2.26  65 2.29  33 2.48  46 2.52
  60  0.336  0.487  0.094-  75 2.33  22 2.40  24 2.41  54 2.78  21 3.06
  61  0.765  0.266  0.014-  13 2.39  35 2.44  57 2.44   7 2.51
  62  0.833  0.013  0.039-  42 2.31  35 2.37  33 2.42  56 2.51  17 3.03
  63  0.522  0.332  0.826-  77 2.24  34 2.28  12 2.40  54 2.50
  64  0.346  0.085  0.999-  49 2.41  29 2.42  66 2.45  19 2.48
  65  0.900  0.837  0.233-   4 1.58   8 2.27  59 2.29  56 2.35
  66  0.217  0.992  0.912-  45 2.37  64 2.45  44 2.48   9 2.52
  67  0.714  0.648  0.588-  79 2.43  36 2.46  37 2.48  74 2.61
  68  0.302  0.814  0.365-  25 2.28  32 2.29  48 2.47
  69  0.094  0.201  0.677-  50 2.27  70 2.31   9 2.38  73 2.51  80 2.98
  70  0.214  0.199  0.508-  69 2.31  28 2.33  52 2.34  55 2.36
  71  0.906  0.206  0.350-  13 2.22  73 2.22  81 2.32  33 2.51  38 3.13
  72  0.765  0.474  0.254-  74 2.29  16 2.35  76 2.39  13 2.49
  73  0.936  0.242  0.585-  71 2.22  18 2.33  23 2.43  69 2.51
  74  0.811  0.510  0.490-  72 2.29  18 2.36  67 2.61
  75  0.288  0.415  0.312-  21 2.21  60 2.33  28 2.41  39 2.46
  76  0.802  0.542  0.018-   5 1.53  30 2.30  72 2.39  57 2.64
  77  0.619  0.428  0.712-  63 2.24  79 2.33  10 2.33  57 2.47
  78  0.955  0.974  0.644-  59 2.26   6 2.46  23 2.49   9 2.58
  79  0.577  0.583  0.703-  53 2.33  77 2.33  51 2.40  67 2.43
  80  0.032  0.175  0.991-  35 2.21  81 2.26  50 2.40  45 2.50  69 2.98
  81  0.049  0.204  0.237-  80 2.26  71 2.32  46 2.37  28 2.47

  LATTYP: Found a simple tetragonal cell.
 ALAT       =    14.5307357155
 C/A-ratio  =     0.6183270617
  
  Lattice vectors:
  
 A1 = (  14.5307357155,   0.0000000000,   0.0000000000)
 A2 = (   0.0000000000,  14.5307357155,   0.0000000000)
 A3 = (   0.0000000000,   0.0000000000,   8.9847471190)


Analysis of symmetry for initial positions (statically):
=====================================================================
 Subroutine PRICEL returns:
 Original cell was already a primitive cell.
 

 Routine SETGRP: Setting up the symmetry group for a 
 simple tetragonal supercell.


 Subroutine GETGRP returns: Found  1 space group operations
 (whereof  1 operations were pure point group operations)
 out of a pool of 16 trial point group operations.


The static configuration has the point symmetry C_1 .


Analysis of symmetry for dynamics (positions and initial velocities):
=====================================================================
 Subroutine PRICEL returns:
 Original cell was already a primitive cell.
 

 Routine SETGRP: Setting up the symmetry group for a 
 simple tetragonal supercell.


 Subroutine GETGRP returns: Found  1 space group operations
 (whereof  1 operations were pure point group operations)
 out of a pool of 16 trial point group operations.


The dynamic configuration has the point symmetry C_1 .


 Subroutine INISYM returns: Found  1 space group operations
 (whereof  1 operations are pure point group operations),
 and found     1 'primitive' translations


----------------------------------------------------------------------------------------

                                     Primitive cell                                     

  volume of cell :    1897.0600

  direct lattice vectors                    reciprocal lattice vectors
    14.530735716  0.000000000  0.000000000     0.068819640  0.000000000  0.000000000
     0.000000000 14.530735716  0.000000000     0.000000000  0.068819640  0.000000000
     0.000000000  0.000000000  8.984747119     0.000000000  0.000000000  0.111299738

  length of vectors
    14.530735716 14.530735716  8.984747119     0.068819640  0.068819640  0.111299738

  position of ions in fractional coordinates (direct lattice)
     0.261988799  0.516163128  0.629085040
     0.226016773  0.766891658  0.836990724
     0.992475555  0.764290275  0.725891326
     0.966551197  0.751517350  0.255920391
     0.905384301  0.539784093  0.045990276
     0.919127583  0.829145904  0.771504185
     0.644932245  0.143175820  0.040526349
     0.754524768  0.785404141  0.194324890
     0.117583860  0.039096644  0.695191519
     0.591592894  0.359872349  0.481354672
     0.483466917  0.235499431  0.422784298
     0.370368033  0.362333340  0.733165877
     0.806111970  0.308298223  0.262274494
     0.543525817  0.819469863  0.399264437
     0.696103776  0.142100857  0.596372934
     0.605480010  0.447699286  0.257734577
     0.664574746  0.918012705  0.164302899
     0.848676918  0.374444220  0.620851085
     0.447543065  0.020049226  0.194625400
     0.539443436  0.594303700  0.294929837
     0.396614467  0.312819673  0.260178719
     0.270551339  0.367913924  0.941249641
     0.854705518  0.110790674  0.687817912
     0.430538420  0.623121236  0.091347145
     0.338324920  0.966262155  0.381171552
     0.506689416  0.863349265  0.150611918
     0.660594906  0.032154669  0.379736898
     0.201568596  0.274625461  0.280467549
     0.303595777  0.235259939  0.093984170
     0.736191216  0.684554464  0.986836901
     0.427423643  0.981856685  0.618553859
     0.409439695  0.753334189  0.524587942
     0.822195120  0.058535784  0.297036741
     0.573156801  0.184555693  0.794109161
     0.883692351  0.156440117  0.943401065
     0.650739934  0.703433068  0.350290326
     0.770511571  0.764675665  0.769289320
     0.725854506  0.284398538  0.493231467
     0.342730753  0.477351604  0.550687730
     0.414933567  0.836860586  0.732589344
     0.576633569  0.943551673  0.545725988
     0.683672884  0.994904889  0.954318456
     0.555066182  0.125552487  0.261583322
     0.290398235  0.838099339  0.903870737
     0.075578417  0.011131233  0.041519699
     0.071240715  0.046754825  0.296864226
     0.537684406  0.809601126  0.901092696
     0.359228886  0.765852481  0.117306585
     0.421355127  0.106755778  0.763117749
     0.110484426  0.300103180  0.870598793
     0.454738158  0.592531594  0.524730406
     0.197057469  0.041312155  0.468282518
     0.570176911  0.652942162  0.935881655
     0.495935659  0.381630367  0.089331507
     0.360437359  0.225242552  0.614283288
     0.955966736  0.893285808  0.005134546
     0.764448560  0.398638453  0.847357182
     0.658441540  0.880134375  0.770439046
     0.940447908  0.951403994  0.396104637
     0.336388335  0.486669783  0.094121291
     0.764593082  0.266232906  0.013952646
     0.833061741  0.012883931  0.038687344
     0.521890987  0.331858627  0.825812892
     0.345906092  0.085164304  0.999347664
     0.900470579  0.836681655  0.233049408
     0.216596741  0.991594664  0.912474207
     0.713990000  0.648480585  0.588295912
     0.302294398  0.813695895  0.364989683
     0.093869301  0.201092364  0.676842644
     0.213973336  0.199227352  0.508289208
     0.905769691  0.206034303  0.349729376
     0.764778895  0.474350379  0.253957064
     0.936064097  0.242011146  0.584789970
     0.810936227  0.510009276  0.490415583
     0.288162973  0.414561941  0.311930872
     0.801514819  0.541564457  0.018019316
     0.619164795  0.428493101  0.711938791
     0.955044553  0.974279643  0.644227369
     0.577499320  0.583066829  0.703256298
     0.032068094  0.174938837  0.990548747
     0.049297091  0.203768760  0.236513056

  ion indices of the primitive-cell ions
   primitive index   ion index
                 1           1
                 2           2
                 3           3
                 4           4
                 5           5
                 6           6
                 7           7
                 8           8
                 9           9
                10          10
                11          11
                12          12
                13          13
                14          14
                15          15
                16          16
                17          17
                18          18
                19          19
                20          20
                21          21
                22          22
                23          23
                24          24
                25          25
                26          26
                27          27
                28          28
                29          29
                30          30
                31          31
                32          32
                33          33
                34          34
                35          35
                36          36
                37          37
                38          38
                39          39
                40          40
                41          41
                42          42
                43          43
                44          44
                45          45
                46          46
                47          47
                48          48
                49          49
                50          50
                51          51
                52          52
                53          53
                54          54
                55          55
                56          56
                57          57
                58          58
                59          59
                60          60
                61          61
                62          62
                63          63
                64          64
                65          65
                66          66
                67          67
                68          68
                69          69
                70          70
                71          71
                72          72
                73          73
                74          74
                75          75
                76          76
                77          77
                78          78
                79          79
                80          80
                81          81

----------------------------------------------------------------------------------------


 -----------------------------------------------------------------------------
|                                                                             |
|           W    W    AA    RRRRR   N    N  II  N    N   GGGG   !!!           |
|           W    W   A  A   R    R  NN   N  II  NN   N  G    G  !!!           |
|           W    W  A    A  R    R  N N  N  II  N N  N  G       !!!           |
|           W WW W  AAAAAA  RRRRR   N  N N  II  N  N N  G  GGG   !            |
|           WW  WW  A    A  R   R   N   NN  II  N   NN  G    G                |
|           W    W  A    A  R    R  N    N  II  N    N   GGGG   !!!           |
|                                                                             |
|     The requested file  could not be found or opened for reading            |
|     k-point information. Automatic k-point generation is used as a          |
|     fallback, which may lead to unwanted results.                           |
|                                                                             |
 -----------------------------------------------------------------------------



Automatic generation of k-mesh.
 Grid dimensions derived from KSPACING:
 generate k-points for:    2    2    4

 Generating k-lattice:

  Cartesian coordinates                     Fractional coordinates (reciprocal lattice)
     0.034409820  0.000000000  0.000000000     0.500000000  0.000000000  0.000000000
     0.000000000  0.034409820  0.000000000     0.000000000  0.500000000  0.000000000
     0.000000000  0.000000000  0.027824934     0.000000000  0.000000000  0.250000000

  Length of vectors
     0.034409820  0.034409820  0.027824934

  Shift w.r.t. Gamma in fractional coordinates (k-lattice)
     0.000000000  0.000000000  0.000000000

 
 Subroutine IBZKPT returns following result:
 ===========================================
 
 Found     12 irreducible k-points:
 
 Following reciprocal coordinates:
            Coordinates               Weight
  0.000000  0.000000  0.000000      1.000000
  0.500000  0.000000  0.000000      1.000000
  0.000000  0.500000  0.000000      1.000000
  0.500000  0.500000  0.000000      1.000000
  0.000000  0.000000  0.250000      2.000000
  0.500000  0.000000  0.250000      2.000000
  0.000000  0.500000  0.250000      2.000000
  0.500000  0.500000  0.250000      2.000000
  0.000000  0.000000  0.500000      1.000000
  0.500000  0.000000  0.500000      1.000000
  0.000000  0.500000  0.500000      1.000000
  0.500000  0.500000  0.500000      1.000000
 
 Following cartesian coordinates:
            Coordinates               Weight
  0.000000  0.000000  0.000000      1.000000
  0.034410  0.000000  0.000000      1.000000
  0.000000  0.034410  0.000000      1.000000
  0.034410  0.034410  0.000000      1.000000
  0.000000  0.000000  0.027825      2.000000
  0.034410  0.000000  0.027825      2.000000
  0.000000  0.034410  0.027825      2.000000
  0.034410  0.034410  0.027825      2.000000
  0.000000  0.000000  0.055650      1.000000
  0.034410  0.000000  0.055650      1.000000
  0.000000  0.034410  0.055650      1.000000
  0.034410  0.034410  0.055650      1.000000
 


--------------------------------------------------------------------------------------------------------




 Dimension of arrays:
   k-points           NKPTS =     12   k-points in BZ     NKDIM =     12   number of bands    NBANDS=    200
   number of dos      NEDOS =   2000   number of ions     NIONS =     81
   non local maximal  LDIM  =      4   non local SUM 2l+1 LMDIM =      8
   total plane-waves  NPLWV = ******
   max r-space proj   IRMAX =      1   max aug-charges    IRDMAX= 429935
   dimension x,y,z NGX =   168 NGY =  168 NGZ =  108
   dimension x,y,z NGXF=   336 NGYF=  336 NGZF=  216
   support grid    NGXF=   672 NGYF=  672 NGZF=  432
   ions per type =               5  76
   NGX,Y,Z   is equivalent  to a cutoff of  19.22, 19.22, 19.98 a.u.
   NGXF,Y,Z  is equivalent  to a cutoff of  38.44, 38.44, 39.97 a.u.

 SYSTEM =  a-Si SPC                                
 POSCAR =   H Si                                   

 Startparameter for this run:
   NWRITE =      2    write-flag & timer
   PREC   = accura    normal or accurate (medium, high low for compatibility)
   ISTART =      1    job   : 0-new  1-cont  2-samecut
   ICHARG =      1    charge: 1-file 2-atom 10-const
   ISPIN  =      1    spin polarized calculation?
   LNONCOLLINEAR =      F non collinear calculations
   LSORBIT =      F    spin-orbit coupling
   INIWAV =      1    electr: 0-lowe 1-rand  2-diag
   LASPH  =      T    aspherical Exc in radial PAW
 Electronic Relaxation 1
   ENCUT  = 1200.0 eV  88.20 Ry    9.39 a.u.  41.04 41.04 25.38*2*pi/ulx,y,z
   ENINI  = 1200.0     initial cutoff
   ENAUG  =  400.0 eV  augmentation charge cutoff
   NELM   =    150;   NELMIN=  2; NELMDL=  0     # of ELM steps 
   EDIFF  = 0.1E-05   stopping-criterion for ELM
   LREAL  =      F    real-space projection
   NLSPLINE    = F    spline interpolate recip. space projectors
   LCOMPAT=      F    compatible to vasp.4.4
   GGA_COMPAT  = T    GGA compatible to vasp.4.4-vasp.4.6
   LMAXPAW     = -100 max onsite density
   LMAXMIX     =    2 max onsite mixed and CHGCAR
   VOSKOWN=      0    Vosko Wilk Nusair interpolation
   ROPT   =    0.00000   0.00000
 Ionic relaxation
   EDIFFG = -.1E-01   stopping-criterion for IOM
   NSW    =      0    number of steps for IOM
   NBLOCK =      1;   KBLOCK =      1    inner block; outer block 
   IBRION =     -1    ionic relax: 0-MD 1-quasi-New 2-CG
   NFREE  =      0    steps in history (QN), initial steepest desc. (CG)
   ISIF   =      2    stress and relaxation
   IWAVPR =     10    prediction:  0-non 1-charg 2-wave 3-comb
   ISYM   =      1    0-nonsym 1-usesym 2-fastsym
   LCORR  =      T    Harris-Foulkes like correction to forces

   POTIM  = 0.5000    time-step for ionic-motion
   TEIN   =    0.0    initial temperature
   TEBEG  =    0.0;   TEEND  =   0.0 temperature during run
   SMASS  =  -3.00    Nose mass-parameter (am)
   estimated Nose-frequenzy (Omega)   =  0.10E-29 period in steps = 0.13E+47 mass=  -0.483E-26a.u.
   SCALEE = 1.0000    scale energy and forces
   NPACO  =    256;   APACO  = 10.0  distance and # of slots for P.C.
   PSTRESS=    0.0 pullay stress

  Mass of Ions in am
   POMASS =   1.00 28.09
  Ionic Valenz
   ZVAL   =   1.00  4.00
  Atomic Wigner-Seitz radii
   RWIGS  =  -1.00 -1.00
  virtual crystal weights 
   VCA    =   1.00  1.00
   NELECT =     309.0000    total number of electrons
   NUPDOWN=      -1.0000    fix difference up-down

 DOS related values:
   EMIN   =  10.00;   EMAX   =-10.00  energy-range for DOS
   EFERMI =   0.00;   METHOD = LEGACY      
   ISMEAR =     0;   SIGMA  =   0.10  broadening in eV -4-tet -1-fermi 0-gaus
   EFERMI_NEDOS =   21; number of points for ismear=-14 and -15

 Electronic relaxation 2 (details)
   IALGO  =     38    algorithm
   LDIAG  =      F    sub-space diagonalisation (order eigenvalues)
   LSUBROT=      F    optimize rotation matrix (better conditioning)
   TURBO    =      0    0=normal 1=particle mesh
   IRESTART =      0    0=no restart 2=restart with 2 vectors
   NREBOOT  =      0    no. of reboots
   NMIN     =      0    reboot dimension
   EREF     =   0.00    reference energy to select bands
   IMIX   =      4    mixing-type and parameters
     AMIX     =   0.40;   BMIX     =  1.00
     AMIX_MAG =   1.60;   BMIX_MAG =  1.00
     AMIN     =   0.10
     WC   =   100.;   INIMIX=   1;  MIXPRE=   1;  MAXMIX= -45

 Intra band minimization:
   WEIMIN = 0.0000     energy-eigenvalue tresh-hold
   EBREAK =  0.13E-08  absolut break condition
   DEPER  =   0.30     relativ break condition  

   TIME   =   0.40     timestep for ELM

  volume/ion in A,a.u.               =      23.42       158.05
  Fermi-wavevector in a.u.,A,eV,Ry     =   0.894061  1.689531 10.875758  0.799346
  Thomas-Fermi vector in A             =   2.016218

 Write flags
   LWAVE        =      F    write WAVECAR
   LDOWNSAMPLE  =      F    k-point downsampling of WAVECAR
   LCHARG       =      F    write CHGCAR
   LVTOT        =      F    write LOCPOT, total local potential
   LVHAR        =      F    write LOCPOT, Hartree potential only
   WRT_POTENTIAL= false  ! write potential to hdf5 file
   LELF         =      F    write electronic localiz. function (ELF)
   LORBIT       =     11    0 simple, 1 ext, 2 COOP (PROOUT), +10 PAW based schemes


 Python interface
   PLUGINS active      =      F    recompile with -DPLUGINS to activate

 Dipole corrections
   LMONO      =      F    monopole corrections only (constant potential shift)
   LDIPOL     =      F    correct potential (dipole corrections)
   IDIPOL     =      0    1-x, 2-y, 3-z, 4-all directions 
   EPSILON    =  1.0000000 bulk dielectric constant
   LVACPOTAV  =      F  vacuum potentials using an averaging scheme for the charge density
   VACPOTFLAT =  0.1000000 required flatness to determine vacuum potential

Coulomb truncation method
  LTRUNCATE          =      F  Coulomb kernel truncation to be used
  IDIMENSIONALITY    =      3  Dimensionality of cutoff (0 molecules / 2 surfaces)
  ISURFACE           =     -1  Direction of surface normal
  LCOARSEN           =      F  Coarsen the charge grid before padding, preferred


 Exchange correlation treatment:
   METAGGA = SCAN    functional components
   XC_C    = 1    coefficients multiplying the functional components
   LIBXC   =     F    Libxc                    
   VOSKOWN =     0    Vosko Wilk Nusair interpolation
   LHFCALC =     F    Hartree Fock is set to
   LHFONE  =     F    Hartree Fock one center treatment
   AEXX    =    0.0000 exact exchange contribution

 Parameters of functionals:
   SCAN:
     P1 =  0.000000E+00
     P2 =  0.000000E+00
     P3 =  0.000000E+00

 Accuracy and mixing parameters for tau-dependent meta-GGA functionals:
   LMAXTAU = 6
   LMIXTAU = T

 Van der Waals corrections
   IVDW    =     0    specifies the selected vdW correction

 Linear response parameters
   LEPSILON=     F    determine dielectric tensor
   LRPA    =     F    only Hartree local field effects (RPA)
   LNABLA  =     F    use nabla operator in PAW spheres
   LVEL    =     F    velocity operator in full k-point grid
   CSHIFT  =0.1000    complex shift for real part using Kramers Kronig
   OMEGAMAX=  -1.0    maximum frequency
   DEG_THRESHOLD= 0.2000000E-02 threshold for treating states as degnerate
   RTIME   =   -0.100 relaxation time in fs
  (WPLASMAI=    0.000 imaginary part of plasma frequency in eV, 0.658/RTIME)
   DFIELD  = 0.0000000 0.0000000 0.0000000 field for delta impulse in time

  Optional k-point grid parameters
   LKPOINTS_OPT  =     F    use optional k-point grid
   KPOINTS_OPT_MODE=     1    mode for optional k-point grid

 Orbital magnetization related:
   ORBITALMAG=     F  switch on orbital magnetization
   LCHIMAG   =     F  perturbation theory with respect to B field
   DQ        =  0.001000  dq finite difference perturbation B field
   LLRAUG    =     F  two centre corrections for induced B field
   LBONE     =     F  B-component reconstruction in AE one-centre
   LVGVCALC  =     T  calculate vGv susceptibility
   LVGVAPPL  =     F  apply vGv susceptibility instead of pGv for G=0

 Random number generation:
   RANDOM_GENERATOR = DEFAULT
   PCG_SEED         = not used


--------------------------------------------------------------------------------------------------------


 Static calculation
 charge density and potential will be updated during run
 non-spin polarized calculation
 Variant of blocked Davidson
 perform Loewdin sub-space diagonalisation
    ordering is kept fixed
    before iterative eigenvector-optimisation
 modified Broyden-mixing scheme, WC =      100.0
 initial mixing is a Kerker type mixing with AMIX =  0.4000 and BMIX =      1.0000
 Hartree-type preconditioning will be used
 using additional bands           45
 reciprocal scheme for non local part
 use partial core corrections
 calculate Harris-corrections to forces   (improved forces if not selfconsistent)
 use gradient corrections 
 use of overlap-Matrix (Vanderbilt PP)
 Gauss-broadening in eV      SIGMA  =   0.10


--------------------------------------------------------------------------------------------------------


  energy-cutoff  :     1200.00
  volume of cell :     1897.06
      direct lattice vectors                 reciprocal lattice vectors
    14.530735716  0.000000000  0.000000000     0.068819640  0.000000000  0.000000000
     0.000000000 14.530735716  0.000000000     0.000000000  0.068819640  0.000000000
     0.000000000  0.000000000  8.984747119     0.000000000  0.000000000  0.111299738

  length of vectors
    14.530735716 14.530735716  8.984747119     0.068819640  0.068819640  0.111299738



 old parameters found on file WAVECAR:
  energy-cutoff  :     1200.00
  volume of cell :     1897.06
      direct lattice vectors                 reciprocal lattice vectors
    14.530735716  0.000000000  0.000000000     0.068819640  0.000000000  0.000000000
     0.000000000 14.530735716  0.000000000     0.000000000  0.068819640  0.000000000
     0.000000000  0.000000000  8.984747119     0.000000000  0.000000000  0.111299738

  length of vectors


 k-points in units of 2pi/SCALE and weight: read from INCAR                         
   0.00000000  0.00000000  0.00000000       0.062
   0.03440982  0.00000000  0.00000000       0.062
   0.00000000  0.03440982  0.00000000       0.062
   0.03440982  0.03440982  0.00000000       0.062
   0.00000000  0.00000000  0.02782493       0.125
   0.03440982  0.00000000  0.02782493       0.125
   0.00000000  0.03440982  0.02782493       0.125
   0.03440982  0.03440982  0.02782493       0.125
   0.00000000  0.00000000  0.05564987       0.062
   0.03440982  0.00000000  0.05564987       0.062
   0.00000000  0.03440982  0.05564987       0.062
   0.03440982  0.03440982  0.05564987       0.062

 k-points in reciprocal lattice and weights: read from INCAR                         
   0.00000000  0.00000000  0.00000000       0.062
   0.50000000  0.00000000  0.00000000       0.062
   0.00000000  0.50000000  0.00000000       0.062
   0.50000000  0.50000000  0.00000000       0.062
   0.00000000  0.00000000  0.25000000       0.125
   0.50000000  0.00000000  0.25000000       0.125
   0.00000000  0.50000000  0.25000000       0.125
   0.50000000  0.50000000  0.25000000       0.125
   0.00000000  0.00000000  0.50000000       0.062
   0.50000000  0.00000000  0.50000000       0.062
   0.00000000  0.50000000  0.50000000       0.062
   0.50000000  0.50000000  0.50000000       0.062

 position of ions in fractional coordinates (direct lattice) 
   0.26198880  0.51616313  0.62908504
   0.22601677  0.76689166  0.83699072
   0.99247556  0.76429028  0.72589133
   0.96655120  0.75151735  0.25592039
   0.90538430  0.53978409  0.04599028
   0.91912758  0.82914590  0.77150418
   0.64493224  0.14317582  0.04052635
   0.75452477  0.78540414  0.19432489
   0.11758386  0.03909664  0.69519152
   0.59159289  0.35987235  0.48135467
   0.48346692  0.23549943  0.42278430
   0.37036803  0.36233334  0.73316588
   0.80611197  0.30829822  0.26227449
   0.54352582  0.81946986  0.39926444
   0.69610378  0.14210086  0.59637293
   0.60548001  0.44769929  0.25773458
   0.66457475  0.91801271  0.16430290
   0.84867692  0.37444422  0.62085109
   0.44754307  0.02004923  0.19462540
   0.53944344  0.59430370  0.29492984
   0.39661447  0.31281967  0.26017872
   0.27055134  0.36791392  0.94124964
   0.85470552  0.11079067  0.68781791
   0.43053842  0.62312124  0.09134715
   0.33832492  0.96626215  0.38117155
   0.50668942  0.86334927  0.15061192
   0.66059491  0.03215467  0.37973690
   0.20156860  0.27462546  0.28046755
   0.30359578  0.23525994  0.09398417
   0.73619122  0.68455446  0.98683690
   0.42742364  0.98185668  0.61855386
   0.40943970  0.75333419  0.52458794
   0.82219512  0.05853578  0.29703674
   0.57315680  0.18455569  0.79410916
   0.88369235  0.15644012  0.94340106
   0.65073993  0.70343307  0.35029033
   0.77051157  0.76467567  0.76928932
   0.72585451  0.28439854  0.49323147
   0.34273075  0.47735160  0.55068773
   0.41493357  0.83686059  0.73258934
   0.57663357  0.94355167  0.54572599
   0.68367288  0.99490489  0.95431846
   0.55506618  0.12555249  0.26158332
   0.29039823  0.83809934  0.90387074
   0.07557842  0.01113123  0.04151970
   0.07124071  0.04675482  0.29686423
   0.53768441  0.80960113  0.90109270
   0.35922889  0.76585248  0.11730658
   0.42135513  0.10675578  0.76311775
   0.11048443  0.30010318  0.87059879
   0.45473816  0.59253159  0.52473041
   0.19705747  0.04131215  0.46828252
   0.57017691  0.65294216  0.93588165
   0.49593566  0.38163037  0.08933151
   0.36043736  0.22524255  0.61428329
   0.95596674  0.89328581  0.00513455
   0.76444856  0.39863845  0.84735718
   0.65844154  0.88013438  0.77043905
   0.94044791  0.95140399  0.39610464
   0.33638834  0.48666978  0.09412129
   0.76459308  0.26623291  0.01395265
   0.83306174  0.01288393  0.03868734
   0.52189099  0.33185863  0.82581289
   0.34590609  0.08516430  0.99934766
   0.90047058  0.83668165  0.23304941
   0.21659674  0.99159466  0.91247421
   0.71399000  0.64848059  0.58829591
   0.30229440  0.81369589  0.36498968
   0.09386930  0.20109236  0.67684264
   0.21397334  0.19922735  0.50828921
   0.90576969  0.20603430  0.34972938
   0.76477889  0.47435038  0.25395706
   0.93606410  0.24201115  0.58478997
   0.81093623  0.51000928  0.49041558
   0.28816297  0.41456194  0.31193087
   0.80151482  0.54156446  0.01801932
   0.61916479  0.42849310  0.71193879
   0.95504455  0.97427964  0.64422737
   0.57749932  0.58306683  0.70325630
   0.03206809  0.17493884  0.99054875
   0.04929709  0.20376876  0.23651306

 position of ions in cartesian coordinates  (Angst):
   3.80689000  7.50023000  5.65217000
   3.28419000 11.14350000  7.52015000
  14.42140000 11.10570000  6.52195000
  14.04470000 10.92010000  2.29938000
  13.15590000  7.84346000  0.41321100
  13.35560000 12.04810000  6.93177000
   9.37134000  2.08045000  0.36411900
  10.96380000 11.41250000  1.74596000
   1.70858000  0.56810300  6.24612000
   8.59628000  5.22921000  4.32485000
   7.02513000  3.42198000  3.79861000
   5.38172000  5.26497000  6.58731000
  11.71340000  4.47980000  2.35647000
   7.89783000 11.90750000  3.58729000
  10.11490000  2.06483000  5.35826000
   8.79807000  6.50540000  2.31568000
   9.65676000 13.33940000  1.47622000
  12.33190000  5.44095000  5.57819000
   6.50313000  0.29133000  1.74866000
   7.83851000  8.63567000  2.64987000
   5.76310000  4.54550000  2.33764000
   3.93131000  5.34606000  8.45689000
  12.41950000  1.60987000  6.17987000
   6.25604000  9.05441000  0.82073100
   4.91611000 14.04050000  3.42473000
   7.36257000 12.54510000  1.35321000
   9.59893000  0.46723100  3.41184000
   2.92894000  3.99051000  2.51993000
   4.41147000  3.41850000  0.84442400
  10.69740000  9.94708000  8.86648000
   6.21078000 14.26710000  5.55755000
   5.94946000 10.94650000  4.71329000
  11.94710000  0.85056800  2.66880000
   8.32839000  2.68173000  7.13487000
  12.84070000  2.27319000  8.47622000
   9.45573000 10.22140000  3.14727000
  11.19610000 11.11130000  6.91187000
  10.54720000  4.13252000  4.43156000
   4.98013000  6.93627000  4.94779000
   6.02929000 12.16020000  6.58213000
   8.37891000 13.71050000  4.90321000
   9.93427000 14.45670000  8.57431000
   8.06552000  1.82437000  2.35026000
   4.21970000 12.17820000  8.12105000
   1.09821000  0.16174500  0.37304400
   1.03518000  0.67938200  2.66725000
   7.81295000 11.76410000  8.09609000
   5.21986000 11.12840000  1.05397000
   6.12260000  1.55124000  6.85642000
   1.60542000  4.36072000  7.82211000
   6.60768000  8.60992000  4.71457000
   2.86339000  0.60029600  4.20740000
   8.28509000  9.48773000  8.40866000
   7.20631000  5.54537000  0.80262100
   5.23742000  3.27294000  5.51918000
  13.89090000 12.98010000  0.04613260
  11.10800000  5.79251000  7.61329000
   9.56764000 12.78900000  6.92220000
  13.66540000 13.82460000  3.55890000
   4.88797000  7.07167000  0.84565600
  11.11010000  3.86856000  0.12536100
  12.10500000  0.18721300  0.34759600
   7.58346000  4.82215000  7.41972000
   5.02627000  1.23750000  8.97888605
  13.08450000 12.15760000  2.09389000
   3.14731000 14.40860000  8.19835000
  10.37480000  9.42290000  5.28569000
   4.39256000 11.82360000  3.27934000
   1.36399000  2.92202000  6.08126000
   3.10919000  2.89492000  4.56685000
  13.16150000  2.99383000  3.14223000
  11.11280000  6.89266000  2.28174000
  13.60170000  3.51660000  5.25419000
  11.78350000  7.41081000  4.40626000
   4.18722000  6.02389000  2.80262000
  11.64660000  7.86933000  0.16189900
   8.99692000  6.22632000  6.39659000
  13.87750000 14.15700000  5.78822000
   8.39149000  8.47239000  6.31858000
   0.46597300  2.54199000  8.89983000
   0.71632300  2.96091000  2.12501000



--------------------------------------------------------------------------------------------------------


 k-point     1 :   0.0000 0.0000 0.0000  plane waves:  179059
 k-point     2 :   0.5000 0.0000 0.0000  plane waves:  179058
 k-point     3 :   0.0000 0.5000 0.0000  plane waves:  179058
 k-point     4 :   0.5000 0.5000 0.0000  plane waves:  179108
 k-point     5 :   0.0000 0.0000 0.2500  plane waves:  179007
 k-point     6 :   0.5000 0.0000 0.2500  plane waves:  179078
 k-point     7 :   0.0000 0.5000 0.2500  plane waves:  179078
 k-point     8 :   0.5000 0.5000 0.2500  plane waves:  179076
 k-point     9 :   0.0000 0.0000 0.5000  plane waves:  179010
 k-point    10 :   0.5000 0.0000 0.5000  plane waves:  179132
 k-point    11 :   0.0000 0.5000 0.5000  plane waves:  179132
 k-point    12 :   0.5000 0.5000 0.5000  plane waves:  179024

 maximum and minimum number of plane-waves per node :     11261    11072

 maximum number of plane-waves:    179132
 maximum index in each direction: 
   IXMAX=   41   IYMAX=   41   IZMAX=   25
   IXMIN=  -41   IYMIN=  -41   IZMIN=  -25


 parallel 3D FFT for wavefunctions:
    minimum data exchange during FFTs selected (reduces bandwidth)
 parallel 3D FFT for charge:
    minimum data exchange during FFTs selected (reduces bandwidth)


 total amount of memory used by VASP MPI-rank0   181141. kBytes
=======================================================================

   base                                    :      30000. kBytes
   nonl-proj                               :      31763. kBytes
   fftplans                                :      36863. kBytes
   grid                                    :      28430. kBytes
   one-center                              :         18. kBytes
   wavefun                                 :      54067. kBytes

     INWAV:  cpu time      9.6391: real time      9.6425
 Broyden mixing: mesh for mixing (old mesh)
   NGX = 83   NGY = 83   NGZ = 51
  (NGX  =336   NGY  =336   NGZ  =216)
  gives a total of 351339 points

 initial charge density was supplied:
 number of electron     308.9999999 magnetization 
 keeping initial charge density in first step


--------------------------------------------------------------------------------------------------------


 Maximum index for augmentation-charges        10797 (set IRDMAX)


--------------------------------------------------------------------------------------------------------


 First call to EWALD:  gamma=   0.143
 Maximum number of real-space cells   2x   2x   4
 Maximum number of reciprocal cells   3x   3x   2

    FEWALD:  cpu time      0.0138: real time      0.0144


--------------------------------------- Ionic step        1  -------------------------------------------




--------------------------------------- Iteration      1(   1)  ---------------------------------------


    POTLOK:  cpu time      0.6540: real time      0.6550
    SETDIJ:  cpu time      1.1816: real time      1.1820
    EDDIAG:  cpu time     21.5276: real time     21.5438
     EDDAV:  cpu time     98.1515: real time     98.2355
       DOS:  cpu time      0.0124: real time      0.0125
    CHARGE:  cpu time      8.8081: real time      8.8147
    MIXING:  cpu time      0.0224: real time      0.0227
    --------------------------------------------
      LOOP:  cpu time    130.3576: real time    130.4663

 eigenvalue-minimisations  :  4808
 total energy-change (2. order) :-0.8021299E+03  (-0.8573468E+00)
 number of electron     308.9999999 magnetization 
 augmentation part      -16.9097402 magnetization 

 Broyden mixing:
  rms(total) = 0.11041E+01    rms(broyden)= 0.50741E+02
  rms(prec ) = 0.12192E+01
  weight for this iteration     100.00
  WARNING: grid for Broyden might be to small

 Free energy of the ion-electron system (eV)
  ---------------------------------------------------
  alpha Z        PSCENC =       106.16433859
  Ewald energy   TEWEN  =     -4795.25873966
  -Hartree energ DENC   =     -3918.72657630
  -exchange      EXHF   =         0.00000000
  -V(xc)+E(xc)   XCENC  =      -355.33304081
  PAW double counting   =     28698.30263868   -27940.60485401
  entropy T*S    EENTRO =        -0.08919216
  eigenvalues    EBANDS =      -492.10581641
  atomic energy  EATOM  =      7895.52132944
  Solvation  Ediel_sol  =         0.00000000
  ---------------------------------------------------
  free energy    TOTEN  =      -802.12991265 eV

  energy without entropy =     -802.04072049  energy(sigma->0) =     -802.08531657


--------------------------------------------------------------------------------------------------------




--------------------------------------- Iteration      1(   2)  ---------------------------------------


    POTLOK:  cpu time      0.6430: real time      0.6618
    SETDIJ:  cpu time      1.1719: real time      1.1731
    EDDIAG:  cpu time     21.5932: real time     21.6136
     EDDAV:  cpu time     97.6347: real time     97.7247
       DOS:  cpu time      0.0070: real time      0.0069
    CHARGE:  cpu time      8.6979: real time      8.7050
    MIXING:  cpu time      0.0156: real time      0.0158
    --------------------------------------------
      LOOP:  cpu time    129.7633: real time    129.9009

 eigenvalue-minimisations  :  4800
 total energy-change (2. order) : 0.5477534E+02  (-0.8156714E+00)
 number of electron     308.9999999 magnetization 
 augmentation part      -16.8386824 magnetization 

 Broyden mixing:
  rms(total) = 0.73776E+00    rms(broyden)= 0.29235E+02
  rms(prec ) = 0.79670E+00
  weight for this iteration     100.00
  WARNING: grid for Broyden might be to small

 eigenvalues of (default mixing * dielectric matrix)
  average eigenvalue GAMMA=   0.6345
  0.6345

 Free energy of the ion-electron system (eV)
  ---------------------------------------------------
  alpha Z        PSCENC =       106.16433859
  Ewald energy   TEWEN  =     -4795.25873966
  -Hartree energ DENC   =     -3910.87438281
  -exchange      EXHF   =         0.00000000
  -V(xc)+E(xc)   XCENC  =      -347.33048159
  PAW double counting   =     34436.61185900   -33678.71789327
  entropy T*S    EENTRO =        -0.08610938
  eigenvalues    EBANDS =      -453.38448844
  atomic energy  EATOM  =      7895.52132944
  Solvation  Ediel_sol  =         0.00000000
  ---------------------------------------------------
  free energy    TOTEN  =      -747.35456812 eV

  energy without entropy =     -747.26845874  energy(sigma->0) =     -747.31151343


--------------------------------------------------------------------------------------------------------




--------------------------------------- Iteration      1(   3)  ---------------------------------------


    POTLOK:  cpu time      0.6429: real time      0.6655
    SETDIJ:  cpu time      1.1765: real time      1.1771
    EDDIAG:  cpu time     21.7193: real time     21.7375
     EDDAV:  cpu time     97.7080: real time     97.7889
       DOS:  cpu time      0.0050: real time      0.0050
    CHARGE:  cpu time      8.7439: real time      8.7507
    MIXING:  cpu time      0.0129: real time      0.0129
    --------------------------------------------
      LOOP:  cpu time    130.0086: real time    130.1376

 eigenvalue-minimisations  :  4800
 total energy-change (2. order) :-0.2686385E+01  (-0.6489647E+00)
 number of electron     308.9999999 magnetization 
 augmentation part      -16.7843238 magnetization 

 Broyden mixing:
  rms(total) = 0.45551E+00    rms(broyden)= 0.18338E+02
  rms(prec ) = 0.49508E+00
  weight for this iteration     100.00
  WARNING: grid for Broyden might be to small

 eigenvalues of (default mixing * dielectric matrix)
  average eigenvalue GAMMA=   0.6921
  0.7614  0.6227

 Free energy of the ion-electron system (eV)
  ---------------------------------------------------
  alpha Z        PSCENC =       106.16433859
  Ewald energy   TEWEN  =     -4795.25873966
  -Hartree energ DENC   =     -3913.99899581
  -exchange      EXHF   =         0.00000000
  -V(xc)+E(xc)   XCENC  =      -351.50657315
  PAW double counting   =     38775.46680687   -38017.64485813
  entropy T*S    EENTRO =        -0.09093728
  eigenvalues    EBANDS =      -448.69332374
  atomic energy  EATOM  =      7895.52132944
  Solvation  Ediel_sol  =         0.00000000
  ---------------------------------------------------
  free energy    TOTEN  =      -750.04095287 eV

  energy without entropy =     -749.95001559  energy(sigma->0) =     -749.99548423


--------------------------------------------------------------------------------------------------------




--------------------------------------- Iteration      1(   4)  ---------------------------------------


    POTLOK:  cpu time      0.6385: real time      0.6634
    SETDIJ:  cpu time      1.1734: real time      1.1747
    EDDIAG:  cpu time     21.6773: real time     21.6956
     EDDAV:  cpu time    100.7471: real time    100.8415
       DOS:  cpu time      0.0084: real time      0.0084
    CHARGE:  cpu time      8.7710: real time      8.7793
    MIXING:  cpu time      0.0131: real time      0.0131
    --------------------------------------------
      LOOP:  cpu time    133.0289: real time    133.1760

 eigenvalue-minimisations  :  5040
 total energy-change (2. order) :-0.3493831E+00  (-0.7046394E-01)
 number of electron     308.9999999 magnetization 
 augmentation part      -16.7736362 magnetization 

 Broyden mixing:
  rms(total) = 0.45048E-01    rms(broyden)= 0.18195E+01
  rms(prec ) = 0.79317E-01
  weight for this iteration     100.00
  WARNING: grid for Broyden might be to small

 eigenvalues of (default mixing * dielectric matrix)
  average eigenvalue GAMMA=   0.9393
  1.5102  0.6867  0.6210

 Free energy of the ion-electron system (eV)
  ---------------------------------------------------
  alpha Z        PSCENC =       106.16433859
  Ewald energy   TEWEN  =     -4795.25873966
  -Hartree energ DENC   =     -3919.22051643
  -exchange      EXHF   =         0.00000000
  -V(xc)+E(xc)   XCENC  =      -351.78735463
  PAW double counting   =     46116.13619437   -45358.37218153
  entropy T*S    EENTRO =        -0.08382465
  eigenvalues    EBANDS =      -443.48958151
  atomic energy  EATOM  =      7895.52132944
  Solvation  Ediel_sol  =         0.00000000
  ---------------------------------------------------
  free energy    TOTEN  =      -750.39033601 eV

  energy without entropy =     -750.30651136  energy(sigma->0) =     -750.34842369


--------------------------------------------------------------------------------------------------------




--------------------------------------- Iteration      1(   5)  ---------------------------------------


    POTLOK:  cpu time      0.6391: real time      0.6629
    SETDIJ:  cpu time      1.1729: real time      1.1732
    EDDIAG:  cpu time     21.7385: real time     21.7572
     EDDAV:  cpu time    111.3367: real time    111.4361
       DOS:  cpu time      0.0043: real time      0.0044
    CHARGE:  cpu time      8.8003: real time      8.8075
    MIXING:  cpu time      0.0139: real time      0.0139
    --------------------------------------------
      LOOP:  cpu time    143.7057: real time    143.8551

 eigenvalue-minimisations  :  5976
 total energy-change (2. order) :-0.3167048E-01  (-0.8138181E-02)
 number of electron     308.9999999 magnetization 
 augmentation part      -16.7737859 magnetization 

 Broyden mixing:
  rms(total) = 0.45104E-01    rms(broyden)= 0.57909E+00
  rms(prec ) = 0.82134E-01
  weight for this iteration     100.00
  WARNING: grid for Broyden might be to small

 eigenvalues of (default mixing * dielectric matrix)
  average eigenvalue GAMMA=   1.0549
  2.1760  0.8350  0.6245  0.5839

 Free energy of the ion-electron system (eV)
  ---------------------------------------------------
  alpha Z        PSCENC =       106.16433859
  Ewald energy   TEWEN  =     -4795.25873966
  -Hartree energ DENC   =     -3919.58244013
  -exchange      EXHF   =         0.00000000
  -V(xc)+E(xc)   XCENC  =      -352.74468668
  PAW double counting   =     45904.69730968   -45146.91260393
  entropy T*S    EENTRO =        -0.09275627
  eigenvalues    EBANDS =      -442.21375752
  atomic energy  EATOM  =      7895.52132944
  Solvation  Ediel_sol  =         0.00000000
  ---------------------------------------------------
  free energy    TOTEN  =      -750.42200649 eV

  energy without entropy =     -750.32925023  energy(sigma->0) =     -750.37562836


--------------------------------------------------------------------------------------------------------




--------------------------------------- Iteration      1(   6)  ---------------------------------------


    POTLOK:  cpu time      0.6377: real time      0.6636
    SETDIJ:  cpu time      1.1720: real time      1.1732
    EDDIAG:  cpu time     21.7295: real time     21.7482
     EDDAV:  cpu time    104.0289: real time    104.1248
       DOS:  cpu time      0.0047: real time      0.0047
    CHARGE:  cpu time      8.7680: real time      8.7766
    MIXING:  cpu time      0.0134: real time      0.0134
    --------------------------------------------
      LOOP:  cpu time    136.3543: real time    136.5045

 eigenvalue-minimisations  :  5328
 total energy-change (2. order) : 0.8695599E-03  (-0.2731770E-02)
 number of electron     308.9999999 magnetization 
 augmentation part      -16.7750798 magnetization 

 Broyden mixing:
  rms(total) = 0.19871E-01    rms(broyden)= 0.28510E+00
  rms(prec ) = 0.23162E-01
  weight for this iteration     100.00
  WARNING: grid for Broyden might be to small

 eigenvalues of (default mixing * dielectric matrix)
  average eigenvalue GAMMA=   1.0435
  2.5527  0.9604  0.6441  0.6278  0.4325

 Free energy of the ion-electron system (eV)
  ---------------------------------------------------
  alpha Z        PSCENC =       106.16433859
  Ewald energy   TEWEN  =     -4795.25873966
  -Hartree energ DENC   =     -3919.54052027
  -exchange      EXHF   =         0.00000000
  -V(xc)+E(xc)   XCENC  =      -353.02252997
  PAW double counting   =     45776.26430062   -45018.46784894
  entropy T*S    EENTRO =        -0.08790040
  eigenvalues    EBANDS =      -441.99356634
  atomic energy  EATOM  =      7895.52132944
  Solvation  Ediel_sol  =         0.00000000
  ---------------------------------------------------
  free energy    TOTEN  =      -750.42113693 eV

  energy without entropy =     -750.33323653  energy(sigma->0) =     -750.37718673


--------------------------------------------------------------------------------------------------------




--------------------------------------- Iteration      1(   7)  ---------------------------------------


    POTLOK:  cpu time      0.6395: real time      0.6684
    SETDIJ:  cpu time      1.1737: real time      1.1743
    EDDIAG:  cpu time     21.7168: real time     21.7365
     EDDAV:  cpu time    100.4277: real time    100.5158
       DOS:  cpu time      0.0057: real time      0.0057
    CHARGE:  cpu time      8.6441: real time      8.6511
    MIXING:  cpu time      0.0135: real time      0.0135
    --------------------------------------------
      LOOP:  cpu time    132.6210: real time    132.7654

 eigenvalue-minimisations  :  5032
 total energy-change (2. order) :-0.1225425E-02  (-0.8227876E-03)
 number of electron     308.9999999 magnetization 
 augmentation part      -16.7735450 magnetization 

 Broyden mixing:
  rms(total) = 0.88016E-02    rms(broyden)= 0.25631E+00
  rms(prec ) = 0.11127E-01
  weight for this iteration     100.00
  WARNING: grid for Broyden might be to small

 eigenvalues of (default mixing * dielectric matrix)
  average eigenvalue GAMMA=   1.0503
  2.5563  1.2159  0.8540  0.4029  0.6364  0.6364

 Free energy of the ion-electron system (eV)
  ---------------------------------------------------
  alpha Z        PSCENC =       106.16433859
  Ewald energy   TEWEN  =     -4795.25873966
  -Hartree energ DENC   =     -3919.95087861
  -exchange      EXHF   =         0.00000000
  -V(xc)+E(xc)   XCENC  =      -352.94575876
  PAW double counting   =     45748.18959015   -44990.37732760
  entropy T*S    EENTRO =        -0.08878766
  eigenvalues    EBANDS =      -441.67612825
  atomic energy  EATOM  =      7895.52132944
  Solvation  Ediel_sol  =         0.00000000
  ---------------------------------------------------
  free energy    TOTEN  =      -750.42236236 eV

  energy without entropy =     -750.33357471  energy(sigma->0) =     -750.37796853


--------------------------------------------------------------------------------------------------------




--------------------------------------- Iteration      1(   8)  ---------------------------------------


    POTLOK:  cpu time      0.6377: real time      0.6637
    SETDIJ:  cpu time      1.1719: real time      1.1724
    EDDIAG:  cpu time     21.7962: real time     21.8142
     EDDAV:  cpu time    109.8122: real time    109.9094
       DOS:  cpu time      0.0048: real time      0.0048
    CHARGE:  cpu time      8.5275: real time      8.5347
    MIXING:  cpu time      0.0132: real time      0.0132
    --------------------------------------------
      LOOP:  cpu time    141.9635: real time    142.1125

 eigenvalue-minimisations  :  5824
 total energy-change (2. order) :-0.3977218E-03  (-0.1175139E-03)
 number of electron     308.9999999 magnetization 
 augmentation part      -16.7729296 magnetization 

 Broyden mixing:
  rms(total) = 0.35135E-02    rms(broyden)= 0.13736E+00
  rms(prec ) = 0.51608E-02
  weight for this iteration     100.00
  WARNING: grid for Broyden might be to small

 eigenvalues of (default mixing * dielectric matrix)
  average eigenvalue GAMMA=   1.0628
  2.5973  1.5243  0.9582  0.3993  0.7123  0.6242  0.6242

 Free energy of the ion-electron system (eV)
  ---------------------------------------------------
  alpha Z        PSCENC =       106.16433859
  Ewald energy   TEWEN  =     -4795.25873966
  -Hartree energ DENC   =     -3920.17410644
  -exchange      EXHF   =         0.00000000
  -V(xc)+E(xc)   XCENC  =      -352.90442086
  PAW double counting   =     45771.70236764   -45013.88269378
  entropy T*S    EENTRO =        -0.08849009
  eigenvalues    EBANDS =      -441.50234493
  atomic energy  EATOM  =      7895.52132944
  Solvation  Ediel_sol  =         0.00000000
  ---------------------------------------------------
  free energy    TOTEN  =      -750.42276008 eV

  energy without entropy =     -750.33426999  energy(sigma->0) =     -750.37851504


--------------------------------------------------------------------------------------------------------




--------------------------------------- Iteration      1(   9)  ---------------------------------------


    POTLOK:  cpu time      0.6392: real time      0.6673
    SETDIJ:  cpu time      1.1734: real time      1.1740
    EDDIAG:  cpu time     21.6728: real time     21.6922
     EDDAV:  cpu time    106.5189: real time    106.6174
       DOS:  cpu time      0.0062: real time      0.0062
    CHARGE:  cpu time      8.7806: real time      8.7881
    MIXING:  cpu time      0.0140: real time      0.0140
    --------------------------------------------
      LOOP:  cpu time    138.8052: real time    138.9595

 eigenvalue-minimisations  :  5560
 total energy-change (2. order) :-0.4656690E-04  (-0.2500578E-04)
 number of electron     308.9999999 magnetization 
 augmentation part      -16.7728100 magnetization 

 Broyden mixing:
  rms(total) = 0.20019E-02    rms(broyden)= 0.42944E-01
  rms(prec ) = 0.31443E-02
  weight for this iteration     100.00
  WARNING: grid for Broyden might be to small

 eigenvalues of (default mixing * dielectric matrix)
  average eigenvalue GAMMA=   1.1083
  2.6739  2.0657  1.0293  0.8374  0.3983  0.6443  0.6443  0.5733

 Free energy of the ion-electron system (eV)
  ---------------------------------------------------
  alpha Z        PSCENC =       106.16433859
  Ewald energy   TEWEN  =     -4795.25873966
  -Hartree energ DENC   =     -3920.21628001
  -exchange      EXHF   =         0.00000000
  -V(xc)+E(xc)   XCENC  =      -352.91453983
  PAW double counting   =     45784.01929103   -45026.19704288
  entropy T*S    EENTRO =        -0.08905562
  eigenvalues    EBANDS =      -441.45210772
  atomic energy  EATOM  =      7895.52132944
  Solvation  Ediel_sol  =         0.00000000
  ---------------------------------------------------
  free energy    TOTEN  =      -750.42280665 eV

  energy without entropy =     -750.33375103  energy(sigma->0) =     -750.37827884


--------------------------------------------------------------------------------------------------------




--------------------------------------- Iteration      1(  10)  ---------------------------------------


    POTLOK:  cpu time      0.6421: real time      0.6667
    SETDIJ:  cpu time      1.1737: real time      1.1743
    EDDIAG:  cpu time     21.8021: real time     21.8221
     EDDAV:  cpu time    103.1216: real time    103.2155
       DOS:  cpu time      0.0054: real time      0.0054
    CHARGE:  cpu time      8.6744: real time      8.6822
    MIXING:  cpu time      0.0143: real time      0.0143
    --------------------------------------------
      LOOP:  cpu time    135.4335: real time    135.5802

 eigenvalue-minimisations  :  5232
 total energy-change (2. order) :-0.2707413E-04  (-0.7733668E-05)
 number of electron     308.9999999 magnetization 
 augmentation part      -16.7729012 magnetization 

 Broyden mixing:
  rms(total) = 0.10350E-02    rms(broyden)= 0.20362E-01
  rms(prec ) = 0.13401E-02
  weight for this iteration     100.00
  WARNING: grid for Broyden might be to small

 eigenvalues of (default mixing * dielectric matrix)
  average eigenvalue GAMMA=   1.1631
  2.9401  2.4678  1.2038  0.9561  0.3981  0.7258  0.6278  0.6278  0.5203

 Free energy of the ion-electron system (eV)
  ---------------------------------------------------
  alpha Z        PSCENC =       106.16433859
  Ewald energy   TEWEN  =     -4795.25873966
  -Hartree energ DENC   =     -3920.18743470
  -exchange      EXHF   =         0.00000000
  -V(xc)+E(xc)   XCENC  =      -352.92208309
  PAW double counting   =     45782.13536112   -45024.31169862
  entropy T*S    EENTRO =        -0.08888023
  eigenvalues    EBANDS =      -441.47502657
  atomic energy  EATOM  =      7895.52132944
  Solvation  Ediel_sol  =         0.00000000
  ---------------------------------------------------
  free energy    TOTEN  =      -750.42283372 eV

  energy without entropy =     -750.33395349  energy(sigma->0) =     -750.37839361


--------------------------------------------------------------------------------------------------------




--------------------------------------- Iteration      1(  11)  ---------------------------------------


    POTLOK:  cpu time      0.6470: real time      0.6738
    SETDIJ:  cpu time      1.1766: real time      1.1781
    EDDIAG:  cpu time     21.6489: real time     21.6703
     EDDAV:  cpu time    102.3980: real time    102.4959
       DOS:  cpu time      0.0053: real time      0.0053
    CHARGE:  cpu time      8.5377: real time      8.5451
    MIXING:  cpu time      0.0142: real time      0.0142
    --------------------------------------------
      LOOP:  cpu time    134.4277: real time    134.5827

 eigenvalue-minimisations  :  5200
 total energy-change (2. order) :-0.2301553E-04  (-0.4187315E-05)
 number of electron     308.9999999 magnetization 
 augmentation part      -16.7728921 magnetization 

 Broyden mixing:
  rms(total) = 0.44651E-03    rms(broyden)= 0.15874E-01
  rms(prec ) = 0.68352E-03
  weight for this iteration     100.00
  WARNING: grid for Broyden might be to small

 eigenvalues of (default mixing * dielectric matrix)
  average eigenvalue GAMMA=   1.2075
  3.3822  2.5923  1.4418  1.0250  0.8527  0.6741  0.6346  0.6058  0.3986  0.4679

 Free energy of the ion-electron system (eV)
  ---------------------------------------------------
  alpha Z        PSCENC =       106.16433859
  Ewald energy   TEWEN  =     -4795.25873966
  -Hartree energ DENC   =     -3920.15295484
  -exchange      EXHF   =         0.00000000
  -V(xc)+E(xc)   XCENC  =      -352.92268806
  PAW double counting   =     45775.91721947   -45018.09212185
  entropy T*S    EENTRO =        -0.08882090
  eigenvalues    EBANDS =      -441.51041893
  atomic energy  EATOM  =      7895.52132944
  Solvation  Ediel_sol  =         0.00000000
  ---------------------------------------------------
  free energy    TOTEN  =      -750.42285674 eV

  energy without entropy =     -750.33403584  energy(sigma->0) =     -750.37844629


--------------------------------------------------------------------------------------------------------




--------------------------------------- Iteration      1(  12)  ---------------------------------------


    POTLOK:  cpu time      0.6381: real time      0.6661
    SETDIJ:  cpu time      1.1731: real time      1.1738
    EDDIAG:  cpu time     21.6758: real time     21.6961
     EDDAV:  cpu time    106.1761: real time    106.2722
       DOS:  cpu time      0.0055: real time      0.0055
    CHARGE:  cpu time      8.5528: real time      8.5603
    MIXING:  cpu time      0.0144: real time      0.0144
    --------------------------------------------
      LOOP:  cpu time    138.2358: real time    138.3883

 eigenvalue-minimisations  :  5512
 total energy-change (2. order) :-0.7790899E-05  (-0.1287766E-05)
 number of electron     308.9999999 magnetization 
 augmentation part      -16.7729800 magnetization 

 Broyden mixing:
  rms(total) = 0.21787E-03    rms(broyden)= 0.10904E-01
  rms(prec ) = 0.39029E-03
  weight for this iteration     100.00
  WARNING: grid for Broyden might be to small

 eigenvalues of (default mixing * dielectric matrix)
  average eigenvalue GAMMA=   1.2050
  3.5257  2.5970  1.5611  1.0386  1.0386  0.7615  0.3986  0.6533  0.6235  0.5910
  0.4655

 Free energy of the ion-electron system (eV)
  ---------------------------------------------------
  alpha Z        PSCENC =       106.16433859
  Ewald energy   TEWEN  =     -4795.25873966
  -Hartree energ DENC   =     -3920.11290437
  -exchange      EXHF   =         0.00000000
  -V(xc)+E(xc)   XCENC  =      -352.93342533
  PAW double counting   =     45777.34320248   -45019.51818920
  entropy T*S    EENTRO =        -0.08883570
  eigenvalues    EBANDS =      -441.53964077
  atomic energy  EATOM  =      7895.52132944
  Solvation  Ediel_sol  =         0.00000000
  ---------------------------------------------------
  free energy    TOTEN  =      -750.42286453 eV

  energy without entropy =     -750.33402882  energy(sigma->0) =     -750.37844668


--------------------------------------------------------------------------------------------------------




--------------------------------------- Iteration      1(  13)  ---------------------------------------


    POTLOK:  cpu time      0.6363: real time      0.6626
    SETDIJ:  cpu time      1.1701: real time      1.1712
    EDDIAG:  cpu time     21.7793: real time     21.7977
     EDDAV:  cpu time     99.3677: real time     99.4483
       DOS:  cpu time      0.0065: real time      0.0065
    CHARGE:  cpu time      8.5383: real time      8.5457
    MIXING:  cpu time      0.0146: real time      0.0146
    --------------------------------------------
      LOOP:  cpu time    131.5129: real time    131.6467

 eigenvalue-minimisations  :  4920
 total energy-change (2. order) :-0.4446883E-05  (-0.5572531E-06)
 number of electron     308.9999999 magnetization 
 augmentation part      -16.7729958 magnetization 

 Broyden mixing:
  rms(total) = 0.14661E-03    rms(broyden)= 0.55101E-02
  rms(prec ) = 0.27590E-03
  weight for this iteration     100.00
  WARNING: grid for Broyden might be to small

 eigenvalues of (default mixing * dielectric matrix)
  average eigenvalue GAMMA=   1.2395
  3.6930  2.6051  1.9353  1.3011  1.0553  0.8839  0.3984  0.7114  0.4606  0.6393
  0.6156  0.5746

 Free energy of the ion-electron system (eV)
  ---------------------------------------------------
  alpha Z        PSCENC =       106.16433859
  Ewald energy   TEWEN  =     -4795.25873966
  -Hartree energ DENC   =     -3920.08396081
  -exchange      EXHF   =         0.00000000
  -V(xc)+E(xc)   XCENC  =      -352.93626492
  PAW double counting   =     45777.34988585   -45019.52506025
  entropy T*S    EENTRO =        -0.08886096
  eigenvalues    EBANDS =      -441.56553625
  atomic energy  EATOM  =      7895.52132944
  Solvation  Ediel_sol  =         0.00000000
  ---------------------------------------------------
  free energy    TOTEN  =      -750.42286898 eV

  energy without entropy =     -750.33400802  energy(sigma->0) =     -750.37843850


--------------------------------------------------------------------------------------------------------




--------------------------------------- Iteration      1(  14)  ---------------------------------------


    POTLOK:  cpu time      0.6620: real time      0.6627
    SETDIJ:  cpu time      1.1747: real time      1.1755
    EDDIAG:  cpu time     21.8252: real time     21.8445
     EDDAV:  cpu time     92.6906: real time     92.7738
       DOS:  cpu time      0.0041: real time      0.0041
    CHARGE:  cpu time      8.5588: real time      8.5657
    MIXING:  cpu time      0.0153: real time      0.0153
    --------------------------------------------
      LOOP:  cpu time    124.9307: real time    125.0416

 eigenvalue-minimisations  :  4344
 total energy-change (2. order) :-0.3224093E-05  (-0.3244046E-06)
 number of electron     308.9999999 magnetization 
 augmentation part      -16.7730076 magnetization 

 Broyden mixing:
  rms(total) = 0.81553E-04    rms(broyden)= 0.39699E-02
  rms(prec ) = 0.14579E-03
  weight for this iteration     100.00
  WARNING: grid for Broyden might be to small

 eigenvalues of (default mixing * dielectric matrix)
  average eigenvalue GAMMA=   1.2557
  3.8192  2.5458  2.4206  1.3789  1.0975  0.9495  0.7812  0.3984  0.4555  0.6705
  0.6284  0.6284  0.5505

 Free energy of the ion-electron system (eV)
  ---------------------------------------------------
  alpha Z        PSCENC =       106.16433859
  Ewald energy   TEWEN  =     -4795.25873966
  -Hartree energ DENC   =     -3920.06246908
  -exchange      EXHF   =         0.00000000
  -V(xc)+E(xc)   XCENC  =      -352.93821655
  PAW double counting   =     45776.71210477   -45018.88739221
  entropy T*S    EENTRO =        -0.08885073
  eigenvalues    EBANDS =      -441.58497676
  atomic energy  EATOM  =      7895.52132944
  Solvation  Ediel_sol  =         0.00000000
  ---------------------------------------------------
  free energy    TOTEN  =      -750.42287220 eV

  energy without entropy =     -750.33402147  energy(sigma->0) =     -750.37844683


--------------------------------------------------------------------------------------------------------




--------------------------------------- Iteration      1(  15)  ---------------------------------------


    POTLOK:  cpu time      0.6390: real time      0.6642
    SETDIJ:  cpu time      1.1724: real time      1.1729
    EDDIAG:  cpu time     21.7185: real time     21.7363
     EDDAV:  cpu time     85.8587: real time     85.9347
       DOS:  cpu time      0.0060: real time      0.0060
    CHARGE:  cpu time      8.5260: real time      8.5331
    MIXING:  cpu time      0.0148: real time      0.0148
    --------------------------------------------
      LOOP:  cpu time    117.9353: real time    118.0619

 eigenvalue-minimisations  :  3736
 total energy-change (2. order) :-0.1121254E-05  (-0.1449978E-06)
 number of electron     308.9999999 magnetization 
 augmentation part      -16.7730078 magnetization 

 Broyden mixing:
  rms(total) = 0.51716E-04    rms(broyden)= 0.31887E-02
  rms(prec ) = 0.10063E-03
  weight for this iteration     100.00
  WARNING: grid for Broyden might be to small

 eigenvalues of (default mixing * dielectric matrix)
  average eigenvalue GAMMA=   1.2585
  3.8821  2.6081  2.6081  1.4471  1.1613  1.0528  0.8769  0.3984  0.7084  0.4542
  0.6358  0.6224  0.5820  0.5820

 Free energy of the ion-electron system (eV)
  ---------------------------------------------------
  alpha Z        PSCENC =       106.16433859
  Ewald energy   TEWEN  =     -4795.25873966
  -Hartree energ DENC   =     -3920.05196947
  -exchange      EXHF   =         0.00000000
  -V(xc)+E(xc)   XCENC  =      -352.93825325
  PAW double counting   =     45776.94914929   -45019.12455464
  entropy T*S    EENTRO =        -0.08884440
  eigenvalues    EBANDS =      -441.59532921
  atomic energy  EATOM  =      7895.52132944
  Solvation  Ediel_sol  =         0.00000000
  ---------------------------------------------------
  free energy    TOTEN  =      -750.42287332 eV

  energy without entropy =     -750.33402892  energy(sigma->0) =     -750.37845112


--------------------------------------------------------------------------------------------------------




--------------------------------------- Iteration      1(  16)  ---------------------------------------


    POTLOK:  cpu time      0.6670: real time      0.6678
    SETDIJ:  cpu time      1.1722: real time      1.1728
    EDDIAG:  cpu time     21.8315: real time     21.8514
     EDDAV:  cpu time     81.1967: real time     81.2721
       DOS:  cpu time      0.0051: real time      0.0051
    --------------------------------------------
[...]
   0.744E+02 -.798E+02 -.148E+01   -.724E+02 0.769E+02 0.188E+01   -.310E+01 0.259E+01 -.719E-01   0.395E-04 -.957E-04 -.134E-03
   0.466E+02 0.356E+00 0.261E+02   -.459E+02 0.217E+01 -.230E+02   -.641E+00 -.275E+01 -.346E+01   -.161E-03 0.109E-03 -.124E-03
   -.814E+02 0.374E+02 -.128E+01   0.825E+02 -.368E+02 0.823E+00   -.170E+01 -.503E+00 0.659E+00   -.117E-03 -.743E-04 -.297E-04
   0.541E+02 0.123E+02 -.520E+01   -.532E+02 -.131E+02 0.623E+01   -.976E+00 -.227E+00 -.202E+01   0.973E-05 0.195E-03 0.939E-04
   0.994E+02 0.647E+02 -.152E+02   -.996E+02 -.621E+02 0.141E+02   0.682E+00 -.375E+01 0.284E-01   0.274E-03 -.103E-03 0.156E-03
   -.301E+02 0.129E+02 -.181E+02   0.312E+02 -.142E+02 0.171E+02   -.560E+00 0.930E+00 0.139E+01   0.856E-04 0.122E-03 -.265E-04
   -.425E+01 0.376E+01 -.172E+01   0.303E+01 -.277E+01 0.379E+01   0.130E+01 -.255E+01 -.152E+01   -.170E-04 0.775E-04 0.284E-04
   -.307E+02 -.432E+02 0.786E+01   0.312E+02 0.413E+02 -.772E+01   -.248E+01 0.167E+01 -.970E+00   0.214E-03 0.148E-03 -.638E-04
   -.629E+02 0.276E+02 -.774E+01   0.611E+02 -.263E+02 0.874E+01   0.249E+01 -.782E+00 0.253E+00   -.827E-05 -.898E-04 -.270E-04
   -.926E+02 0.454E+02 0.321E+02   0.916E+02 -.455E+02 -.301E+02   0.907E+00 -.345E+00 -.270E+01   -.692E-04 0.351E-04 0.475E-05
   -.370E+02 -.268E+02 -.160E+01   0.347E+02 0.270E+02 0.779E+00   0.316E+01 0.682E-02 0.201E+00   0.259E-04 0.716E-05 0.159E-04
   0.971E+02 -.605E+02 -.405E+01   -.995E+02 0.616E+02 0.696E+01   0.183E+01 -.147E+01 -.297E+01   0.214E-03 -.311E-03 0.217E-04
   0.766E+02 0.502E+02 -.124E+02   -.770E+02 -.499E+02 0.120E+02   0.641E-01 0.550E+00 0.204E+01   0.114E-03 0.710E-04 0.146E-03
   -.206E+02 0.133E+02 -.233E+02   0.185E+02 -.141E+02 0.209E+02   0.287E+01 0.408E+00 0.319E+01   0.548E-04 0.113E-03 0.608E-04
   -.625E+01 0.769E+01 0.464E+02   0.813E+01 -.947E+01 -.415E+02   -.105E+01 0.225E+01 -.528E+01   0.259E-04 0.986E-04 -.400E-04
   0.158E+02 -.305E+02 0.581E+01   -.153E+02 0.269E+02 -.523E+01   -.172E+00 0.385E+01 -.439E+00   -.426E-04 0.154E-03 -.132E-04
   0.963E+02 0.641E+02 -.344E+01   -.960E+02 -.666E+02 0.667E+00   -.823E+00 0.218E+01 0.215E+01   0.120E-03 0.195E-03 0.430E-04
   -.266E+02 0.728E+02 0.379E+01   0.281E+02 -.712E+02 -.189E+01   -.123E+01 -.177E+01 -.188E+01   -.149E-04 0.355E-03 -.108E-03
   -.241E+02 0.602E+02 -.990E+01   0.251E+02 -.587E+02 0.826E+01   -.965E+00 -.217E+01 0.183E+01   -.210E-04 0.269E-03 -.660E-04
   0.300E+02 0.264E+02 0.555E+01   -.291E+02 -.279E+02 -.850E+01   -.109E+01 0.133E+01 0.236E+01   0.212E-04 -.180E-04 0.238E-04
   0.119E+03 0.540E+02 0.473E+01   -.119E+03 -.533E+02 -.347E+01   -.819E+00 0.704E+00 -.162E+00   0.213E-03 -.499E-04 -.251E-03
   0.305E+02 0.887E+01 -.171E+02   -.309E+02 -.834E+01 0.155E+02   0.845E+00 0.936E+00 0.254E+01   -.138E-03 0.172E-03 0.510E-04
   0.174E+02 -.131E+03 -.513E+01   -.218E+02 0.131E+03 0.321E+01   0.408E+01 0.424E+00 0.237E+01   -.580E-04 -.802E-04 -.706E-05
   0.839E+02 -.316E+01 -.168E+02   -.829E+02 0.411E+01 0.158E+02   -.485E+00 -.209E-01 0.986E+00   0.156E-03 -.224E-03 0.291E-04
   0.102E+02 0.711E+02 0.830E+01   -.119E+02 -.680E+02 -.764E+01   0.194E+01 -.319E+01 -.171E+01   -.120E-03 0.321E-03 0.991E-04
   0.142E+02 0.384E+02 -.485E+01   -.144E+02 -.363E+02 0.159E+01   -.645E-01 -.183E+01 0.311E+01   0.689E-06 -.113E-03 0.100E-04
   0.389E+01 -.362E+02 0.250E+02   -.532E+01 0.346E+02 -.233E+02   0.103E+01 0.200E+01 -.241E+01   -.117E-03 -.499E-04 -.115E-04
   0.500E+02 -.162E+02 -.813E-01   -.509E+02 0.170E+02 0.231E+01   0.937E+00 -.191E+01 -.262E+01   -.135E-03 0.860E-04 0.743E-04
   -.786E+02 0.101E+03 0.983E+01   0.778E+02 -.101E+03 -.893E+01   0.164E+00 0.140E+01 -.544E+00   -.601E-04 0.314E-03 -.617E-04
   -.777E+02 -.566E+02 -.204E+02   0.772E+02 0.559E+02 0.181E+02   0.229E+00 0.133E+01 0.216E+01   0.205E-04 -.115E-03 0.208E-04
   -.392E+02 0.167E+02 0.303E+02   0.372E+02 -.184E+02 -.285E+02   0.125E+01 0.246E+01 -.217E+01   0.328E-04 0.307E-04 0.232E-04
   -.518E+02 0.912E+02 -.192E+02   0.515E+02 -.898E+02 0.198E+02   0.187E+00 0.428E+00 -.161E+01   -.320E-04 0.253E-03 0.290E-04
   0.107E+03 -.867E+02 0.252E+02   -.107E+03 0.846E+02 -.235E+02   0.684E+00 0.139E+01 -.206E+01   0.124E-03 -.291E-03 -.969E-04
   -.336E+02 -.554E+02 0.960E+01   0.359E+02 0.547E+02 -.747E+01   -.198E+01 -.288E+00 -.162E+01   0.110E-03 -.444E-05 -.453E-04
   -.483E+02 0.355E+02 0.129E+02   0.478E+02 -.339E+02 -.141E+02   0.142E+01 -.121E+01 0.109E+01   0.970E-04 0.135E-03 -.440E-04
   0.199E+02 -.324E+02 -.244E+02   -.182E+02 0.334E+02 0.219E+02   -.280E+01 -.639E-01 0.375E+01   -.766E-04 0.424E-06 0.137E-04
   0.418E+02 0.155E+02 -.494E+01   -.407E+02 -.157E+02 0.394E+01   -.109E+01 0.271E+00 0.636E+00   -.160E-03 0.257E-03 -.506E-04
   -.808E+02 0.101E+03 -.280E+02   0.835E+02 -.102E+03 0.271E+02   -.279E+00 -.443E+00 0.959E+00   -.187E-03 0.243E-03 -.389E-04
   0.238E+02 0.607E+02 0.186E+01   -.253E+02 -.607E+02 -.145E+00   0.120E+01 -.440E+00 -.145E+01   -.876E-04 0.350E-03 -.179E-04
   -.966E+02 0.443E+01 0.179E+01   0.940E+02 -.468E+01 -.217E+01   0.264E+01 -.204E+00 -.206E+00   -.100E-03 -.483E-04 0.634E-04
   0.142E+03 0.793E+02 -.610E+00   -.143E+03 -.787E+02 0.169E+01   0.313E+00 -.154E+01 -.209E+01   0.255E-03 0.152E-03 -.890E-04
   0.705E+01 -.631E+02 0.137E+01   -.440E+01 0.643E+02 -.703E+00   -.282E+01 -.711E+00 -.130E+01   -.691E-05 0.151E-03 0.305E-03
   0.262E+02 -.494E+02 -.471E+01   -.270E+02 0.478E+02 0.471E+01   0.160E+01 0.147E+01 -.484E+00   -.900E-04 0.944E-04 0.114E-03
   -.480E+02 -.407E+02 0.933E+01   0.492E+02 0.442E+02 -.904E+01   -.449E+00 -.383E+01 -.168E+01   0.923E-04 0.119E-04 0.875E-05
   -.976E+02 -.509E+02 0.152E+02   0.968E+02 0.499E+02 -.147E+02   0.853E+00 -.495E-01 -.117E+01   -.128E-03 -.152E-03 -.563E-04
   -.673E+02 -.817E+02 -.187E+02   0.652E+02 0.790E+02 0.159E+02   0.296E+01 0.167E+01 0.403E+01   0.181E-03 -.527E-04 0.181E-03
   -.129E+03 -.681E+02 -.113E+02   0.130E+03 0.678E+02 0.910E+01   -.966E+00 0.132E+01 0.277E+01   -.154E-03 -.156E-03 0.563E-04
   0.125E+03 -.107E+03 -.236E+02   -.121E+03 0.105E+03 0.222E+02   -.397E+01 0.336E+01 0.268E+01   0.143E-03 -.332E-03 -.107E-03
   -.105E+03 -.129E+02 0.169E+02   0.108E+03 0.138E+02 -.144E+02   -.124E+01 -.252E+01 -.209E+01   -.212E-03 -.134E-03 -.662E-04
   -.256E+02 -.445E+02 -.167E+02   0.224E+02 0.439E+02 0.178E+02   0.352E+01 0.992E+00 -.487E+00   -.377E-04 -.511E-04 0.264E-04
   -.399E+02 0.728E+02 -.546E+01   0.393E+02 -.736E+02 0.330E+01   0.443E+00 0.847E+00 0.307E+01   0.135E-04 0.292E-03 0.944E-04
   0.148E+02 -.642E+01 -.106E+02   -.140E+02 0.553E+01 0.110E+02   -.513E+00 0.945E+00 -.727E+00   0.153E-04 -.109E-03 0.385E-04
   -.279E+02 -.496E+02 0.138E+02   0.263E+02 0.505E+02 -.106E+02   0.304E+01 -.810E+00 -.307E+01   0.180E-03 0.218E-03 -.214E-03
   -.188E+02 -.882E+02 -.662E+01   0.168E+02 0.858E+02 0.430E+01   0.201E+01 0.245E+01 0.296E+01   0.852E-04 0.476E-05 -.134E-03
 -----------------------------------------------------------------------------------------------
   0.176E+01 -.713E+01 -.648E+00   0.199E-12 -.341E-12 0.453E-13   -.177E+01 0.712E+01 0.637E+00   0.158E-03 0.298E-02 -.177E-03


 POSITION                                       TOTAL-FORCE (eV/Angst)
 -----------------------------------------------------------------------------------
      3.80689      7.50023      5.65217        -0.169688      0.411974     -0.067245
      3.28419     11.14350      7.52015         0.014899      0.342748      0.314369
     14.42140     11.10570      6.52195         0.014300     -0.133872     -0.064495
     14.04470     10.92010      2.29938        -0.833932      0.695304      0.109859
     13.15590      7.84346      0.41321        -0.472630      0.240893     -0.498374
     13.35560     12.04810      6.93177         0.384326      1.017677      0.141221
      9.37134      2.08045      0.36412        -0.456100      1.302138     -1.801652
     10.96380     11.41250      1.74596        -1.226031     -0.652081     -0.320227
      1.70858      0.56810      6.24612        -0.025906     -0.758244      0.185555
      8.59628      5.22921      4.32485        -0.745293      0.100504     -0.636163
      7.02513      3.42198      3.79861         0.075752      0.302458      1.173442
      5.38172      5.26497      6.58731         0.514982      0.111899      0.127711
     11.71340      4.47980      2.35647        -1.409886      1.331796     -0.706324
      7.89783     11.90750      3.58729        -0.363645     -0.900892     -0.035232
     10.11490      2.06483      5.35826         0.188802     -0.032387      0.809818
      8.79807      6.50540      2.31568        -0.433347      0.040109      0.185695
      9.65676     13.33940      1.47622        -0.155601     -0.517478      1.172627
     12.33190      5.44095      5.57819        -1.139243     -0.014844      0.544667
      6.50313      0.29133      1.74866        -1.833111     -1.110676     -0.802545
      7.83851      8.63567      2.64987        -0.926963     -0.600929      0.103084
      5.76310      4.54550      2.33764         1.528970     -0.845423     -1.187096
      3.93131      5.34606      8.45689        -0.128499     -0.730753     -0.709690
     12.41950      1.60987      6.17987         0.293849      0.515473      0.727731
      6.25604      9.05441      0.82073         0.922887     -0.347827      0.158660
      4.91611     14.04050      3.42473         0.109882      0.993214      1.237427
      7.36257     12.54510      1.35321        -0.826628      0.800018     -0.022522
      9.59893      0.46723      3.41184         1.209621      0.205626     -0.121473
      2.92894      3.99051      2.51993        -1.234956     -0.223017      0.331053
      4.41147      3.41850      0.84442        -0.033465     -0.295823     -0.551002
     10.69740      9.94708      8.86648        -0.687365      0.117299      0.222048
      6.21078     14.26710      5.55755        -0.050363     -1.124993     -1.072569
      5.94946     10.94650      4.71329         0.630096     -1.326135     -1.061542
     11.94710      0.85057      2.66880         0.554489     -0.293943      0.515739
      8.32839      2.68173      7.13487         0.110487     -1.658369      0.488558
     12.84070      2.27319      8.47622        -2.132896     -0.173806     -0.887408
      9.45573     10.22140      3.14727         0.805994      0.467629      1.281585
     11.19610     11.11130      6.91187        -0.030150     -0.458563     -0.849147
     10.54720      4.13252      4.43156         0.976425      0.181343     -0.607829
      4.98013      6.93627      4.94779        -0.498816     -0.454060     -0.175887
      6.02929     12.16020      6.58213        -0.397723      0.898087      1.719944
      8.37891     13.71050      4.90321         0.859545     -0.391620      0.889612
      9.93427     14.45670      8.57431         0.836618      0.560302     -0.536161
      8.06552      1.82437      2.35026         0.277707      0.460103      0.120246
      4.21970     12.17820      8.12105        -0.507402     -0.274808     -0.541402
      1.09821      0.16175      0.37304         0.170106     -0.218844     -0.082009
      1.03518      0.67938      2.66725        -0.018841     -0.805758      0.269246
      7.81295     11.76410      8.09609        -0.158431     -0.086687     -0.451725
      5.21986     11.12840      1.05397        -0.125269      1.460686      1.082224
      6.12260      1.55124      6.85642         0.496917      1.520058      1.028799
      1.60542      4.36072      7.82211         0.006458      0.355030      0.539939
      6.60768      8.60992      4.71457         0.491750      0.933808      0.004137
      2.86339      0.60030      4.20740         0.349915     -0.169665     -1.144338
      8.28509      9.48773      8.40866        -0.332974      0.280724     -0.020445
      7.20631      5.54537      0.80262        -0.360638      0.513766     -0.706563
      5.23742      3.27294      5.51918         0.117734     -1.174487     -0.536780
     13.89090     12.98010      0.04613        -0.757446      1.286880      0.331682
     11.10800      5.79251      7.61329        -0.281513      0.703536     -0.043856
      9.56764     12.78900      6.92220        -0.741809      0.908141     -0.409637
     13.66540     13.82460      3.55890        -0.163203      1.853561     -1.146588
      4.88797      7.07167      0.84566         1.199121     -0.730019     -0.489876
     11.11010      3.86856      0.12536         0.252255     -1.074757      0.421620
     12.10500      0.18721      0.34760         0.975346      0.347576      0.043512
      7.58346      4.82215      7.41972        -1.271766      0.955892      1.455695
      5.02627      1.23750      8.97889        -0.068068      0.106320     -0.347061
     13.08450     12.15760      2.09389         2.453560     -1.899780      0.072255
      3.14731     14.40860      8.19835        -0.239139     -0.411087      0.205682
     10.37480      9.42290      5.28569         0.097481     -0.473000     -0.604466
      4.39256     11.82360      3.27934        -0.438120     -0.980009     -1.144580
      1.36399      2.92202      6.08126        -0.291356      0.524127     -0.689929
      3.10919      2.89492      4.56685         0.914967     -0.107131     -0.518583
     13.16150      2.99383      3.14223         0.692788     -0.530348     -1.481461
     11.11280      6.89266      2.28174         0.145058     -1.086891     -0.724996
     13.60170      3.51660      5.25419         0.934635     -0.952643      1.409565
     11.78350      7.41081      4.40626        -0.220865      0.985384      0.667211
      4.18722      6.02389      2.80262        -0.659082      1.164620      1.446610
     11.64660      7.86933      0.16190         0.948900     -1.726194      0.316818
      8.99692      6.22632      6.39659         0.542727      0.448339      0.563318
     13.87750     14.15700      5.78822        -0.129078      0.045898      1.021073
      8.39149      8.47239      6.31858         0.251190      0.103170     -0.413430
      0.46597      2.54199      8.89983         1.554929      0.097359      0.009803
      0.71632      2.96091      2.12501         0.071761      0.056371      0.762470
 -----------------------------------------------------------------------------------
    total drift:                               -0.006731      0.000309     -0.010603


--------------------------------------------------------------------------------------------------------



  FREE ENERGIE OF THE ION-ELECTRON SYSTEM (eV)
  ---------------------------------------------------
  free  energy   TOTEN  =      -750.42287383 eV

  energy  without entropy=     -750.33402529  energy(sigma->0) =     -750.37844956



--------------------------------------------------------------------------------------------------------


    POTLOK:  cpu time      1.7989: real time      1.8004


--------------------------------------------------------------------------------------------------------


     LOOP+:  cpu time   2297.2761: real time   2299.6192
    4ORBIT:  cpu time      0.0000: real time      0.0000



 total charge

# of ion       s       p       d       tot
------------------------------------------
    1        0.573   0.016   0.000   0.589
    2        0.554   0.014   0.000   0.568
    3        0.568   0.016   0.000   0.584
    4        0.536   0.012   0.000   0.548
    5        0.549   0.014   0.000   0.562
    6        0.735   0.951   0.000   1.687
    7        0.759   0.862   0.000   1.621
    8        0.745   0.957   0.000   1.702
    9        0.768   0.847   0.000   1.615
   10        0.755   0.957   0.000   1.712
   11        0.752   0.924   0.000   1.675
   12        0.749   0.962   0.000   1.711
   13        0.756   0.936   0.000   1.692
   14        0.770   0.925   0.000   1.695
   15        0.790   0.825   0.000   1.615
   16        0.754   0.931   0.000   1.685
   17        0.785   0.911   0.000   1.695
   18        0.756   0.892   0.000   1.648
   19        0.756   0.895   0.000   1.651
   20        0.754   0.914   0.000   1.668
   21        0.768   1.006   0.000   1.774
   22        0.757   0.858   0.000   1.614
   23        0.757   0.865   0.000   1.622
   24        0.749   0.872   0.000   1.621
   25        0.758   0.887   0.000   1.645
   26        0.741   0.919   0.000   1.660
   27        0.741   0.911   0.000   1.652
   28        0.763   0.892   0.000   1.655
   29        0.755   0.932   0.000   1.688
   30        0.752   0.921   0.000   1.672
   31        0.755   0.954   0.000   1.710
   32        0.758   0.951   0.000   1.709
   33        0.772   0.844   0.000   1.616
   34        0.762   0.865   0.000   1.627
   35        0.759   0.940   0.000   1.698
   36        0.749   0.936   0.000   1.685
   37        0.746   0.930   0.000   1.676
   38        0.768   0.938   0.000   1.706
   39        0.737   0.949   0.000   1.686
   40        0.750   0.977   0.000   1.727
   41        0.764   0.931   0.000   1.695
   42        0.755   0.976   0.000   1.731
   43        0.751   0.947   0.000   1.698
   44        0.738   0.930   0.000   1.667
   45        0.763   0.875   0.000   1.638
   46        0.759   0.907   0.000   1.665
   47        0.757   0.922   0.000   1.679
   48        0.771   0.862   0.000   1.632
   49        0.749   0.943   0.000   1.692
   50        0.809   0.819   0.000   1.628
   51        0.745   0.922   0.000   1.667
   52        0.755   0.924   0.000   1.679
   53        0.751   0.901   0.000   1.652
   54        0.773   0.853   0.000   1.626
   55        0.756   0.932   0.000   1.688
   56        0.755   0.904   0.000   1.659
   57        0.754   0.843   0.000   1.597
   58        0.754   0.913   0.000   1.667
   59        0.751   0.938   0.000   1.689
   60        0.760   0.858   0.000   1.618
   61        0.749   0.876   0.000   1.625
   62        0.763   0.903   0.000   1.666
   63        0.759   0.941   0.000   1.701
   64        0.746   0.877   0.000   1.623
   65        0.737   0.965   0.000   1.703
   66        0.746   0.872   0.000   1.618
   67        0.756   0.840   0.000   1.596
   68        0.792   0.875   0.000   1.667
   69        0.755   0.923   0.000   1.678
   70        0.757   0.967   0.000   1.724
   71        0.761   0.969   0.000   1.730
   72        0.752   0.920   0.000   1.671
   73        0.756   0.929   0.000   1.685
   74        0.785   0.826   0.000   1.611
   75        0.757   0.949   0.000   1.706
   76        0.740   0.919   0.000   1.659
   77        0.754   0.949   0.000   1.703
   78        0.753   0.876   0.000   1.629
   79        0.749   0.936   0.000   1.685
   80        0.757   0.957   0.000   1.714
   81        0.766   0.950   0.000   1.716
--------------------------------------------------
tot         60.320  69.428   0.000 129.748


 total amount of memory used by VASP MPI-rank0   181141. kBytes
=======================================================================

   base                                    :      30000. kBytes
   nonl-proj                               :      31763. kBytes
   fftplans                                :      36863. kBytes
   grid                                    :      28430. kBytes
   one-center                              :         18. kBytes
   wavefun                                 :      54067. kBytes

  
  
 General timing and accounting informations for this job:
 ========================================================
  
                  Total CPU time used (sec):     2359.778
                            User time (sec):     2351.557
                          System time (sec):        8.221
                         Elapsed time (sec):     2362.609
  
                   Maximum memory used (kb):      339164.
                   Average memory used (kb):          N/A
  
                          Minor page faults:       263997
                          Major page faults:         1150
                 Voluntary context switches:         2575
