 vasp.6.5.0 16Dec24 (build Jan 20 2025 08:32:48) complex                         
 executed on        HPECrayEX_GCC date 2025.07.28  18:27:06
 running  128 mpi-ranks, with    1 threads/rank, on    1 nodes
 distrk:  each k-point on  128 cores,    1 groups
 distr:  one band on NCORE=  16 cores,    8 groups


--------------------------------------------------------------------------------------------------------


 INCAR:
   SYSTEM = a-Si SPC
   NCORE = 16
   ISTART = 1
   ICHARG = 1
   ISPIN = 1
   ISYM = 1
   EDIFF = 1E-6
   NELM = 150
   EDIFFG = -0.01
   NSW = 0
   ISIF = 2
   IBRION = -1
   PREC = Accurate
   ENCUT = 1200
   KSPACING = 0.23
   KGAMMA = .TRUE.
   METAGGA = SCAN
   LASPH = .TRUE.
   LDIAG = .FALSE.
   LMIXTAU = .TRUE.
   ADDGRID = .TRUE.
   ALGO = Normal
   ISMEAR = 0
   SIGMA = 0.1
   LORBIT = 11
   NEDOS = 2000
   LWAVE = .FALSE.
   LCHARG = .FALSE.

 POTCAR:    PAW_PBE H 15Jun2001                   
 POTCAR:    PAW_PBE Si 05Jan2001                  
 POTCAR:    PAW_PBE H 15Jun2001                   
   SHA256 =  030f79b5d3ab3cf0e668861823c8fb652ff669f3e15e46930bd03bfd63a607b6 H/POTCAR              
   COPYR  = (c) Copyright 15Jun2001 Georg Kresse                                                    
   COPYR  = This file is part of the software VASP. Any use, copying, and all other rights are regul
   COPYR  = If you do not have a valid VASP license, you may not use, copy or distribute this file. 
   VRHFIN =H: ultrasoft test                                                                        
   LEXCH  = PE                                                                                      
   EATOM  =    12.4884 eV,    0.9179 Ry                                                             
                                                                                                    
   TITEL  = PAW_PBE H 15Jun2001                                                                     
   LULTRA =        F    use ultrasoft PP ?                                                          
   IUNSCR =        0    unscreen: 0-lin 1-nonlin 2-no                                               
   RPACOR =    0.000    partial core radius                                                         
   POMASS =    1.000; ZVAL   =    1.000    mass and valenz                                          
   RCORE  =    1.100    outmost cutoff radius                                                       
   RWIGS  =    0.700; RWIGS  =    0.370    wigner-seitz radius (au A)                               
   ENMAX  =  250.000; ENMIN  =  200.000 eV                                                          
   RCLOC  =    0.701    cutoff for local pot                                                        
   LCOR   =        T    correct aug charges                                                         
   LPAW   =        T    paw PP                                                                      
   EAUG   =  400.000                                                                                
   RMAX   =    1.123    core radius for proj-oper                                                   
   RAUG   =    1.200    factor for augmentation sphere                                              
   RDEP   =    1.112    radius for radial grids                                                     
   RDEPT  =    0.926    core radius for aug-charge                                                  
                                                                                                    
   Atomic configuration                                                                             
    2 entries                                                                                       
     n  l   j            E        occ.                                                              
     1  0  0.50        -6.4927   1.0000                                                             
     2  1  0.50        -3.4015   0.0000                                                             
   Description                                                                                      
     l       E           TYP  RCUT    TYP  RCUT                                                     
     0     -6.4927494     23  1.100                                                                 
     0      6.8029130     23  1.100                                                                 
     1     -4.0817478     23  1.100                                                                 
  local pseudopotential read in
  atomic valenz-charges read in
  non local Contribution for L=           0  read in
    real space projection operators read in
  non local Contribution for L=           0  read in
    real space projection operators read in
  non local Contribution for L=           1  read in
    real space projection operators read in
    PAW grid and wavefunctions read in

   number of l-projection  operators is LMAX  =           3
   number of lm-projection operators is LMMAX =           5

 POTCAR:    PAW_PBE Si 05Jan2001                  
   SHA256 =  79d9987ad8750f624c4d6acb2a16d13abf6a777132adc04dc6c8399be72b42bb Si/POTCAR             
   COPYR  = (c) Copyright 05Jan2001 Georg Kresse                                                    
   COPYR  = This file is part of the software VASP. Any use, copying, and all other rights are regul
   COPYR  = If you do not have a valid VASP license, you may not use, copy or distribute this file. 
   VRHFIN =Si: s2p2                                                                                 
   LEXCH  = PE                                                                                      
   EATOM  =   103.0669 eV,    7.5752 Ry                                                             
                                                                                                    
   TITEL  = PAW_PBE Si 05Jan2001                                                                    
   LULTRA =        F    use ultrasoft PP ?                                                          
   IUNSCR =        1    unscreen: 0-lin 1-nonlin 2-no                                               
   RPACOR =    1.500    partial core radius                                                         
   POMASS =   28.085; ZVAL   =    4.000    mass and valenz                                          
   RCORE  =    1.900    outmost cutoff radius                                                       
   RWIGS  =    2.480; RWIGS  =    1.312    wigner-seitz radius (au A)                               
   ENMAX  =  245.345; ENMIN  =  184.009 eV                                                          
   ICORE  =        2    local potential                                                             
   LCOR   =        T    correct aug charges                                                         
   LPAW   =        T    paw PP                                                                      
   EAUG   =  322.069                                                                                
   DEXC   =    0.000                                                                                
   RMAX   =    1.950    core radius for proj-oper                                                   
   RAUG   =    1.300    factor for augmentation sphere                                              
   RDEP   =    1.993    radius for radial grids                                                     
   RDEPT  =    1.837    core radius for aug-charge                                                  
                                                                                                    
   Atomic configuration                                                                             
    6 entries                                                                                       
     n  l   j            E        occ.                                                              
     1  0  0.50     -1785.8828   2.0000                                                             
     2  0  0.50      -139.4969   2.0000                                                             
     2  1  1.50       -95.5546   6.0000                                                             
     3  0  0.50       -10.8127   2.0000                                                             
     3  1  0.50        -4.0811   2.0000                                                             
     3  2  1.50        -4.0817   0.0000                                                             
   Description                                                                                      
     l       E           TYP  RCUT    TYP  RCUT                                                     
     0    -10.8127223     23  1.900                                                                 
     0     -7.6451159     23  1.900                                                                 
     1     -4.0811372     23  1.900                                                                 
     1      2.4879257     23  1.900                                                                 
     2     -4.0817478      7  1.900                                                                 
  local pseudopotential read in
  partial core-charges read in
  partial kinetic energy density read in
  atomic valenz-charges read in
  non local Contribution for L=           0  read in
    real space projection operators read in
  non local Contribution for L=           0  read in
    real space projection operators read in
  non local Contribution for L=           1  read in
    real space projection operators read in
  non local Contribution for L=           1  read in
    real space projection operators read in
    PAW grid and wavefunctions read in

   number of l-projection  operators is LMAX  =           4
   number of lm-projection operators is LMMAX =           8

 -----------------------------------------------------------------------------
|                                                                             |
|               ----> ADVICE to this user running VASP <----                  |
|                                                                             |
|     You have a (more or less) 'large supercell' and for larger cells it     |
|     might be more efficient to use real-space projection operators.         |
|     Therefore, try LREAL= Auto in the INCAR file.                           |
|     Mind: For very accurate calculation, you might also keep the            |
|     reciprocal projection scheme (i.e. LREAL=.FALSE.).                      |
|                                                                             |
 -----------------------------------------------------------------------------

 -----------------------------------------------------------------------------
|                                                                             |
|               ----> ADVICE to this user running VASP <----                  |
|                                                                             |
|     You enforced a specific xc type in the INCAR file but a different       |
|     type was found in the POTCAR file.                                      |
|     I HOPE YOU KNOW WHAT YOU ARE DOING!                                     |
|                                                                             |
 -----------------------------------------------------------------------------

  PAW_PBE H 15Jun2001                   :
 energy of atom  1       EATOM=  -12.4884
 kinetic energy error for atom=    0.0000 (will be added to EATOM!!)
  PAW_PBE Si 05Jan2001                  :
 energy of atom  2       EATOM= -103.0669
 kinetic energy error for atom=    0.0001 (will be added to EATOM!!)


 POSCAR:  H Si
  positions in cartesian coordinates
  No initial velocities read in


 exchange-correlation table for SCAN
   RHO(1)=    0.500       N(1)  =     2000
   RHO(2)=  100.500       N(2)  =     4000



--------------------------------------------------------------------------------------------------------


 ion  position               nearest neighbor table
   1  0.145  0.332  0.550-   9 1.49
   2  0.769  0.171  0.448-  23 1.50
   3  0.927  0.763  0.538-  37 1.50
   4  0.963  0.367  0.594-  11 1.49
   5  0.570  0.133  0.355-  43 1.49
   6  0.836  0.480  0.419-  21 2.29  20 2.35  19 2.35  48 2.97
   7  0.615  0.904  0.570-  35 2.33  18 2.44   8 2.44  44 2.48  51 2.67
   8  0.524  0.774  0.600-  57 2.33  74 2.39   7 2.44
   9  0.110  0.311  0.499-   1 1.49  69 2.31  48 2.34  27 2.37
  10  0.923  0.830  0.420-  64 2.34  49 2.35  47 2.37
  11  0.967  0.453  0.564-   4 1.49  14 2.30  36 2.31  48 2.34
  12  0.606  0.080  0.466-  43 2.32  35 2.33  28 2.34  16 2.35
  13  0.856  0.080  0.613-  44 2.38  65 2.40  68 2.46  53 2.71
  14  0.021  0.579  0.607-  11 2.30  61 2.31  70 2.32  36 3.05
  15  0.077  0.893  0.596-  31 2.35  65 2.36  30 2.38  58 2.48
  16  0.686  0.966  0.422-  64 2.32  12 2.35  71 2.35  35 2.88
  17  0.581  0.708  0.425-  46 2.32  71 2.34  33 2.35
  18  0.729  0.803  0.532-  37 2.33  33 2.35  64 2.39   7 2.44
  19  0.831  0.597  0.480-  33 2.32  49 2.33   6 2.35  36 2.39  20 2.92
  20  0.986  0.539  0.418-   6 2.35  49 2.36  48 2.41  19 2.92
  21  0.895  0.336  0.433-   6 2.29  48 2.29  23 2.30
  22  0.709  0.439  0.581-  36 2.33  62 2.36  52 2.43
  23  0.814  0.237  0.483-   2 1.50  21 2.30  52 2.35  68 2.38
  24  0.503  0.398  0.409-  25 2.30  66 2.36  32 2.39
  25  0.402  0.512  0.433-  24 2.30  46 2.32  75 2.33
  26  0.415  0.589  0.621-  45 2.31  57 2.31  74 2.35
  27  0.064  0.154  0.502-  78 2.34   9 2.37  68 2.38  67 2.40
  28  0.624  0.164  0.540-  12 2.34  59 2.38  52 2.38  44 2.40
  29  0.178  0.846  0.395-  41 2.31  47 2.37  55 2.40
  30  0.093  0.867  0.509-  42 2.31  47 2.31  31 2.32  15 2.38
  31  0.210  0.938  0.553-  30 2.32  67 2.35  15 2.35  63 2.46  72 2.64  58 2.69  38 2.82
  32  0.429  0.251  0.413-  34 2.32  43 2.33  60 2.34  24 2.39
  33  0.690  0.671  0.486-  19 2.32  18 2.35  17 2.35  62 2.37
  34  0.362  0.289  0.489-  77 2.31  32 2.32  69 2.36  40 2.36  60 3.14
  35  0.543  0.944  0.495-  38 2.32  71 2.32  12 2.33   7 2.33  16 2.88
  36  0.832  0.536  0.563-  11 2.31  22 2.33  70 2.36  19 2.39  14 3.05  62 3.10
  37  0.862  0.783  0.580-   3 1.50  70 2.32  18 2.33  65 2.34
  38  0.399  0.961  0.532-  35 2.32  72 2.33  63 2.34  51 2.35  31 2.82
  39  0.225  0.106  0.407-  78 2.33  41 2.33  60 2.34  72 2.45
  40  0.457  0.379  0.540-  45 2.32  34 2.36  66 2.37  54 2.40  73 2.89
  41  0.289  0.959  0.402-  29 2.31  56 2.32  39 2.33  72 2.40
  42  0.095  0.710  0.494-  49 2.30  30 2.31  61 2.32  55 2.34
  43  0.511  0.115  0.399-   5 1.49  12 2.32  32 2.33  56 2.38
  44  0.716  0.041  0.572-  13 2.38  53 2.40  28 2.40   7 2.48
  45  0.346  0.474  0.575-  50 2.31  26 2.31  40 2.32  73 2.38
  46  0.461  0.644  0.470-  76 2.28  17 2.32  25 2.32  57 2.42
  47  0.053  0.925  0.432-  30 2.31  78 2.35  10 2.37  29 2.37
  48  0.996  0.419  0.480-  21 2.29  11 2.34   9 2.34  20 2.41   6 2.97
  49  0.957  0.684  0.454-  42 2.30  19 2.33  10 2.35  20 2.36
  50  0.256  0.562  0.523-  45 2.31  61 2.34  75 2.35  76 2.39
  51  0.474  0.001  0.606-  59 2.32  38 2.35   7 2.67
  52  0.690  0.310  0.524-  23 2.35  66 2.37  28 2.38  22 2.43
  53  0.847  0.998  0.523-  68 2.33  64 2.33  65 2.39  44 2.40  13 2.71
  54  0.478  0.300  0.618-  59 2.36  73 2.38  40 2.40  77 3.14
  55  0.201  0.694  0.429-  76 2.29  42 2.34  29 2.40  75 2.71
  56  0.446  0.966  0.387-  41 2.32  71 2.36  43 2.38
  57  0.510  0.636  0.557-  62 2.30  26 2.31   8 2.33  46 2.42  74 3.10
  58  0.205  0.782  0.607-  61 2.41  74 2.45  15 2.48  63 2.51  31 2.69
  59  0.479  0.153  0.580-  51 2.32  54 2.36  28 2.38  77 2.38
  60  0.279  0.251  0.383-  32 2.34  39 2.34  69 2.36  34 3.14
  61  0.146  0.645  0.568-  14 2.31  42 2.32  50 2.34  58 2.41
  62  0.628  0.543  0.530-  57 2.30  66 2.36  22 2.36  33 2.37  36 3.10
  63  0.328  0.818  0.544-  76 2.31  38 2.34  74 2.39  31 2.46  58 2.51
  64  0.799  0.887  0.466-  16 2.32  53 2.33  10 2.34  18 2.39
  65  0.919  0.932  0.594-  37 2.34  15 2.36  53 2.39  13 2.40
  66  0.582  0.410  0.486-  62 2.36  24 2.36  52 2.37  40 2.37
  67  0.198  0.099  0.545-  31 2.35  72 2.37  77 2.37  27 2.40
  68  0.911  0.144  0.533-  53 2.33  23 2.38  27 2.38  13 2.46
  69  0.232  0.349  0.448-   9 2.31  34 2.36  60 2.36  75 2.40
  70  0.879  0.645  0.623-  37 2.32  14 2.32  36 2.36
  71  0.558  0.867  0.420-  35 2.32  17 2.34  16 2.35  56 2.36
  72  0.291  0.034  0.481-  38 2.33  67 2.37  41 2.40  39 2.45  31 2.64  77 3.12
  73  0.317  0.327  0.611-  54 2.38  45 2.38  77 2.42  40 2.89
  74  0.367  0.742  0.620-  26 2.35  63 2.39   8 2.39  58 2.45  57 3.10
  75  0.242  0.514  0.440-  25 2.33  50 2.35  69 2.40  55 2.71
  76  0.317  0.699  0.486-  46 2.28  55 2.29  63 2.31  50 2.39
  77  0.328  0.195  0.556-  34 2.31  67 2.37  59 2.38  73 2.42  72 3.12  54 3.14
  78  0.069  0.085  0.424-  39 2.33  27 2.34  47 2.35

  LATTYP: Found a simple tetragonal cell.
 ALAT       =    14.5353600448
 C/A-ratio  =     1.8468444275
  
  Lattice vectors:
  
 A1 = (  14.5353600448,   0.0000000000,   0.0000000000)
 A2 = (   0.0000000000,  14.5353600448,   0.0000000000)
 A3 = (   0.0000000000,   0.0000000000,  26.8445487000)


Analysis of symmetry for initial positions (statically):
=====================================================================
 Subroutine PRICEL returns:
 Original cell was already a primitive cell.
 

 Routine SETGRP: Setting up the symmetry group for a 
 simple tetragonal supercell.


 Subroutine GETGRP returns: Found  1 space group operations
 (whereof  1 operations were pure point group operations)
 out of a pool of 16 trial point group operations.


The static configuration has the point symmetry C_1 .


Analysis of symmetry for dynamics (positions and initial velocities):
=====================================================================
 Subroutine PRICEL returns:
 Original cell was already a primitive cell.
 

 Routine SETGRP: Setting up the symmetry group for a 
 simple tetragonal supercell.


 Subroutine GETGRP returns: Found  1 space group operations
 (whereof  1 operations were pure point group operations)
 out of a pool of 16 trial point group operations.


The dynamic configuration has the point symmetry C_1 .


 Subroutine INISYM returns: Found  1 space group operations
 (whereof  1 operations are pure point group operations),
 and found     1 'primitive' translations


----------------------------------------------------------------------------------------

                                     Primitive cell                                     

  volume of cell :    5671.6274

  direct lattice vectors                    reciprocal lattice vectors
    14.535360045  0.000000000  0.000000000     0.068797745  0.000000000  0.000000000
     0.000000000 14.535360045  0.000000000     0.000000000  0.068797745  0.000000000
     0.000000000  0.000000000 26.844548700     0.000000000  0.000000000  0.037251511

  length of vectors
    14.535360045 14.535360045 26.844548700     0.068797745  0.068797745  0.037251511

  position of ions in fractional coordinates (direct lattice)
     0.144712288  0.331885773  0.550135602
     0.769228776  0.171294460  0.447669466
     0.927206355  0.763388048  0.538106149
     0.963299690  0.366687262  0.593548289
     0.569628395  0.133266807  0.354595621
     0.835791181  0.479840587  0.419331168
     0.615097421  0.903952148  0.570028498
     0.524384865  0.773802199  0.600152107
     0.110180589  0.310814898  0.498942959
     0.922560314  0.829536255  0.419986599
     0.967188079  0.452803283  0.563615411
     0.605669977  0.080134261  0.465635277
     0.856464997  0.080101520  0.613038498
     0.021039167  0.578617164  0.606968883
     0.076845741  0.892715761  0.595717235
     0.685798066  0.965546151  0.421914931
     0.580889060  0.707699116  0.425034361
     0.729337857  0.802573647  0.532378904
     0.831183581  0.596547634  0.479907244
     0.986109697  0.538967440  0.417799217
     0.894783311  0.335781465  0.432545400
     0.709258549  0.438525481  0.580655175
     0.814003407  0.237262114  0.483108286
     0.502777024  0.398123766  0.409107979
     0.402388888  0.512190964  0.433328009
     0.415397528  0.588500682  0.621085482
     0.064137460  0.154345372  0.502340312
     0.624120911  0.163715224  0.539594882
     0.177971009  0.845546297  0.395097094
     0.092957821  0.866508799  0.508818209
     0.210120861  0.938138313  0.552572299
     0.429209482  0.251110731  0.412876053
     0.690232680  0.670971456  0.486457231
     0.361758828  0.288797548  0.488556299
     0.542719037  0.943592391  0.495424284
     0.832355941  0.536349320  0.562858742
     0.861855588  0.783210325  0.580244613
     0.399215865  0.960590373  0.531803062
     0.224972294  0.105643733  0.406884784
     0.457166999  0.379051755  0.540162031
     0.288957522  0.958608192  0.401844139
     0.094562643  0.710243460  0.493720398
     0.510605571  0.115218380  0.398870036
     0.716488754  0.040751480  0.571990305
     0.345618313  0.473803356  0.575040170
     0.461014613  0.643930124  0.470341085
     0.052825986  0.925379051  0.431926425
     0.996186830  0.419196502  0.479765802
     0.956795814  0.684089404  0.453744719
     0.255769314  0.562400807  0.523030092
     0.473926190  0.001189765  0.606132701
     0.690296545  0.310306476  0.523661469
     0.847255421  0.998189959  0.522678490
     0.477932385  0.300058633  0.617750471
     0.201059366  0.694168919  0.428949733
     0.445776652  0.966433949  0.387150639
     0.509503304  0.635819757  0.556544795
     0.204961089  0.782217995  0.606660156
     0.479484207  0.153243449  0.580462887
     0.278583076  0.250702576  0.382541369
     0.145760526  0.645418024  0.567728087
     0.627917320  0.542868223  0.529686942
     0.327785637  0.817968456  0.543740595
     0.798695348  0.887169204  0.466009744
     0.919039894  0.931609505  0.594000048
     0.581974333  0.410271344  0.485659557
     0.198032645  0.098505479  0.544864363
     0.910951048  0.143708610  0.533288296
     0.231705244  0.349273658  0.447683258
     0.878703382  0.645161640  0.622911852
     0.557970873  0.866522608  0.420179189
     0.290881084  0.033968048  0.481491791
     0.317137686  0.326810006  0.610982750
     0.366892308  0.742481273  0.619823144
     0.242242254  0.513641877  0.439727480
     0.317395226  0.699392639  0.486459272
     0.327662549  0.195370354  0.555762787
     0.069293825  0.085202521  0.423861420

  ion indices of the primitive-cell ions
   primitive index   ion index
                 1           1
                 2           2
                 3           3
                 4           4
                 5           5
                 6           6
                 7           7
                 8           8
                 9           9
                10          10
                11          11
                12          12
                13          13
                14          14
                15          15
                16          16
                17          17
                18          18
                19          19
                20          20
                21          21
                22          22
                23          23
                24          24
                25          25
                26          26
                27          27
                28          28
                29          29
                30          30
                31          31
                32          32
                33          33
                34          34
                35          35
                36          36
                37          37
                38          38
                39          39
                40          40
                41          41
                42          42
                43          43
                44          44
                45          45
                46          46
                47          47
                48          48
                49          49
                50          50
                51          51
                52          52
                53          53
                54          54
                55          55
                56          56
                57          57
                58          58
                59          59
                60          60
                61          61
                62          62
                63          63
                64          64
                65          65
                66          66
                67          67
                68          68
                69          69
                70          70
                71          71
                72          72
                73          73
                74          74
                75          75
                76          76
                77          77
                78          78

----------------------------------------------------------------------------------------


 -----------------------------------------------------------------------------
|                                                                             |
|           W    W    AA    RRRRR   N    N  II  N    N   GGGG   !!!           |
|           W    W   A  A   R    R  NN   N  II  NN   N  G    G  !!!           |
|           W    W  A    A  R    R  N N  N  II  N N  N  G       !!!           |
|           W WW W  AAAAAA  RRRRR   N  N N  II  N  N N  G  GGG   !            |
|           WW  WW  A    A  R   R   N   NN  II  N   NN  G    G                |
|           W    W  A    A  R    R  N    N  II  N    N   GGGG   !!!           |
|                                                                             |
|     The requested file  could not be found or opened for reading            |
|     k-point information. Automatic k-point generation is used as a          |
|     fallback, which may lead to unwanted results.                           |
|                                                                             |
 -----------------------------------------------------------------------------



Automatic generation of k-mesh.
 Grid dimensions derived from KSPACING:
 generate k-points for:    2    2    2

 Generating k-lattice:

  Cartesian coordinates                     Fractional coordinates (reciprocal lattice)
     0.034398873  0.000000000  0.000000000     0.500000000  0.000000000  0.000000000
     0.000000000  0.034398873  0.000000000     0.000000000  0.500000000  0.000000000
     0.000000000  0.000000000  0.018625755     0.000000000  0.000000000  0.500000000

  Length of vectors
     0.034398873  0.034398873  0.018625755

  Shift w.r.t. Gamma in fractional coordinates (k-lattice)
     0.000000000  0.000000000  0.000000000

 
 Subroutine IBZKPT returns following result:
 ===========================================
 
 Found      8 irreducible k-points:
 
 Following reciprocal coordinates:
            Coordinates               Weight
  0.000000  0.000000  0.000000      1.000000
  0.500000  0.000000  0.000000      1.000000
  0.000000  0.500000  0.000000      1.000000
  0.500000  0.500000  0.000000      1.000000
  0.000000  0.000000  0.500000      1.000000
  0.500000  0.000000  0.500000      1.000000
  0.000000  0.500000  0.500000      1.000000
  0.500000  0.500000  0.500000      1.000000
 
 Following cartesian coordinates:
            Coordinates               Weight
  0.000000  0.000000  0.000000      1.000000
  0.034399  0.000000  0.000000      1.000000
  0.000000  0.034399  0.000000      1.000000
  0.034399  0.034399  0.000000      1.000000
  0.000000  0.000000  0.018626      1.000000
  0.034399  0.000000  0.018626      1.000000
  0.000000  0.034399  0.018626      1.000000
  0.034399  0.034399  0.018626      1.000000
 


--------------------------------------------------------------------------------------------------------




 Dimension of arrays:
   k-points           NKPTS =      8   k-points in BZ     NKDIM =      8   number of bands    NBANDS=    192
   number of dos      NEDOS =   2000   number of ions     NIONS =     78
   non local maximal  LDIM  =      4   non local SUM 2l+1 LMDIM =      8
   total plane-waves  NPLWV = ******
   max r-space proj   IRMAX =      1   max aug-charges    IRDMAX= 426092
   dimension x,y,z NGX =   168 NGY =  168 NGZ =  320
   dimension x,y,z NGXF=   336 NGYF=  336 NGZF=  640
   support grid    NGXF=   672 NGYF=  672 NGZF= 1280
   ions per type =               5  73
   NGX,Y,Z   is equivalent  to a cutoff of  19.21, 19.21, 19.82 a.u.
   NGXF,Y,Z  is equivalent  to a cutoff of  38.43, 38.43, 39.63 a.u.

 SYSTEM =  a-Si SPC                                
 POSCAR =   H Si                                   

 Startparameter for this run:
   NWRITE =      2    write-flag & timer
   PREC   = accura    normal or accurate (medium, high low for compatibility)
   ISTART =      1    job   : 0-new  1-cont  2-samecut
   ICHARG =      1    charge: 1-file 2-atom 10-const
   ISPIN  =      1    spin polarized calculation?
   LNONCOLLINEAR =      F non collinear calculations
   LSORBIT =      F    spin-orbit coupling
   INIWAV =      1    electr: 0-lowe 1-rand  2-diag
   LASPH  =      T    aspherical Exc in radial PAW
 Electronic Relaxation 1
   ENCUT  = 1200.0 eV  88.20 Ry    9.39 a.u.  41.06 41.06 75.82*2*pi/ulx,y,z
   ENINI  = 1200.0     initial cutoff
   ENAUG  =  400.0 eV  augmentation charge cutoff
   NELM   =    150;   NELMIN=  2; NELMDL=  0     # of ELM steps 
   EDIFF  = 0.1E-05   stopping-criterion for ELM
   LREAL  =      F    real-space projection
   NLSPLINE    = F    spline interpolate recip. space projectors
   LCOMPAT=      F    compatible to vasp.4.4
   GGA_COMPAT  = T    GGA compatible to vasp.4.4-vasp.4.6
   LMAXPAW     = -100 max onsite density
   LMAXMIX     =    2 max onsite mixed and CHGCAR
   VOSKOWN=      0    Vosko Wilk Nusair interpolation
   ROPT   =    0.00000   0.00000
 Ionic relaxation
   EDIFFG = -.1E-01   stopping-criterion for IOM
   NSW    =      0    number of steps for IOM
   NBLOCK =      1;   KBLOCK =      1    inner block; outer block 
   IBRION =     -1    ionic relax: 0-MD 1-quasi-New 2-CG
   NFREE  =      0    steps in history (QN), initial steepest desc. (CG)
   ISIF   =      2    stress and relaxation
   IWAVPR =     10    prediction:  0-non 1-charg 2-wave 3-comb
   ISYM   =      1    0-nonsym 1-usesym 2-fastsym
   LCORR  =      T    Harris-Foulkes like correction to forces

   POTIM  = 0.5000    time-step for ionic-motion
   TEIN   =    0.0    initial temperature
   TEBEG  =    0.0;   TEEND  =   0.0 temperature during run
   SMASS  =  -3.00    Nose mass-parameter (am)
   estimated Nose-frequenzy (Omega)   =  0.10E-29 period in steps = 0.13E+47 mass=  -0.483E-26a.u.
   SCALEE = 1.0000    scale energy and forces
   NPACO  =    256;   APACO  = 10.0  distance and # of slots for P.C.
   PSTRESS=    0.0 pullay stress

  Mass of Ions in am
   POMASS =   1.00 28.09
  Ionic Valenz
   ZVAL   =   1.00  4.00
  Atomic Wigner-Seitz radii
   RWIGS  =  -1.00 -1.00
  virtual crystal weights 
   VCA    =   1.00  1.00
   NELECT =     297.0000    total number of electrons
   NUPDOWN=      -1.0000    fix difference up-down

 DOS related values:
   EMIN   =  10.00;   EMAX   =-10.00  energy-range for DOS
   EFERMI =   0.00;   METHOD = LEGACY      
   ISMEAR =     0;   SIGMA  =   0.10  broadening in eV -4-tet -1-fermi 0-gaus
   EFERMI_NEDOS =   21; number of points for ismear=-14 and -15

 Electronic relaxation 2 (details)
   IALGO  =     38    algorithm
   LDIAG  =      F    sub-space diagonalisation (order eigenvalues)
   LSUBROT=      F    optimize rotation matrix (better conditioning)
   TURBO    =      0    0=normal 1=particle mesh
   IRESTART =      0    0=no restart 2=restart with 2 vectors
   NREBOOT  =      0    no. of reboots
   NMIN     =      0    reboot dimension
   EREF     =   0.00    reference energy to select bands
   IMIX   =      4    mixing-type and parameters
     AMIX     =   0.40;   BMIX     =  1.00
     AMIX_MAG =   1.60;   BMIX_MAG =  1.00
     AMIN     =   0.10
     WC   =   100.;   INIMIX=   1;  MIXPRE=   1;  MAXMIX= -45

 Intra band minimization:
   WEIMIN = 0.0000     energy-eigenvalue tresh-hold
   EBREAK =  0.13E-08  absolut break condition
   DEPER  =   0.30     relativ break condition  

   TIME   =   0.40     timestep for ELM

  volume/ion in A,a.u.               =      72.71       490.69
  Fermi-wavevector in a.u.,A,eV,Ry     =   0.612479  1.157417  5.103958  0.375130
  Thomas-Fermi vector in A             =   1.668781

 Write flags
   LWAVE        =      F    write WAVECAR
   LDOWNSAMPLE  =      F    k-point downsampling of WAVECAR
   LCHARG       =      F    write CHGCAR
   LVTOT        =      F    write LOCPOT, total local potential
   LVHAR        =      F    write LOCPOT, Hartree potential only
   WRT_POTENTIAL= false  ! write potential to hdf5 file
   LELF         =      F    write electronic localiz. function (ELF)
   LORBIT       =     11    0 simple, 1 ext, 2 COOP (PROOUT), +10 PAW based schemes


 Python interface
   PLUGINS active      =      F    recompile with -DPLUGINS to activate

 Dipole corrections
   LMONO      =      F    monopole corrections only (constant potential shift)
   LDIPOL     =      F    correct potential (dipole corrections)
   IDIPOL     =      0    1-x, 2-y, 3-z, 4-all directions 
   EPSILON    =  1.0000000 bulk dielectric constant
   LVACPOTAV  =      F  vacuum potentials using an averaging scheme for the charge density
   VACPOTFLAT =  0.1000000 required flatness to determine vacuum potential

Coulomb truncation method
  LTRUNCATE          =      F  Coulomb kernel truncation to be used
  IDIMENSIONALITY    =      3  Dimensionality of cutoff (0 molecules / 2 surfaces)
  ISURFACE           =     -1  Direction of surface normal
  LCOARSEN           =      F  Coarsen the charge grid before padding, preferred


 Exchange correlation treatment:
   METAGGA = SCAN    functional components
   XC_C    = 1    coefficients multiplying the functional components
   LIBXC   =     F    Libxc                    
   VOSKOWN =     0    Vosko Wilk Nusair interpolation
   LHFCALC =     F    Hartree Fock is set to
   LHFONE  =     F    Hartree Fock one center treatment
   AEXX    =    0.0000 exact exchange contribution

 Parameters of functionals:
   SCAN:
     P1 =  0.000000E+00
     P2 =  0.000000E+00
     P3 =  0.000000E+00

 Accuracy and mixing parameters for tau-dependent meta-GGA functionals:
   LMAXTAU = 6
   LMIXTAU = T

 Van der Waals corrections
   IVDW    =     0    specifies the selected vdW correction

 Linear response parameters
   LEPSILON=     F    determine dielectric tensor
   LRPA    =     F    only Hartree local field effects (RPA)
   LNABLA  =     F    use nabla operator in PAW spheres
   LVEL    =     F    velocity operator in full k-point grid
   CSHIFT  =0.1000    complex shift for real part using Kramers Kronig
   OMEGAMAX=  -1.0    maximum frequency
   DEG_THRESHOLD= 0.2000000E-02 threshold for treating states as degnerate
   RTIME   =   -0.100 relaxation time in fs
  (WPLASMAI=    0.000 imaginary part of plasma frequency in eV, 0.658/RTIME)
   DFIELD  = 0.0000000 0.0000000 0.0000000 field for delta impulse in time

  Optional k-point grid parameters
   LKPOINTS_OPT  =     F    use optional k-point grid
   KPOINTS_OPT_MODE=     1    mode for optional k-point grid

 Orbital magnetization related:
   ORBITALMAG=     F  switch on orbital magnetization
   LCHIMAG   =     F  perturbation theory with respect to B field
   DQ        =  0.001000  dq finite difference perturbation B field
   LLRAUG    =     F  two centre corrections for induced B field
   LBONE     =     F  B-component reconstruction in AE one-centre
   LVGVCALC  =     T  calculate vGv susceptibility
   LVGVAPPL  =     F  apply vGv susceptibility instead of pGv for G=0

 Random number generation:
   RANDOM_GENERATOR = DEFAULT
   PCG_SEED         = not used


--------------------------------------------------------------------------------------------------------


 Static calculation
 charge density and potential will be updated during run
 non-spin polarized calculation
 Variant of blocked Davidson
 perform Loewdin sub-space diagonalisation
    ordering is kept fixed
    before iterative eigenvector-optimisation
 modified Broyden-mixing scheme, WC =      100.0
 initial mixing is a Kerker type mixing with AMIX =  0.4000 and BMIX =      1.0000
 Hartree-type preconditioning will be used
 using additional bands           43
 reciprocal scheme for non local part
 use partial core corrections
 calculate Harris-corrections to forces   (improved forces if not selfconsistent)
 use gradient corrections 
 use of overlap-Matrix (Vanderbilt PP)
 Gauss-broadening in eV      SIGMA  =   0.10


--------------------------------------------------------------------------------------------------------


  energy-cutoff  :     1200.00
  volume of cell :     5671.63
      direct lattice vectors                 reciprocal lattice vectors
    14.535360045  0.000000000  0.000000000     0.068797745  0.000000000  0.000000000
     0.000000000 14.535360045  0.000000000     0.000000000  0.068797745  0.000000000
     0.000000000  0.000000000 26.844548700     0.000000000  0.000000000  0.037251511

  length of vectors
    14.535360045 14.535360045 26.844548700     0.068797745  0.068797745  0.037251511



 old parameters found on file WAVECAR:
  energy-cutoff  :     1200.00
  volume of cell :     5671.63
      direct lattice vectors                 reciprocal lattice vectors
    14.535360045  0.000000000  0.000000000     0.068797745  0.000000000  0.000000000
     0.000000000 14.535360045  0.000000000     0.000000000  0.068797745  0.000000000
     0.000000000  0.000000000 26.844548700     0.000000000  0.000000000  0.037251511

  length of vectors


 k-points in units of 2pi/SCALE and weight: read from INCAR                         
   0.00000000  0.00000000  0.00000000       0.125
   0.03439887  0.00000000  0.00000000       0.125
   0.00000000  0.03439887  0.00000000       0.125
   0.03439887  0.03439887  0.00000000       0.125
   0.00000000  0.00000000  0.01862576       0.125
   0.03439887  0.00000000  0.01862576       0.125
   0.00000000  0.03439887  0.01862576       0.125
   0.03439887  0.03439887  0.01862576       0.125

 k-points in reciprocal lattice and weights: read from INCAR                         
   0.00000000  0.00000000  0.00000000       0.125
   0.50000000  0.00000000  0.00000000       0.125
   0.00000000  0.50000000  0.00000000       0.125
   0.50000000  0.50000000  0.00000000       0.125
   0.00000000  0.00000000  0.50000000       0.125
   0.50000000  0.00000000  0.50000000       0.125
   0.00000000  0.50000000  0.50000000       0.125
   0.50000000  0.50000000  0.50000000       0.125

 position of ions in fractional coordinates (direct lattice) 
   0.14471229  0.33188577  0.55013560
   0.76922878  0.17129446  0.44766947
   0.92720635  0.76338805  0.53810615
   0.96329969  0.36668726  0.59354829
   0.56962839  0.13326681  0.35459562
   0.83579118  0.47984059  0.41933117
   0.61509742  0.90395215  0.57002850
   0.52438486  0.77380220  0.60015211
   0.11018059  0.31081490  0.49894296
   0.92256031  0.82953626  0.41998660
   0.96718808  0.45280328  0.56361541
   0.60566998  0.08013426  0.46563528
   0.85646500  0.08010152  0.61303850
   0.02103917  0.57861716  0.60696888
   0.07684574  0.89271576  0.59571724
   0.68579807  0.96554615  0.42191493
   0.58088906  0.70769912  0.42503436
   0.72933786  0.80257365  0.53237890
   0.83118358  0.59654763  0.47990724
   0.98610970  0.53896744  0.41779922
   0.89478331  0.33578146  0.43254540
   0.70925855  0.43852548  0.58065518
   0.81400341  0.23726211  0.48310829
   0.50277702  0.39812377  0.40910798
   0.40238889  0.51219096  0.43332801
   0.41539753  0.58850068  0.62108548
   0.06413746  0.15434537  0.50234031
   0.62412091  0.16371522  0.53959488
   0.17797101  0.84554630  0.39509709
   0.09295782  0.86650880  0.50881821
   0.21012086  0.93813831  0.55257230
   0.42920948  0.25111073  0.41287605
   0.69023268  0.67097146  0.48645723
   0.36175883  0.28879755  0.48855630
   0.54271904  0.94359239  0.49542428
   0.83235594  0.53634932  0.56285874
   0.86185559  0.78321032  0.58024461
   0.39921587  0.96059037  0.53180306
   0.22497229  0.10564373  0.40688478
   0.45716700  0.37905175  0.54016203
   0.28895752  0.95860819  0.40184414
   0.09456264  0.71024346  0.49372040
   0.51060557  0.11521838  0.39887004
   0.71648875  0.04075148  0.57199030
   0.34561831  0.47380336  0.57504017
   0.46101461  0.64393012  0.47034108
   0.05282599  0.92537905  0.43192642
   0.99618683  0.41919650  0.47976580
   0.95679581  0.68408940  0.45374472
   0.25576931  0.56240081  0.52303009
   0.47392619  0.00118976  0.60613270
   0.69029655  0.31030648  0.52366147
   0.84725542  0.99818996  0.52267849
   0.47793238  0.30005863  0.61775047
   0.20105937  0.69416892  0.42894973
   0.44577665  0.96643395  0.38715064
   0.50950330  0.63581976  0.55654480
   0.20496109  0.78221799  0.60666016
   0.47948421  0.15324345  0.58046289
   0.27858308  0.25070258  0.38254137
   0.14576053  0.64541802  0.56772809
   0.62791732  0.54286822  0.52968694
   0.32778564  0.81796846  0.54374059
   0.79869535  0.88716920  0.46600974
   0.91903989  0.93160951  0.59400005
   0.58197433  0.41027134  0.48565956
   0.19803265  0.09850548  0.54486436
   0.91095105  0.14370861  0.53328830
   0.23170524  0.34927366  0.44768326
   0.87870338  0.64516164  0.62291185
   0.55797087  0.86652261  0.42017919
   0.29088108  0.03396805  0.48149179
   0.31713769  0.32681001  0.61098275
   0.36689231  0.74248127  0.61982314
   0.24224225  0.51364188  0.43972748
   0.31739523  0.69939264  0.48645927
   0.32766255  0.19537035  0.55576279
   0.06929382  0.08520252  0.42386142

 position of ions in cartesian coordinates  (Angst):
   2.10344521  4.82407921 14.76814197
  11.18101722  2.48982665 12.01748479
  13.47727820 11.09612013 14.44521671
  14.00190782  5.32993137 15.93353595
   8.27975381  1.93708102  9.51895941
  12.14852574  6.97465569 11.25675597
   8.94066247 13.13926994 15.30215778
   7.62212281 11.24749357 16.11081246
   1.60151453  4.51780645 13.39389855
  13.40974632 12.05760814 11.27435072
  14.05842696  6.58165875 15.13000136
   8.80363118  1.16478033 12.49976888
  12.44902709  1.16430443 16.45674182
   0.30581187  8.41040881 16.29380575
   1.11698052 12.97594500 15.99176033
   9.96832181 14.03456094 11.32611592
   8.44343163 10.28666145 11.40985560
  10.60118834 11.66569692 14.29147141
  12.08155261  8.67103465 12.88289337
  14.33345949  7.83408580 11.21563143
  13.00599759  4.88070449 11.61148605
  10.30932838  6.37412576 15.58742613
  11.83183260  3.44869025 12.96882390
   7.30804506  5.78687228 10.98231906
   5.84886736  7.44488008 11.63249484
   6.03795263  8.55406930 16.67275947
   0.93226107  2.24346555 13.48509897
   9.07182215  2.37965973 14.48518109
   2.58687269 12.29031986 10.60620317
   1.35117539 12.59501737 13.65899519
   3.05418237 13.63617815 14.83355400
   6.23871436  3.64998489 11.08347130
  10.03278052  9.75281169 13.05872484
   5.25829481  4.19777634 13.11507336
   7.88861660 13.71545514 13.29944132
  12.09859329  7.79603048 15.10968890
  12.52738128 11.38424406 15.57640478
   5.80274634 13.96252693 14.27601320
   3.27005329  1.53556969 10.92263841
   6.64508693  5.50965373 14.50040595
   4.20010162 13.93371521 10.78732457
   1.37450206 10.32364441 13.25370126
   7.42183581  1.67474063 10.70748610
  10.41442201  0.59233744 15.35482159
   5.02368662  6.88690237 15.43669385
   6.70101338  9.35975620 12.62609416
   0.76784472 13.45071769 11.59486995
  14.47993425  6.09317208 12.87909643
  13.90737164  9.94348579 12.18057221
   3.71769907  8.17469822 14.04050678
   6.88868781  0.01729366 16.27135881
  10.03370882  4.51041636 14.05745581
  12.31516259 14.50905045 14.03106819
   6.94691929  4.36146026 16.58323259
   2.92247027 10.08999517 11.51496201
   6.47952413 14.04746541 10.39288419
   7.40581397  9.24186909 14.94019386
   2.97918322 11.36982019 16.28551810
   6.96947559  2.22744870 15.58226424
   4.04930531  3.64405220 10.26915041
   2.11868173  9.38138336 15.24040428
   9.12700432  7.89078508 14.21920690
   4.76448225 11.88946601 14.59647088
  11.60932445 12.89532380 12.50982127
  13.35857576 13.54127958 15.94566322
   8.45920647  5.96344170 13.03731162
   2.87847580  1.43181261 14.62663792
  13.24100146  2.08885639 14.31588364
   3.36791914  5.07681838 12.01785501
  12.77227003  9.37765672 16.72178755
   8.11030754 12.59521810 11.27952071
   4.22806128  0.49373781 12.92542983
   4.60971045  4.75030111 16.40155618
   5.33291179 10.79223263 16.63887257
   3.52107838  7.46596962 11.80428574
   4.61345389 10.16592382 13.05877963
   4.76269312  2.83977844 14.91920120
   1.00721069  1.23844932 11.37836853



--------------------------------------------------------------------------------------------------------


 k-point     1 :   0.0000 0.0000 0.0000  plane waves:  535247
 k-point     2 :   0.5000 0.0000 0.0000  plane waves:  535334
 k-point     3 :   0.0000 0.5000 0.0000  plane waves:  535334
 k-point     4 :   0.5000 0.5000 0.0000  plane waves:  535572
 k-point     5 :   0.0000 0.0000 0.5000  plane waves:  535032
 k-point     6 :   0.5000 0.0000 0.5000  plane waves:  535312
 k-point     7 :   0.0000 0.5000 0.5000  plane waves:  535312
 k-point     8 :   0.5000 0.5000 0.5000  plane waves:  535392

 maximum and minimum number of plane-waves per node :     33512    33393

 maximum number of plane-waves:    535572
 maximum index in each direction: 
   IXMAX=   41   IYMAX=   41   IZMAX=   75
   IXMIN=  -41   IYMIN=  -41   IZMIN=  -76


 parallel 3D FFT for wavefunctions:
    minimum data exchange during FFTs selected (reduces bandwidth)
 parallel 3D FFT for charge:
    minimum data exchange during FFTs selected (reduces bandwidth)


 total amount of memory used by VASP MPI-rank0   401872. kBytes
=======================================================================

   base                                    :      30000. kBytes
   nonl-proj                               :      76066. kBytes
   fftplans                                :     108827. kBytes
   grid                                    :      83991. kBytes
   one-center                              :         15. kBytes
   wavefun                                 :     102973. kBytes

     INWAV:  cpu time     31.0332: real time     31.0523
 Broyden mixing: mesh for mixing (old mesh)
   NGX = 83   NGY = 83   NGZ =151
  (NGX  =336   NGY  =336   NGZ  =640)
  gives a total of ****** points

 initial charge density was supplied:
 number of electron     296.9999999 magnetization 
 keeping initial charge density in first step


--------------------------------------------------------------------------------------------------------


 Maximum index for augmentation-charges        11657 (set IRDMAX)


--------------------------------------------------------------------------------------------------------


 First call to EWALD:  gamma=   0.099
 Maximum number of real-space cells   3x   3x   2
 Maximum number of reciprocal cells   2x   2x   4

    FEWALD:  cpu time      0.0126: real time      0.0126


--------------------------------------- Ionic step        1  -------------------------------------------




--------------------------------------- Iteration      1(   1)  ---------------------------------------


    POTLOK:  cpu time      2.1762: real time      2.1768
    SETDIJ:  cpu time      1.5318: real time      1.5335
    EDDIAG:  cpu time     63.4834: real time     63.5193
     EDDAV:  cpu time    280.3663: real time    280.5269
       DOS:  cpu time      0.0073: real time      0.0075
    CHARGE:  cpu time     35.7782: real time     35.8098
    MIXING:  cpu time      0.0491: real time      0.0497
    --------------------------------------------
      LOOP:  cpu time    383.3924: real time    383.6236

 eigenvalue-minimisations  :  3072
 total energy-change (2. order) :-0.7485012E+03  (-0.8377353E+00)
 number of electron     296.9999999 magnetization 
 augmentation part      -16.5720309 magnetization 

 Broyden mixing:
  rms(total) = 0.10404E+01    rms(broyden)= 0.24217E+02
  rms(prec ) = 0.10698E+01
  weight for this iteration     100.00
  WARNING: grid for Broyden might be to small

 Free energy of the ion-electron system (eV)
  ---------------------------------------------------
  alpha Z        PSCENC =        32.80897688
  Ewald energy   TEWEN  =     40318.30542149
  -Hartree energ DENC   =    -46892.56076367
  -exchange      EXHF   =         0.00000000
  -V(xc)+E(xc)   XCENC  =      -345.12786232
  PAW double counting   =     27286.36778714   -26558.50560428
  entropy T*S    EENTRO =        -0.16412144
  eigenvalues    EBANDS =     -2175.94588977
  atomic energy  EATOM  =      7586.32082211
  Solvation  Ediel_sol  =         0.00000000
  ---------------------------------------------------
  free energy    TOTEN  =      -748.50123387 eV

  energy without entropy =     -748.33711243  energy(sigma->0) =     -748.41917315


--------------------------------------------------------------------------------------------------------




--------------------------------------- Iteration      1(   2)  ---------------------------------------


    POTLOK:  cpu time      2.1287: real time      2.1474
    SETDIJ:  cpu time      1.5307: real time      1.5314
    EDDIAG:  cpu time     63.4521: real time     63.4893
     EDDAV:  cpu time    283.1684: real time    283.3386
       DOS:  cpu time      0.0036: real time      0.0036
    CHARGE:  cpu time     35.6630: real time     35.6948
    MIXING:  cpu time      0.0435: real time      0.0436
    --------------------------------------------
      LOOP:  cpu time    385.9899: real time    386.2487

 eigenvalue-minimisations  :  3136
 total energy-change (2. order) : 0.5185267E+02  (-0.8171922E+00)
 number of electron     296.9999999 magnetization 
 augmentation part      -16.5063371 magnetization 

 Broyden mixing:
  rms(total) = 0.70855E+00    rms(broyden)= 0.13951E+02
  rms(prec ) = 0.72318E+00
  weight for this iteration     100.00
  WARNING: grid for Broyden might be to small

 eigenvalues of (default mixing * dielectric matrix)
  average eigenvalue GAMMA=   0.6346
  0.6346

 Free energy of the ion-electron system (eV)
  ---------------------------------------------------
  alpha Z        PSCENC =        32.80897688
  Ewald energy   TEWEN  =     40318.30542149
  -Hartree energ DENC   =    -46880.67269926
  -exchange      EXHF   =         0.00000000
  -V(xc)+E(xc)   XCENC  =      -338.07417632
  PAW double counting   =     32538.67032747   -31810.63352929
  entropy T*S    EENTRO =        -0.16207727
  eigenvalues    EBANDS =     -2143.21163121
  atomic energy  EATOM  =      7586.32082211
  Solvation  Ediel_sol  =         0.00000000
  ---------------------------------------------------
  free energy    TOTEN  =      -696.64856540 eV

  energy without entropy =     -696.48648813  energy(sigma->0) =     -696.56752677


--------------------------------------------------------------------------------------------------------




--------------------------------------- Iteration      1(   3)  ---------------------------------------


    POTLOK:  cpu time      2.1295: real time      2.1496
    SETDIJ:  cpu time      1.5282: real time      1.5291
    EDDIAG:  cpu time     63.5021: real time     63.5405
     EDDAV:  cpu time    279.8996: real time    280.0604
       DOS:  cpu time      0.0029: real time      0.0029
    CHARGE:  cpu time     35.6731: real time     35.7048
    MIXING:  cpu time      0.0416: real time      0.0416
    --------------------------------------------
      LOOP:  cpu time    382.7770: real time    383.0289

 eigenvalue-minimisations  :  3072
 total energy-change (2. order) :-0.2534659E+01  (-0.6525526E+00)
 number of electron     296.9999999 magnetization 
 augmentation part      -16.4548149 magnetization 

 Broyden mixing:
  rms(total) = 0.28048E+00    rms(broyden)= 0.21472E+02
  rms(prec ) = 0.35607E+00
  weight for this iteration     100.00
  WARNING: grid for Broyden might be to small

 eigenvalues of (default mixing * dielectric matrix)
  average eigenvalue GAMMA=   0.7780
  0.9281  0.6279

 Free energy of the ion-electron system (eV)
  ---------------------------------------------------
  alpha Z        PSCENC =        32.80897688
  Ewald energy   TEWEN  =     40318.30542149
  -Hartree energ DENC   =    -46881.63700549
  -exchange      EXHF   =         0.00000000
  -V(xc)+E(xc)   XCENC  =      -340.30003080
  PAW double counting   =     38935.01816913   -38207.09129405
  entropy T*S    EENTRO =        -0.15668907
  eigenvalues    EBANDS =     -2142.45159495
  atomic energy  EATOM  =      7586.32082211
  Solvation  Ediel_sol  =         0.00000000
  ---------------------------------------------------
  free energy    TOTEN  =      -699.18322475 eV

  energy without entropy =     -699.02653569  energy(sigma->0) =     -699.10488022


--------------------------------------------------------------------------------------------------------




--------------------------------------- Iteration      1(   4)  ---------------------------------------


    POTLOK:  cpu time      2.1396: real time      2.1557
    SETDIJ:  cpu time      1.5243: real time      1.5254
    EDDIAG:  cpu time     63.4563: real time     63.4927
     EDDAV:  cpu time    286.3922: real time    286.5572
       DOS:  cpu time      0.0038: real time      0.0038
    CHARGE:  cpu time     35.6345: real time     35.6678
    MIXING:  cpu time      0.0422: real time      0.0422
    --------------------------------------------
      LOOP:  cpu time    389.1930: real time    389.4447

 eigenvalue-minimisations  :  3200
 total energy-change (2. order) : 0.3087442E+00  (-0.6711908E-01)
 number of electron     296.9999999 magnetization 
 augmentation part      -16.4503487 magnetization 

 Broyden mixing:
  rms(total) = 0.61247E-01    rms(broyden)= 0.19175E+01
  rms(prec ) = 0.80775E-01
  weight for this iteration     100.00
  WARNING: grid for Broyden might be to small

 eigenvalues of (default mixing * dielectric matrix)
  average eigenvalue GAMMA=   1.1392
  2.0810  0.7140  0.6226

 Free energy of the ion-electron system (eV)
  ---------------------------------------------------
  alpha Z        PSCENC =        32.80897688
  Ewald energy   TEWEN  =     40318.30542149
  -Hartree energ DENC   =    -46882.73142725
  -exchange      EXHF   =         0.00000000
  -V(xc)+E(xc)   XCENC  =      -340.94542918
  PAW double counting   =     43603.03725361   -42875.14769204
  entropy T*S    EENTRO =        -0.16607206
  eigenvalues    EBANDS =     -2140.35633410
  atomic energy  EATOM  =      7586.32082211
  Solvation  Ediel_sol  =         0.00000000
  ---------------------------------------------------
  free energy    TOTEN  =      -698.87448054 eV

  energy without entropy =     -698.70840848  energy(sigma->0) =     -698.79144451


--------------------------------------------------------------------------------------------------------




--------------------------------------- Iteration      1(   5)  ---------------------------------------


    POTLOK:  cpu time      2.1315: real time      2.1461
    SETDIJ:  cpu time      1.5397: real time      1.5404
    EDDIAG:  cpu time     63.4197: real time     63.4581
     EDDAV:  cpu time    314.7386: real time    314.9207
       DOS:  cpu time      0.0035: real time      0.0035
    CHARGE:  cpu time     35.6765: real time     35.7070
    MIXING:  cpu time      0.0425: real time      0.0425
    --------------------------------------------
      LOOP:  cpu time    417.5520: real time    417.8184

 eigenvalue-minimisations  :  3760
 total energy-change (2. order) :-0.3193583E-01  (-0.1025188E-01)
 number of electron     296.9999999 magnetization 
 augmentation part      -16.4506402 magnetization 

 Broyden mixing:
  rms(total) = 0.50243E-01    rms(broyden)= 0.60332E+00
  rms(prec ) = 0.69862E-01
  weight for this iteration     100.00
  WARNING: grid for Broyden might be to small

 eigenvalues of (default mixing * dielectric matrix)
  average eigenvalue GAMMA=   1.0915
  2.4371  0.8094  0.6221  0.4975

 Free energy of the ion-electron system (eV)
  ---------------------------------------------------
  alpha Z        PSCENC =        32.80897688
  Ewald energy   TEWEN  =     40318.30542149
  -Hartree energ DENC   =    -46883.00871384
  -exchange      EXHF   =         0.00000000
  -V(xc)+E(xc)   XCENC  =      -341.90706344
  PAW double counting   =     43159.22787482   -42431.31352681
  entropy T*S    EENTRO =        -0.15607916
  eigenvalues    EBANDS =     -2139.18412842
  atomic energy  EATOM  =      7586.32082211
  Solvation  Ediel_sol  =         0.00000000
  ---------------------------------------------------
  free energy    TOTEN  =      -698.90641637 eV

  energy without entropy =     -698.75033721  energy(sigma->0) =     -698.82837679


--------------------------------------------------------------------------------------------------------




--------------------------------------- Iteration      1(   6)  ---------------------------------------


    POTLOK:  cpu time      2.1358: real time      2.1549
    SETDIJ:  cpu time      1.5347: real time      1.5358
    EDDIAG:  cpu time     63.4468: real time     63.4859
     EDDAV:  cpu time    298.6472: real time    298.8231
       DOS:  cpu time      0.0120: real time      0.0124
    CHARGE:  cpu time     35.6549: real time     35.6869
    MIXING:  cpu time      0.0570: real time      0.0575
    --------------------------------------------
      LOOP:  cpu time    401.4884: real time    401.7565

 eigenvalue-minimisations  :  3432
 total energy-change (2. order) : 0.3934921E-02  (-0.4143052E-02)
 number of electron     296.9999999 magnetization 
 augmentation part      -16.4516666 magnetization 

 Broyden mixing:
  rms(total) = 0.25092E-01    rms(broyden)= 0.25322E+00
  rms(prec ) = 0.26738E-01
  weight for this iteration     100.00
  WARNING: grid for Broyden might be to small

 eigenvalues of (default mixing * dielectric matrix)
  average eigenvalue GAMMA=   1.0388
  2.5492  0.9742  0.6557  0.6223  0.3928

 Free energy of the ion-electron system (eV)
  ---------------------------------------------------
  alpha Z        PSCENC =        32.80897688
  Ewald energy   TEWEN  =     40318.30542149
  -Hartree energ DENC   =    -46882.98569741
  -exchange      EXHF   =         0.00000000
  -V(xc)+E(xc)   XCENC  =      -342.12338433
  PAW double counting   =     42995.58536298   -42267.66033205
  entropy T*S    EENTRO =        -0.16220375
  eigenvalues    EBANDS =     -2138.99144737
  atomic energy  EATOM  =      7586.32082211
  Solvation  Ediel_sol  =         0.00000000
  ---------------------------------------------------
  free energy    TOTEN  =      -698.90248145 eV

  energy without entropy =     -698.74027769  energy(sigma->0) =     -698.82137957


--------------------------------------------------------------------------------------------------------




--------------------------------------- Iteration      1(   7)  ---------------------------------------


    POTLOK:  cpu time      2.1516: real time      2.1530
    SETDIJ:  cpu time      1.5417: real time      1.5433
    EDDIAG:  cpu time     63.4772: real time     63.5164
     EDDAV:  cpu time    290.1260: real time    290.2991
       DOS:  cpu time      0.0033: real time      0.0033
    CHARGE:  cpu time     35.6373: real time     35.6706
    MIXING:  cpu time      0.0440: real time      0.0440
    --------------------------------------------
      LOOP:  cpu time    392.9811: real time    393.2297

 eigenvalue-minimisations  :  3272
 total energy-change (2. order) :-0.4695636E-03  (-0.1367631E-02)
 number of electron     296.9999999 magnetization 
 augmentation part      -16.4496992 magnetization 

 Broyden mixing:
  rms(total) = 0.12740E-01    rms(broyden)= 0.90636E-01
  rms(prec ) = 0.13988E-01
  weight for this iteration     100.00
  WARNING: grid for Broyden might be to small

 eigenvalues of (default mixing * dielectric matrix)
  average eigenvalue GAMMA=   1.0395
  2.5431  1.2199  0.8123  0.6221  0.6221  0.4173

 Free energy of the ion-electron system (eV)
  ---------------------------------------------------
  alpha Z        PSCENC =        32.80897688
  Ewald energy   TEWEN  =     40318.30542149
  -Hartree energ DENC   =    -46883.03357436
  -exchange      EXHF   =         0.00000000
  -V(xc)+E(xc)   XCENC  =      -341.99752840
  PAW double counting   =     42975.87575064   -42247.93837363
  entropy T*S    EENTRO =        -0.16243901
  eigenvalues    EBANDS =     -2139.08200673
  atomic energy  EATOM  =      7586.32082211
  Solvation  Ediel_sol  =         0.00000000
  ---------------------------------------------------
  free energy    TOTEN  =      -698.90295101 eV

  energy without entropy =     -698.74051200  energy(sigma->0) =     -698.82173151


--------------------------------------------------------------------------------------------------------




--------------------------------------- Iteration      1(   8)  ---------------------------------------


    POTLOK:  cpu time      2.1399: real time      2.1616
    SETDIJ:  cpu time      1.6095: real time      1.6110
    EDDIAG:  cpu time     63.4291: real time     63.4688
     EDDAV:  cpu time    299.0294: real time    299.1993
       DOS:  cpu time      0.0054: real time      0.0054
    CHARGE:  cpu time     35.6640: real time     35.6957
    MIXING:  cpu time      0.0437: real time      0.0437
    --------------------------------------------
      LOOP:  cpu time    401.9210: real time    402.1856

 eigenvalue-minimisations  :  3448
 total energy-change (2. order) :-0.1012548E-02  (-0.3269411E-03)
 number of electron     296.9999999 magnetization 
 augmentation part      -16.4490221 magnetization 

 Broyden mixing:
  rms(total) = 0.44845E-02    rms(broyden)= 0.49693E-01
  rms(prec ) = 0.58969E-02
  weight for this iteration     100.00
  WARNING: grid for Broyden might be to small

 eigenvalues of (default mixing * dielectric matrix)
  average eigenvalue GAMMA=   1.0428
  2.5353  1.5203  0.8665  0.4255  0.7078  0.6319  0.6121

 Free energy of the ion-electron system (eV)
  ---------------------------------------------------
  alpha Z        PSCENC =        32.80897688
  Ewald energy   TEWEN  =     40318.30542149
  -Hartree energ DENC   =    -46882.88819159
  -exchange      EXHF   =         0.00000000
  -V(xc)+E(xc)   XCENC  =      -341.91925023
  PAW double counting   =     43006.78491611   -42278.83754045
  entropy T*S    EENTRO =        -0.16228905
  eigenvalues    EBANDS =     -2139.31682882
  atomic energy  EATOM  =      7586.32082211
  Solvation  Ediel_sol  =         0.00000000
  ---------------------------------------------------
  free energy    TOTEN  =      -698.90396356 eV

  energy without entropy =     -698.74167450  energy(sigma->0) =     -698.82281903


--------------------------------------------------------------------------------------------------------




--------------------------------------- Iteration      1(   9)  ---------------------------------------


    POTLOK:  cpu time      2.1396: real time      2.1597
    SETDIJ:  cpu time      1.5351: real time      1.5358
    EDDIAG:  cpu time     63.4554: real time     63.4956
     EDDAV:  cpu time    296.1830: real time    296.3579
       DOS:  cpu time      0.0038: real time      0.0038
    CHARGE:  cpu time     35.6267: real time     35.6607
    MIXING:  cpu time      0.0450: real time      0.0450
    --------------------------------------------
      LOOP:  cpu time    398.9887: real time    399.2586

 eigenvalue-minimisations  :  3392
 total energy-change (2. order) :-0.5131369E-04  (-0.7166757E-04)
 number of electron     296.9999999 magnetization 
 augmentation part      -16.4490869 magnetization 

 Broyden mixing:
  rms(total) = 0.24655E-02    rms(broyden)= 0.13490E-01
  rms(prec ) = 0.29745E-02
  weight for this iteration     100.00
  WARNING: grid for Broyden might be to small

 eigenvalues of (default mixing * dielectric matrix)
  average eigenvalue GAMMA=   1.1324
  2.4673  2.4673  1.0684  0.8047  0.6646  0.6237  0.4304  0.5328

 Free energy of the ion-electron system (eV)
  ---------------------------------------------------
  alpha Z        PSCENC =        32.80897688
  Ewald energy   TEWEN  =     40318.30542149
  -Hartree energ DENC   =    -46882.77318266
  -exchange      EXHF   =         0.00000000
  -V(xc)+E(xc)   XCENC  =      -341.94070585
  PAW double counting   =     43020.16133553   -42292.21208266
  entropy T*S    EENTRO =        -0.16222180
  eigenvalues    EBANDS =     -2139.41237792
  atomic energy  EATOM  =      7586.32082211
  Solvation  Ediel_sol  =         0.00000000
  ---------------------------------------------------
  free energy    TOTEN  =      -698.90401487 eV

  energy without entropy =     -698.74179307  energy(sigma->0) =     -698.82290397


--------------------------------------------------------------------------------------------------------




--------------------------------------- Iteration      1(  10)  ---------------------------------------


    POTLOK:  cpu time      2.1320: real time      2.1512
    SETDIJ:  cpu time      1.5357: real time      1.5364
    EDDIAG:  cpu time     63.4757: real time     63.5141
     EDDAV:  cpu time    290.2998: real time    290.4683
       DOS:  cpu time      0.0031: real time      0.0031
    CHARGE:  cpu time     35.6296: real time     35.6767
    MIXING:  cpu time      0.0654: real time      0.0659
    --------------------------------------------
      LOOP:  cpu time    393.1416: real time    393.4160

 eigenvalue-minimisations  :  3272
 total energy-change (2. order) :-0.2498540E-04  (-0.4033949E-04)
 number of electron     296.9999999 magnetization 
 augmentation part      -16.4491841 magnetization 

 Broyden mixing:
  rms(total) = 0.15383E-02    rms(broyden)= 0.80241E-02
  rms(prec ) = 0.18262E-02
  weight for this iteration     100.00
  WARNING: grid for Broyden might be to small

 eigenvalues of (default mixing * dielectric matrix)
  average eigenvalue GAMMA=   1.1423
  2.6231  2.6231  1.0334  1.0334  0.7426  0.4314  0.6644  0.6198  0.5096

 Free energy of the ion-electron system (eV)
  ---------------------------------------------------
  alpha Z        PSCENC =        32.80897688
  Ewald energy   TEWEN  =     40318.30542149
  -Hartree energ DENC   =    -46882.62159182
  -exchange      EXHF   =         0.00000000
  -V(xc)+E(xc)   XCENC  =      -341.95492835
  PAW double counting   =     43020.21844185   -42292.26817986
  entropy T*S    EENTRO =        -0.16209910
  eigenvalues    EBANDS =     -2139.55090306
  atomic energy  EATOM  =      7586.32082211
  Solvation  Ediel_sol  =         0.00000000
  ---------------------------------------------------
  free energy    TOTEN  =      -698.90403986 eV

  energy without entropy =     -698.74194076  energy(sigma->0) =     -698.82299031


--------------------------------------------------------------------------------------------------------




--------------------------------------- Iteration      1(  11)  ---------------------------------------


    POTLOK:  cpu time      2.1405: real time      2.1567
    SETDIJ:  cpu time      1.5373: real time      1.5395
    EDDIAG:  cpu time     63.2293: real time     63.2674
     EDDAV:  cpu time    295.3399: real time    295.5078
       DOS:  cpu time      0.0114: real time      0.0122
    CHARGE:  cpu time     35.6945: real time     35.7250
    MIXING:  cpu time      0.0458: real time      0.0458
    --------------------------------------------
      LOOP:  cpu time    397.9983: real time    398.2540

 eigenvalue-minimisations  :  3376
 total energy-change (2. order) :-0.8800344E-04  (-0.2138540E-04)
 number of electron     296.9999999 magnetization 
 augmentation part      -16.4492746 magnetization 

 Broyden mixing:
  rms(total) = 0.68508E-03    rms(broyden)= 0.46368E-02
  rms(prec ) = 0.87390E-03
  weight for this iteration     100.00
  WARNING: grid for Broyden might be to small

 eigenvalues of (default mixing * dielectric matrix)
  average eigenvalue GAMMA=   1.1503
  2.7224  2.7224  1.2694  1.1154  0.8383  0.4289  0.6855  0.6254  0.5905  0.5049

 Free energy of the ion-electron system (eV)
  ---------------------------------------------------
  alpha Z        PSCENC =        32.80897688
  Ewald energy   TEWEN  =     40318.30542149
  -Hartree energ DENC   =    -46882.42912280
  -exchange      EXHF   =         0.00000000
  -V(xc)+E(xc)   XCENC  =      -341.96077213
  PAW double counting   =     43018.19249990   -42290.24116274
  entropy T*S    EENTRO =        -0.16218926
  eigenvalues    EBANDS =     -2139.73860131
  atomic energy  EATOM  =      7586.32082211
  Solvation  Ediel_sol  =         0.00000000
  ---------------------------------------------------
  free energy    TOTEN  =      -698.90412786 eV

  energy without entropy =     -698.74193861  energy(sigma->0) =     -698.82303323


--------------------------------------------------------------------------------------------------------




--------------------------------------- Iteration      1(  12)  ---------------------------------------


    POTLOK:  cpu time      2.1326: real time      2.1534
    SETDIJ:  cpu time      1.5291: real time      1.5302
    EDDIAG:  cpu time     63.4999: real time     63.5385
     EDDAV:  cpu time    286.8482: real time    287.0153
       DOS:  cpu time      0.0036: real time      0.0036
    CHARGE:  cpu time     35.6716: real time     35.7028
    MIXING:  cpu time      0.0462: real time      0.0462
    --------------------------------------------
      LOOP:  cpu time    389.7312: real time    389.9899

 eigenvalue-minimisations  :  3200
 total energy-change (2. order) :-0.1204368E-03  (-0.1258057E-04)
 number of electron     296.9999999 magnetization 
 augmentation part      -16.4492983 magnetization 

 Broyden mixing:
  rms(total) = 0.38334E-03    rms(broyden)= 0.24445E-02
  rms(prec ) = 0.54395E-03
  weight for this iteration     100.00
  WARNING: grid for Broyden might be to small

 eigenvalues of (default mixing * dielectric matrix)
  average eigenvalue GAMMA=   1.1642
  2.7872  2.7872  1.6172  1.0824  0.8291  0.8291  0.4284  0.6886  0.6154  0.6154
  0.5258

 Free energy of the ion-electron system (eV)
  ---------------------------------------------------
  alpha Z        PSCENC =        32.80897688
  Ewald energy   TEWEN  =     40318.30542149
  -Hartree energ DENC   =    -46882.27483675
  -exchange      EXHF   =         0.00000000
  -V(xc)+E(xc)   XCENC  =      -341.96574755
  PAW double counting   =     43016.58907369   -42288.63741146
  entropy T*S    EENTRO =        -0.16220196
  eigenvalues    EBANDS =     -2139.88834475
  atomic energy  EATOM  =      7586.32082211
  Solvation  Ediel_sol  =         0.00000000
  ---------------------------------------------------
  free energy    TOTEN  =      -698.90424830 eV

  energy without entropy =     -698.74204634  energy(sigma->0) =     -698.82314732


--------------------------------------------------------------------------------------------------------




--------------------------------------- Iteration      1(  13)  ---------------------------------------


    POTLOK:  cpu time      2.1341: real time      2.1538
    SETDIJ:  cpu time      1.5374: real time      1.5388
    EDDIAG:  cpu time     63.5000: real time     63.5381
     EDDAV:  cpu time    287.0295: real time    287.1967
       DOS:  cpu time      0.0041: real time      0.0041
    CHARGE:  cpu time     35.7319: real time     35.7659
    MIXING:  cpu time      0.0479: real time      0.0479
    --------------------------------------------
      LOOP:  cpu time    389.9850: real time    390.2453

 eigenvalue-minimisations  :  3200
 total energy-change (2. order) :-0.1053837E-03  (-0.9675317E-05)
 number of electron     296.9999999 magnetization 
 augmentation part      -16.4493390 magnetization 

 Broyden mixing:
  rms(total) = 0.24609E-03    rms(broyden)= 0.18913E-02
  rms(prec ) = 0.38501E-03
  weight for this iteration     100.00
  WARNING: grid for Broyden might be to small

 eigenvalues of (default mixing * dielectric matrix)
  average eigenvalue GAMMA=   1.1841
  2.9485  2.7698  1.9227  1.1901  0.9480  0.9060  0.4282  0.7119  0.6357  0.6357
  0.5565  0.5565

 Free energy of the ion-electron system (eV)
  ---------------------------------------------------
  alpha Z        PSCENC =        32.80897688
  Ewald energy   TEWEN  =     40318.30542149
  -Hartree energ DENC   =    -46882.16436009
  -exchange      EXHF   =         0.00000000
  -V(xc)+E(xc)   XCENC  =      -341.97078751
  PAW double counting   =     43017.12808787   -42289.17657500
  entropy T*S    EENTRO =        -0.16219280
  eigenvalues    EBANDS =     -2139.99374662
  atomic energy  EATOM  =      7586.32082211
  Solvation  Ediel_sol  =         0.00000000
  ---------------------------------------------------
  free energy    TOTEN  =      -698.90435368 eV

  energy without entropy =     -698.74216088  energy(sigma->0) =     -698.82325728


--------------------------------------------------------------------------------------------------------




--------------------------------------- Iteration      1(  14)  ---------------------------------------


    POTLOK:  cpu time      2.1484: real time      2.1498
    SETDIJ:  cpu time      1.5334: real time      1.5341
    EDDIAG:  cpu time     63.5205: real time     63.5576
     EDDAV:  cpu time    287.1570: real time    287.3238
       DOS:  cpu time      0.0028: real time      0.0028
    CHARGE:  cpu time     35.6674: real time     35.6989
    MIXING:  cpu time      0.0487: real time      0.0487
    --------------------------------------------
      LOOP:  cpu time    390.0783: real time    390.3156

 eigenvalue-minimisations  :  3200
 total energy-change (2. order) :-0.1073027E-03  (-0.1282505E-04)
 number of electron     296.9999999 magnetization 
 augmentation part      -16.4493704 magnetization 

 Broyden mixing:
  rms(total) = 0.15012E-03    rms(broyden)= 0.73244E-03
  rms(prec ) = 0.25851E-03
  weight for this iteration     100.00
  WARNING: grid for Broyden might be to small

 eigenvalues of (default mixing * dielectric matrix)
  average eigenvalue GAMMA=   1.2260
  3.1809  2.6952  2.2790  1.4607  1.0285  0.9035  0.9035  0.4282  0.6986  0.6457
  0.6147  0.5500  0.5500

 Free energy of the ion-electron system (eV)
  ---------------------------------------------------
  alpha Z        PSCENC =        32.80897688
  Ewald energy   TEWEN  =     40318.30542149
  -Hartree energ DENC   =    -46882.03927279
  -exchange      EXHF   =         0.00000000
  -V(xc)+E(xc)   XCENC  =      -341.97473945
  PAW double counting   =     43017.10044556   -42289.14916685
  entropy T*S    EENTRO =        -0.16219240
  eigenvalues    EBANDS =     -2140.11475554
  atomic energy  EATOM  =      7586.32082211
  Solvation  Ediel_sol  =         0.00000000
  ---------------------------------------------------
  free energy    TOTEN  =      -698.90446098 eV

  energy without entropy =     -698.74226858  energy(sigma->0) =     -698.82336478


--------------------------------------------------------------------------------------------------------




--------------------------------------- Iteration      1(  15)  ---------------------------------------


    POTLOK:  cpu time      2.1332: real time      2.1531
    SETDIJ:  cpu time      1.5283: real time      1.5293
    EDDIAG:  cpu time     63.5158: real time     63.5564
     EDDAV:  cpu time    287.0193: real time    287.1854
       DOS:  cpu time      0.0038: real time      0.0039
    CHARGE:  cpu time     35.7116: real time     35.7468
    MIXING:  cpu time      0.0487: real time      0.0487
    --------------------------------------------
      LOOP:  cpu time    389.9608: real time    390.2235

 eigenvalue-minimisations  :  3200
 total energy-change (2. order) :-0.1075038E-03  (-0.1258281E-04)
 number of electron     296.9999999 magnetization 
 augmentation part      -16.4493969 magnetization 

 Broyden mixing:
  rms(total) = 0.10109E-03    rms(broyden)= 0.11134E-02
  rms(prec ) = 0.16258E-03
  weight for this iteration     100.00
  WARNING: grid for Broyden might be to small

 eigenvalues of (default mixing * dielectric matrix)
  average eigenvalue GAMMA=   1.2443
  3.4048  2.5895  2.5895  1.5895  1.1328  0.9825  0.8830  0.4282  0.7662  0.7061
  0.5404  0.6268  0.5807  0.6005

 Free energy of the ion-electron system (eV)
  ---------------------------------------------------
  alpha Z        PSCENC =        32.80897688
  Ewald energy   TEWEN  =     40318.30542149
  -Hartree energ DENC   =    -46881.91121033
  -exchange      EXHF   =         0.00000000
  -V(xc)+E(xc)   XCENC  =      -341.97719451
  PAW double counting   =     43017.13975086   -42289.18869720
  entropy T*S    EENTRO =        -0.16219267
  eigenvalues    EBANDS =     -2140.24024512
  atomic energy  EATOM  =      7586.32082211
  Solvation  Ediel_sol  =         0.00000000
  ---------------------------------------------------
  free energy    TOTEN  =      -698.90456849 eV

  energy without entropy =     -698.74237581  energy(sigma->0) =     -698.82347215


--------------------------------------------------------------------------------------------------------




--------------------------------------- Iteration      1(  16)  ---------------------------------------


    POTLOK:  cpu time      2.1547: real time      2.1558
    SETDIJ:  cpu time      1.5275: real time      1.5286
    EDDIAG:  cpu time     63.5004: real time     63.5390
     EDDAV:  cpu time    285.3935: real time    285.5605
       DOS:  cpu time      0.0037: real time      0.0037
    CHARGE:  cpu time     35.6697: real time     35.7033
    MIXING:  cpu time      0.0505: real time      0.0505
    --------------------------------------------
      LOOP:  cpu time    388.3001: real time    388.5414

 eigenvalue-minimisations  :  3168
 total energy-change (2. order) :-0.6242552E-04  (-0.6066174E-05)
 number of electron     296.9999999 magnetization 
 augmentation part      -16.4494077 magnetization 

 Broyden mixing:
  rms(total) = 0.70734E-04    rms(broyden)= 0.17124E-02
  rms(prec ) = 0.10855E-03
  weight for this iteration     100.00
  WARNING: grid for Broyden might be to small

 eigenvalues of (default mixing * dielectric matrix)
  average eigenvalue GAMMA=   1.2865
  3.8027  2.7117  2.7117  1.7949  1.3476  1.0335  0.8762  0.8762  0.4282  0.7058
  0.5348  0.6273  0.6273  0.6100  0.6100

 Free energy of the ion-electron system (eV)
  ---------------------------------------------------
  alpha Z        PSCENC =        32.80897688
  Ewald energy   TEWEN  =     40318.30542149
  -Hartree energ DENC   =    -46881.83396671
  -exchange      EXHF   =         0.00000000
  -V(xc)+E(xc)   XCENC  =      -341.97762571
  PAW double counting   =     43017.22251426   -42289.27153421
  entropy T*S    EENTRO =        -0.16220065
  eigenvalues    EBANDS =     -2140.31703837
  atomic energy  EATOM  =      7586.32082211
  Solvation  Ediel_sol  =         0.00000000
  ---------------------------------------------------
  free energy    TOTEN  =      -698.90463091 eV

  energy without entropy =     -698.74243026  energy(sigma->0) =     -698.82353059


--------------------------------------------------------------------------------------------------------




[...]
   -.141E+02 0.346E+02 -.236E+03   0.139E+02 -.331E+02 0.239E+03   -.898E-01 -.170E+01 -.218E+01   -.180E-04 -.192E-04 -.124E-04
   -.125E+02 -.865E+01 0.687E+02   0.118E+02 0.907E+01 -.719E+02   0.600E+00 -.265E+00 0.294E+01   -.823E-05 0.110E-04 0.977E-05
   -.538E+02 -.120E+02 0.284E+03   0.543E+02 0.126E+02 -.283E+03   -.425E+00 -.669E+00 -.651E+00   -.347E-04 -.106E-04 0.144E-04
   -.118E+02 -.593E+01 0.229E+03   0.121E+02 0.541E+01 -.228E+03   0.213E-01 -.566E-01 -.102E+01   -.723E-05 -.187E-04 -.143E-04
   -.101E+02 0.320E+02 -.316E+03   0.120E+02 -.321E+02 0.317E+03   -.171E+01 -.956E-02 0.103E+00   -.318E-05 -.291E-04 0.107E-04
   0.346E+02 -.200E+02 -.139E+02   -.339E+02 0.198E+02 0.111E+02   -.724E+00 0.144E+00 0.257E+01   0.851E-05 0.308E-04 -.835E-05
   -.275E+02 -.323E+02 -.102E+03   0.270E+02 0.325E+02 0.101E+03   0.659E+00 -.579E-01 0.717E+00   -.204E-04 0.320E-04 0.440E-05
   0.787E+01 0.258E+02 0.303E+03   -.884E+01 -.239E+02 -.304E+03   0.855E+00 -.186E+01 0.118E+01   0.177E-05 -.321E-05 -.152E-04
   0.322E+02 -.192E+02 -.104E+01   -.318E+02 0.178E+02 0.258E+00   -.797E+00 0.109E+01 0.968E+00   -.516E-05 -.369E-05 -.763E-05
   0.150E+01 -.369E+02 -.155E+03   -.531E+01 0.368E+02 0.154E+03   0.363E+01 0.486E+00 0.134E+01   -.247E-05 0.954E-05 0.116E-04
   -.377E+02 -.793E+01 0.244E+03   0.351E+02 0.824E+01 -.242E+03   0.239E+01 -.177E+00 -.210E+01   -.515E-04 0.214E-04 0.666E-05
   -.814E+01 0.867E+01 0.831E+02   0.818E+01 -.911E+01 -.822E+02   -.347E+00 0.715E+00 -.949E+00   -.207E-04 -.101E-04 -.147E-04
   0.515E+01 0.232E+01 0.420E+02   -.409E+01 -.131E+01 -.416E+02   -.836E+00 -.611E+00 -.490E+00   0.536E-05 0.402E-05 -.148E-04
   -.417E+01 0.132E+02 0.296E+02   0.362E+01 -.114E+02 -.285E+02   0.348E+00 -.156E+01 -.117E+01   -.131E-06 0.192E-04 -.242E-04
   0.163E+02 0.239E+02 -.156E+03   -.148E+02 -.259E+02 0.157E+03   -.134E+01 0.173E+01 -.607E+00   -.124E-04 -.245E-04 0.159E-05
   0.154E+02 0.213E+01 -.221E+03   -.143E+02 -.349E+01 0.217E+03   -.103E+01 0.123E+01 0.383E+01   0.332E-06 -.171E-04 0.168E-04
   0.101E+01 -.106E+02 -.732E+02   0.180E+01 0.109E+02 0.735E+02   -.273E+01 -.351E-01 -.499E-01   0.125E-04 0.245E-04 -.389E-05
   0.285E+02 -.259E+02 0.261E+03   -.294E+02 0.261E+02 -.260E+03   0.768E+00 0.435E-01 -.154E+01   0.224E-04 0.604E-04 -.211E-04
   -.313E+02 -.654E+01 -.904E+02   0.304E+02 0.604E+01 0.899E+02   0.874E+00 0.361E+00 0.100E+01   -.154E-04 -.260E-04 0.372E-05
   -.262E+01 0.276E+02 0.274E+03   0.199E+01 -.265E+02 -.273E+03   0.676E+00 -.932E+00 -.140E+01   0.209E-04 0.348E-04 -.246E-04
   0.238E+02 0.273E+02 0.398E+02   -.237E+02 -.259E+02 -.404E+02   -.162E+00 -.145E+01 0.566E+00   0.372E-06 -.173E-04 -.206E-05
   -.217E+02 -.246E+02 0.260E+03   0.245E+02 0.255E+02 -.261E+03   -.259E+01 -.881E+00 0.473E+00   -.282E-04 0.192E-04 -.103E-05
   0.129E+01 -.249E+02 -.202E+03   0.602E+00 0.256E+02 0.201E+03   -.202E+01 -.807E+00 0.120E+01   -.108E-04 0.402E-04 0.774E-05
   0.330E+02 0.108E+02 -.196E+03   -.311E+02 -.101E+02 0.195E+03   -.172E+01 -.695E+00 0.914E+00   0.133E-04 -.270E-04 0.797E-05
   -.218E+02 -.150E+01 0.129E+03   0.208E+02 0.214E+01 -.130E+03   0.122E+01 -.443E+00 0.437E+00   -.534E-05 -.260E-04 -.134E-04
   0.451E+02 -.265E+02 0.213E+03   -.439E+02 0.259E+02 -.212E+03   -.131E+01 0.439E+00 -.162E+01   -.652E-05 0.130E-04 -.980E-05
   -.942E+01 0.137E+02 0.684E+02   0.833E+01 -.163E+02 -.679E+02   0.112E+01 0.286E+01 -.595E+00   0.146E-04 -.998E-05 -.804E-05
   0.163E+02 0.441E+01 0.165E+03   -.160E+02 -.483E+01 -.164E+03   -.186E+00 0.787E+00 -.115E+01   0.981E-05 -.139E-04 -.958E-05
   0.277E+02 0.400E+02 -.555E+02   -.273E+02 -.395E+02 0.555E+02   -.397E+00 -.398E+00 0.977E-01   0.209E-04 -.271E-04 0.676E-05
   -.188E+00 -.610E+01 -.301E+03   -.750E+00 0.545E+01 0.303E+03   0.780E+00 0.325E+00 -.159E+01   -.278E-05 0.289E-04 0.198E-04
   -.315E+02 0.181E+01 -.503E+02   0.323E+02 -.120E+01 0.499E+02   -.612E+00 -.465E+00 0.674E+00   -.119E-04 0.684E-05 0.473E-05
   -.185E+02 -.223E+02 -.577E+01   0.185E+02 0.229E+02 0.533E+01   0.407E+00 -.133E+00 0.356E+00   0.719E-05 0.308E-04 -.227E-05
   -.488E+02 -.713E+01 -.315E+03   0.476E+02 0.704E+01 0.313E+03   0.107E+01 0.307E+00 0.139E+01   -.223E-04 0.629E-05 -.200E-04
   0.502E+01 0.273E+02 0.262E+03   -.466E+01 -.255E+02 -.257E+03   -.446E+00 -.199E+01 -.471E+01   0.126E-04 -.323E-04 -.182E-04
   -.473E+01 0.232E+02 0.303E+03   0.520E+01 -.230E+02 -.305E+03   -.359E+00 -.381E+00 0.153E+01   -.535E-05 0.173E-04 -.115E-04
   -.313E+02 0.929E+01 -.133E+03   0.312E+02 -.105E+02 0.134E+03   -.239E-01 0.124E+01 -.115E+01   -.135E-04 -.314E-04 0.226E-05
   0.199E+02 -.213E+01 -.297E+03   -.209E+02 -.566E+00 0.297E+03   0.847E+00 0.212E+01 -.157E+00   0.239E-05 -.201E-04 0.296E-04
   -.148E+02 -.341E+01 -.208E+03   0.148E+02 0.232E+01 0.210E+03   -.779E-02 0.849E+00 -.103E+01   -.184E-04 0.596E-04 0.191E-05
   0.335E+02 -.255E+02 0.323E+03   -.330E+02 0.253E+02 -.323E+03   -.728E+00 -.972E-01 -.174E+00   0.673E-06 0.253E-04 -.164E-04
   0.161E+02 0.379E+02 -.187E+03   -.169E+02 -.380E+02 0.186E+03   0.111E+01 0.217E+00 0.161E+01   0.844E-05 -.272E-04 0.140E-04
   -.212E+02 0.106E+02 -.640E+02   0.211E+02 -.111E+02 0.650E+02   0.321E+00 0.117E+00 -.101E+01   -.184E-04 -.295E-04 0.441E-05
   -.139E+02 -.523E+01 -.846E+02   0.156E+02 0.413E+01 0.842E+02   -.147E+01 0.101E+01 0.188E+00   0.343E-05 -.205E-04 0.328E-05
   -.126E+02 -.207E+01 0.145E+03   0.125E+02 0.261E+01 -.144E+03   0.138E+00 -.788E+00 -.567E+00   -.930E-05 -.372E-05 -.221E-04
   -.125E+02 -.179E+02 -.253E+03   0.978E+01 0.176E+02 0.251E+03   0.272E+01 0.331E+00 0.203E+01   0.485E-05 0.150E-04 0.190E-04
   -.434E+02 0.699E+01 0.920E+02   0.422E+02 -.658E+01 -.906E+02   0.114E+01 -.683E-01 -.170E+01   -.199E-04 -.173E-04 0.527E-05
   0.447E+02 -.372E+02 -.161E+03   -.436E+02 0.368E+02 0.160E+03   -.933E+00 0.522E+00 0.122E+01   0.796E-05 0.477E-04 0.466E-05
   -.192E+02 -.478E+02 -.848E+02   0.181E+02 0.458E+02 0.833E+02   0.991E+00 0.167E+01 0.147E+01   -.864E-07 0.297E-04 0.525E-05
   0.446E+02 -.186E+02 0.165E+03   -.435E+02 0.164E+02 -.163E+03   -.986E+00 0.214E+01 -.203E+01   0.338E-04 -.331E-04 -.377E-04
   0.234E+02 0.457E+01 -.314E+03   -.244E+02 -.600E+01 0.313E+03   0.915E+00 0.104E+01 0.128E+01   -.951E-05 -.102E-04 0.302E-04
   -.853E+01 0.430E+02 0.251E+03   0.948E+01 -.417E+02 -.248E+03   -.948E+00 -.144E+01 -.357E+01   -.615E-05 -.708E-05 -.161E-04
   -.317E+01 -.174E+02 0.634E+02   0.337E+01 0.185E+02 -.626E+02   -.242E+00 -.625E+00 -.665E+00   0.108E-04 0.529E-04 -.313E-04
   0.698E+02 0.526E+01 -.295E+03   -.687E+02 -.608E+01 0.296E+03   -.871E+00 0.538E+00 -.303E+00   0.215E-04 -.104E-04 -.122E-06
   0.349E+01 -.107E+02 -.317E+03   -.253E+01 0.779E+01 0.314E+03   -.104E+01 0.255E+01 0.285E+01   0.468E-05 -.254E-04 0.342E-04
   0.430E+02 0.840E+01 0.219E+03   -.405E+02 -.100E+02 -.216E+03   -.278E+01 0.169E+01 -.335E+01   0.251E-04 -.325E-04 -.224E-04
   -.139E+02 -.133E+02 0.821E+02   0.144E+02 0.116E+02 -.828E+02   -.375E+00 0.189E+01 0.620E+00   0.204E-04 -.338E-04 -.108E-04
   0.360E+02 0.114E+02 -.158E+03   -.349E+02 -.884E+01 0.157E+03   -.123E+01 -.231E+01 0.216E+01   0.254E-04 0.489E-04 0.814E-05
   0.687E+02 -.329E+02 0.234E+03   -.685E+02 0.347E+02 -.235E+03   -.378E+00 -.139E+01 0.571E+00   0.145E-04 0.289E-04 -.836E-05
 -----------------------------------------------------------------------------------------------
   0.610E+01 -.132E+02 -.699E+01   0.114E-12 -.142E-13 0.341E-12   -.609E+01 0.132E+02 0.699E+01   -.355E-04 -.173E-05 -.131E-03


 POSITION                                       TOTAL-FORCE (eV/Angst)
 -----------------------------------------------------------------------------------
      2.10345      4.82408     14.76814        -0.050809      0.053850      0.052610
     11.18102      2.48983     12.01748        -0.007097     -0.044547      0.118486
     13.47728     11.09612     14.44522        -0.003403      0.159465     -0.120695
     14.00191      5.32993     15.93354         0.021863     -0.094023     -0.103694
      8.27975      1.93708      9.51896         0.059177     -0.011390     -0.011785
     12.14853      6.97466     11.25676         0.228834      0.048472      0.318980
      8.94066     13.13927     15.30216         0.233608      0.067944      0.134933
      7.62212     11.24749     16.11081        -0.190211      0.195121     -0.129557
      1.60151      4.51781     13.39390         0.117470     -0.174177     -0.126842
     13.40975     12.05761     11.27435        -0.227900      0.042048     -0.140334
     14.05843      6.58166     15.13000        -0.170578     -0.271349      0.009290
      8.80363      1.16478     12.49977        -0.046170      0.268700      0.055068
     12.44903      1.16430     16.45674        -0.079973     -0.127333      0.120562
      0.30581      8.41041     16.29381        -0.485967      0.424176     -0.286056
      1.11698     12.97594     15.99176         0.169061     -0.147598     -0.182982
      9.96832     14.03456     11.32612         0.022252     -0.081196     -0.022429
      8.44343     10.28666     11.40986         0.054557     -0.111785     -0.160211
     10.60119     11.66570     14.29147         0.011344     -0.154155     -0.034422
     12.08155      8.67103     12.88289         0.206474      0.008109      0.051571
     14.33346      7.83409     11.21563        -0.074150     -0.076459      0.190906
     13.00600      4.88070     11.61149         0.061599     -0.488241     -0.278612
     10.30933      6.37413     15.58743        -0.300230     -0.179317      0.359401
     11.83183      3.44869     12.96882        -0.117053      0.101558     -0.137936
      7.30805      5.78687     10.98232        -0.109772     -0.039281      0.056439
      5.84887      7.44488     11.63249         0.319151     -0.568112      0.138571
      6.03795      8.55407     16.67276         0.108660      0.023374      0.523858
      0.93226      2.24347     13.48510        -0.032934      0.040814     -0.031312
      9.07182      2.37966     14.48518         0.134966      0.060896     -0.230511
      2.58687     12.29032     10.60620        -0.020728     -0.098850     -0.059498
      1.35118     12.59502     13.65900        -0.330345     -0.173941      0.265561
      3.05418     13.63618     14.83355        -0.000443      0.399400     -0.033288
      6.23871      3.64998     11.08347        -0.059897      0.135156     -0.182491
     10.03278      9.75281     13.05872        -0.326209      0.305786     -0.068459
      5.25829      4.19778     13.11507         0.179377      0.355256     -0.080766
      7.88862     13.71546     13.29944        -0.167392      0.138155     -0.180012
     12.09859      7.79603     15.10969         0.155787     -0.140459     -0.012363
     12.52738     11.38424     15.57640         0.146374     -0.056550     -0.003335
      5.80275     13.96253     14.27601        -0.108424      0.182796      0.281888
      3.27005      1.53557     10.92264        -0.069580      0.082699     -0.377400
      6.64509      5.50965     14.50041        -0.110870     -0.166577      0.555826
      4.20010     13.93372     10.78732         0.090745      0.133965     -0.203191
      1.37450     10.32364     13.25370        -0.096451     -0.047793     -0.004788
      7.42184      1.67474     10.70749         0.092670     -0.026256     -0.111877
     10.41442      0.59234     15.35482        -0.191016     -0.131286      0.087684
      5.02369      6.88690     15.43669         0.127301     -0.033312     -0.235690
      6.70101      9.35976     12.62609         0.218366      0.158448     -0.091402
      0.76784     13.45072     11.59487        -0.079987     -0.191476     -0.105790
     14.47993      6.09317     12.87910         0.052402      0.397580     -0.135104
     13.90737      9.94349     12.18057         0.131852      0.377763      0.175267
      3.71770      8.17470     14.04051        -0.029162      0.151782      0.001318
      6.88869      0.01729     16.27136        -0.120305     -0.211846      0.160567
     10.03371      4.51042     14.05746         0.100996      0.104385      0.209095
     12.31516     14.50905     14.03107         0.446388      0.553914      0.098159
      6.94692      4.36146     16.58323        -0.325764      0.186902     -0.376025
      2.92247     10.09000     11.51496        -0.091877     -0.217071      0.141889
      6.47952     14.04747     10.39288         0.072743     -0.082794      0.070619
      7.40581      9.24187     14.94019        -0.173021      0.064373      0.122659
      2.97918     11.36982     16.28552        -0.015321     -0.405361      0.396426
      6.96948      2.22745     15.58226        -0.008844     -0.175832      0.247841
      4.04931      3.64405     10.26915        -0.223802     -0.433041      0.153670
      2.11868      9.38138     15.24040         0.315494      0.176668      0.010425
      9.12700      7.89079     14.21921         0.267143     -0.382302     -0.021217
      4.76448     11.88947     14.59647         0.022411     -0.031584     -0.085676
     11.60932     12.89532     12.50982         0.088855     -0.247711     -0.027728
     13.35858     13.54128     15.94566         0.205120      0.056024      0.065351
      8.45921      5.96344     13.03731        -0.006340      0.330087     -0.356719
      2.87848      1.43181     14.62664         0.191421      0.029942     -0.179373
     13.24100      2.08886     14.31588        -0.114678     -0.300745     -0.086002
      3.36792      5.07682     12.01786         0.043039      0.065352     -0.302751
     12.77227      9.37766     16.72179         0.114346     -0.345992      0.134250
      8.11031     12.59522     11.27952        -0.042874     -0.098977     -0.333725
      4.22806      0.49374     12.92543        -0.110576      0.340147      0.149051
      4.60971      4.75030     16.40156         0.407001     -0.248697     -0.081933
      5.33291     10.79223     16.63887        -0.106522     -0.205421      0.023274
      3.52108      7.46597     11.80429        -0.227053      0.140110     -0.031049
      4.61345     10.16592     13.05878         0.024041      0.243868      0.043602
      4.76269      2.83978     14.91920        -0.156426      0.199626      0.388460
      1.00721      1.23845     11.37837        -0.032729      0.218126     -0.148526
 -----------------------------------------------------------------------------------
    total drift:                                0.001333     -0.003123     -0.001130


--------------------------------------------------------------------------------------------------------



  FREE ENERGIE OF THE ION-ELECTRON SYSTEM (eV)
  ---------------------------------------------------
  free  energy   TOTEN  =      -698.90467879 eV

  energy  without entropy=     -698.74248021  energy(sigma->0) =     -698.82357950



--------------------------------------------------------------------------------------------------------


    POTLOK:  cpu time      3.6563: real time      3.6601


--------------------------------------------------------------------------------------------------------


     LOOP+:  cpu time   8802.9580: real time   8808.9019
    4ORBIT:  cpu time      0.0000: real time      0.0000



 total charge

# of ion       s       p       d       tot
------------------------------------------
    1        0.565   0.016   0.000   0.581
    2        0.567   0.015   0.000   0.583
    3        0.561   0.017   0.000   0.578
    4        0.566   0.015   0.000   0.581
    5        0.567   0.015   0.000   0.583
    6        0.815   0.839   0.000   1.654
    7        0.742   0.888   0.000   1.629
    8        0.827   0.775   0.000   1.602
    9        0.754   0.973   0.000   1.727
   10        0.794   0.858   0.000   1.653
   11        0.752   0.983   0.000   1.734
   12        0.763   0.942   0.000   1.705
   13        0.835   0.777   0.000   1.613
   14        0.796   0.867   0.000   1.663
   15        0.784   0.876   0.000   1.660
   16        0.812   0.855   0.000   1.667
   17        0.791   0.874   0.000   1.665
   18        0.766   0.912   0.000   1.678
   19        0.772   0.910   0.000   1.681
   20        0.822   0.813   0.000   1.635
   21        0.813   0.887   0.000   1.700
   22        0.818   0.826   0.000   1.644
   23        0.745   0.964   0.000   1.708
   24        0.796   0.855   0.000   1.651
   25        0.791   0.868   0.000   1.659
   26        0.813   0.863   0.000   1.676
   27        0.753   0.910   0.000   1.663
   28        0.763   0.903   0.000   1.666
   29        0.794   0.844   0.000   1.638
   30        0.776   0.924   0.000   1.700
   31        0.759   0.905   0.000   1.665
   32        0.754   0.941   0.000   1.696
   33        0.762   0.925   0.000   1.688
   34        0.775   0.910   0.000   1.685
   35        0.771   0.928   0.000   1.699
   36        0.759   0.920   0.000   1.679
   37        0.752   0.958   0.000   1.710
   38        0.775   0.927   0.000   1.701
   39        0.771   0.890   0.000   1.660
   40        0.775   0.907   0.000   1.682
   41        0.763   0.916   0.000   1.679
   42        0.766   0.958   0.000   1.724
   43        0.736   0.974   0.000   1.710
   44        0.768   0.873   0.000   1.641
   45        0.764   0.932   0.000   1.696
   46        0.757   0.945   0.000   1.702
   47        0.755   0.920   0.000   1.675
   48        0.748   0.931   0.000   1.680
   49        0.757   0.943   0.000   1.700
   50        0.760   0.931   0.000   1.691
   51        0.843   0.789   0.000   1.632
   52        0.754   0.913   0.000   1.666
   53        0.772   0.917   0.000   1.689
   54        0.824   0.813   0.000   1.637
   55        0.777   0.874   0.000   1.651
   56        0.780   0.866   0.000   1.646
   57        0.764   0.925   0.000   1.689
   58        0.796   0.800   0.000   1.596
   59        0.764   0.913   0.000   1.677
   60        0.804   0.850   0.000   1.655
   61        0.762   0.936   0.000   1.698
   62        0.764   0.929   0.000   1.693
   63        0.770   0.906   0.000   1.676
   64        0.767   0.921   0.000   1.688
   65        0.763   0.894   0.000   1.657
   66        0.774   0.888   0.000   1.662
   67        0.792   0.876   0.000   1.668
   68        0.754   0.912   0.000   1.666
   69        0.757   0.930   0.000   1.687
   70        0.795   0.868   0.000   1.663
   71        0.757   0.931   0.000   1.688
   72        0.786   0.874   0.000   1.659
   73        0.822   0.809   0.000   1.631
   74        0.788   0.841   0.000   1.629
   75        0.776   0.850   0.000   1.626
   76        0.764   0.960   0.000   1.725
   77        0.775   0.877   0.000   1.652
   78        0.792   0.874   0.000   1.665
--------------------------------------------------
tot         59.572  65.340   0.000 124.912


 total amount of memory used by VASP MPI-rank0   401872. kBytes
=======================================================================

   base                                    :      30000. kBytes
   nonl-proj                               :      76066. kBytes
   fftplans                                :     108827. kBytes
   grid                                    :      83991. kBytes
   one-center                              :         15. kBytes
   wavefun                                 :     102973. kBytes

  
  
 General timing and accounting informations for this job:
 ========================================================
  
                  Total CPU time used (sec):     8964.588
                            User time (sec):     7930.016
                          System time (sec):     1034.572
                         Elapsed time (sec):     8970.545
  
                   Maximum memory used (kb):      677968.
                   Average memory used (kb):          N/A
  
                          Minor page faults:     13562102
                          Major page faults:         1190
                 Voluntary context switches:         3276
