 vasp.6.5.0 16Dec24 (build Jan 20 2025 08:32:48) complex                         
 executed on        HPECrayEX_GCC date 2025.07.21  23:43:08
 running  128 mpi-ranks, with    1 threads/rank, on    1 nodes
 distrk:  each k-point on  128 cores,    1 groups
 distr:  one band on NCORE=  16 cores,    8 groups


--------------------------------------------------------------------------------------------------------


 INCAR:
   SYSTEM = a-Si SPC
   NCORE = 16
   ISTART = 1
   ICHARG = 1
   ISPIN = 1
   ISYM = 1
   EDIFF = 1E-6
   NELM = 150
   EDIFFG = -0.01
   NSW = 0
   ISIF = 2
   IBRION = -1
   PREC = Accurate
   ENCUT = 1200
   KSPACING = 0.23
   KGAMMA = .TRUE.
   METAGGA = SCAN
   LASPH = .TRUE.
   LDIAG = .FALSE.
   LMIXTAU = .TRUE.
   ADDGRID = .TRUE.
   ALGO = Normal
   ISMEAR = 0
   SIGMA = 0.1
   LORBIT = 11
   NEDOS = 2000
   LWAVE = .FALSE.
   LCHARG = .FALSE.

 POTCAR:    PAW_PBE H 15Jun2001                   
 POTCAR:    PAW_PBE Si 05Jan2001                  
 POTCAR:    PAW_PBE H 15Jun2001                   
   SHA256 =  030f79b5d3ab3cf0e668861823c8fb652ff669f3e15e46930bd03bfd63a607b6 H/POTCAR              
   COPYR  = (c) Copyright 15Jun2001 Georg Kresse                                                    
   COPYR  = This file is part of the software VASP. Any use, copying, and all other rights are regul
   COPYR  = If you do not have a valid VASP license, you may not use, copy or distribute this file. 
   VRHFIN =H: ultrasoft test                                                                        
   LEXCH  = PE                                                                                      
   EATOM  =    12.4884 eV,    0.9179 Ry                                                             
                                                                                                    
   TITEL  = PAW_PBE H 15Jun2001                                                                     
   LULTRA =        F    use ultrasoft PP ?                                                          
   IUNSCR =        0    unscreen: 0-lin 1-nonlin 2-no                                               
   RPACOR =    0.000    partial core radius                                                         
   POMASS =    1.000; ZVAL   =    1.000    mass and valenz                                          
   RCORE  =    1.100    outmost cutoff radius                                                       
   RWIGS  =    0.700; RWIGS  =    0.370    wigner-seitz radius (au A)                               
   ENMAX  =  250.000; ENMIN  =  200.000 eV                                                          
   RCLOC  =    0.701    cutoff for local pot                                                        
   LCOR   =        T    correct aug charges                                                         
   LPAW   =        T    paw PP                                                                      
   EAUG   =  400.000                                                                                
   RMAX   =    1.123    core radius for proj-oper                                                   
   RAUG   =    1.200    factor for augmentation sphere                                              
   RDEP   =    1.112    radius for radial grids                                                     
   RDEPT  =    0.926    core radius for aug-charge                                                  
                                                                                                    
   Atomic configuration                                                                             
    2 entries                                                                                       
     n  l   j            E        occ.                                                              
     1  0  0.50        -6.4927   1.0000                                                             
     2  1  0.50        -3.4015   0.0000                                                             
   Description                                                                                      
     l       E           TYP  RCUT    TYP  RCUT                                                     
     0     -6.4927494     23  1.100                                                                 
     0      6.8029130     23  1.100                                                                 
     1     -4.0817478     23  1.100                                                                 
  local pseudopotential read in
  atomic valenz-charges read in
  non local Contribution for L=           0  read in
    real space projection operators read in
  non local Contribution for L=           0  read in
    real space projection operators read in
  non local Contribution for L=           1  read in
    real space projection operators read in
    PAW grid and wavefunctions read in

   number of l-projection  operators is LMAX  =           3
   number of lm-projection operators is LMMAX =           5

 POTCAR:    PAW_PBE Si 05Jan2001                  
   SHA256 =  79d9987ad8750f624c4d6acb2a16d13abf6a777132adc04dc6c8399be72b42bb Si/POTCAR             
   COPYR  = (c) Copyright 05Jan2001 Georg Kresse                                                    
   COPYR  = This file is part of the software VASP. Any use, copying, and all other rights are regul
   COPYR  = If you do not have a valid VASP license, you may not use, copy or distribute this file. 
   VRHFIN =Si: s2p2                                                                                 
   LEXCH  = PE                                                                                      
   EATOM  =   103.0669 eV,    7.5752 Ry                                                             
                                                                                                    
   TITEL  = PAW_PBE Si 05Jan2001                                                                    
   LULTRA =        F    use ultrasoft PP ?                                                          
   IUNSCR =        1    unscreen: 0-lin 1-nonlin 2-no                                               
   RPACOR =    1.500    partial core radius                                                         
   POMASS =   28.085; ZVAL   =    4.000    mass and valenz                                          
   RCORE  =    1.900    outmost cutoff radius                                                       
   RWIGS  =    2.480; RWIGS  =    1.312    wigner-seitz radius (au A)                               
   ENMAX  =  245.345; ENMIN  =  184.009 eV                                                          
   ICORE  =        2    local potential                                                             
   LCOR   =        T    correct aug charges                                                         
   LPAW   =        T    paw PP                                                                      
   EAUG   =  322.069                                                                                
   DEXC   =    0.000                                                                                
   RMAX   =    1.950    core radius for proj-oper                                                   
   RAUG   =    1.300    factor for augmentation sphere                                              
   RDEP   =    1.993    radius for radial grids                                                     
   RDEPT  =    1.837    core radius for aug-charge                                                  
                                                                                                    
   Atomic configuration                                                                             
    6 entries                                                                                       
     n  l   j            E        occ.                                                              
     1  0  0.50     -1785.8828   2.0000                                                             
     2  0  0.50      -139.4969   2.0000                                                             
     2  1  1.50       -95.5546   6.0000                                                             
     3  0  0.50       -10.8127   2.0000                                                             
     3  1  0.50        -4.0811   2.0000                                                             
     3  2  1.50        -4.0817   0.0000                                                             
   Description                                                                                      
     l       E           TYP  RCUT    TYP  RCUT                                                     
     0    -10.8127223     23  1.900                                                                 
     0     -7.6451159     23  1.900                                                                 
     1     -4.0811372     23  1.900                                                                 
     1      2.4879257     23  1.900                                                                 
     2     -4.0817478      7  1.900                                                                 
  local pseudopotential read in
  partial core-charges read in
  partial kinetic energy density read in
  atomic valenz-charges read in
  non local Contribution for L=           0  read in
    real space projection operators read in
  non local Contribution for L=           0  read in
    real space projection operators read in
  non local Contribution for L=           1  read in
    real space projection operators read in
  non local Contribution for L=           1  read in
    real space projection operators read in
    PAW grid and wavefunctions read in

   number of l-projection  operators is LMAX  =           4
   number of lm-projection operators is LMMAX =           8

 -----------------------------------------------------------------------------
|                                                                             |
|               ----> ADVICE to this user running VASP <----                  |
|                                                                             |
|     You have a (more or less) 'large supercell' and for larger cells it     |
|     might be more efficient to use real-space projection operators.         |
|     Therefore, try LREAL= Auto in the INCAR file.                           |
|     Mind: For very accurate calculation, you might also keep the            |
|     reciprocal projection scheme (i.e. LREAL=.FALSE.).                      |
|                                                                             |
 -----------------------------------------------------------------------------

 -----------------------------------------------------------------------------
|                                                                             |
|               ----> ADVICE to this user running VASP <----                  |
|                                                                             |
|     You enforced a specific xc type in the INCAR file but a different       |
|     type was found in the POTCAR file.                                      |
|     I HOPE YOU KNOW WHAT YOU ARE DOING!                                     |
|                                                                             |
 -----------------------------------------------------------------------------

  PAW_PBE H 15Jun2001                   :
 energy of atom  1       EATOM=  -12.4884
 kinetic energy error for atom=    0.0000 (will be added to EATOM!!)
  PAW_PBE Si 05Jan2001                  :
 energy of atom  2       EATOM= -103.0669
 kinetic energy error for atom=    0.0001 (will be added to EATOM!!)


 POSCAR:  H Si
  positions in cartesian coordinates
  No initial velocities read in


 exchange-correlation table for SCAN
   RHO(1)=    0.500       N(1)  =     2000
   RHO(2)=  100.500       N(2)  =     4000



--------------------------------------------------------------------------------------------------------


 ion  position               nearest neighbor table
   1  0.133  0.596  0.179-  26 1.53
   2  0.972  0.610  0.980-  48 1.47
   3  0.725  0.009  0.634-  40 1.45
   4  0.094  0.468  0.928-  46 1.45
   5  0.244  0.807  0.201-  47 2.39  53 2.39  80 2.47  26 2.55
   6  0.419  0.052  0.296-  87 2.28  55 2.29  75 2.39  76 2.42
   7  0.927  0.828  0.032-  70 2.36  48 2.38  18 2.43  11 2.46
   8  0.605  0.061  0.071-  87 2.27  15 2.32  63 2.34  24 2.50
   9  0.426  0.651  0.985-  32 2.20  29 2.34  80 2.41  90 2.45  82 3.13
  10  0.088  0.060  0.400-  41 2.35  71 2.40  85 2.42  19 2.52
  11  0.763  0.834  0.084-  73 2.35  64 2.38   7 2.46  63 2.55
  12  0.527  0.834  0.196-  80 2.32  73 2.32  87 2.40  59 2.43  57 3.11
  13  0.093  0.678  0.592-  51 2.33  28 2.34  91 2.46
  14  0.337  0.613  0.646-  28 2.31  90 2.32  33 2.57  23 2.61
  15  0.658  0.034  0.874-   8 2.32  31 2.33  64 2.37  83 2.55
  16  0.749  0.306  0.894-  83 2.26  79 2.38  20 2.40  72 2.61
  17  0.437  0.284  0.159-  55 2.34  69 2.37  24 2.40  92 2.40
  18  0.889  0.946  0.882-  77 2.30  34 2.35  64 2.36   7 2.43
  19  0.968  0.107  0.555-  96 2.24  81 2.38  60 2.51  10 2.52  67 3.10
  20  0.654  0.363  0.057-  74 2.36  16 2.40  44 2.45  24 2.48
  21  0.120  0.283  0.350-  50 2.36  67 2.40  85 2.40
  22  0.824  0.103  0.149-  49 2.19  63 2.29  25 2.31  83 2.57  77 3.09  62 3.12
  23  0.387  0.703  0.452-  47 2.35  30 2.43  59 2.51  14 2.61
  24  0.557  0.223  0.032-  86 2.32  17 2.40  20 2.48   8 2.50
  25  0.779  0.190  0.316-  22 2.31  62 2.35  96 2.47  44 2.49
  26  0.205  0.651  0.108-   1 1.53  66 2.30   5 2.55  29 2.58
  27  0.775  0.328  0.594-  58 2.37  96 2.38  72 2.42  79 2.47
  28  0.190  0.600  0.728-  14 2.31  13 2.34  46 2.50  66 2.52
  29  0.353  0.554  0.126-  92 2.31   9 2.34  30 2.44  26 2.58
  30  0.447  0.595  0.302-  68 2.37  23 2.43  29 2.44  57 2.44
  31  0.521  0.047  0.762-  42 2.29  88 2.33  15 2.33  86 2.43
  32  0.575  0.625  0.989-   9 2.20  74 2.39  73 2.39  36 2.50
  33  0.415  0.454  0.638-  45 2.48  56 2.51  14 2.57  68 2.85  89 2.88
  34  0.970  0.889  0.712-  60 2.31  18 2.35  91 2.42  52 2.44
  35  0.628  0.858  0.547-  59 2.32  40 2.32  84 2.40  42 2.48
  36  0.580  0.685  0.775-  84 2.29  95 2.33  32 2.50  90 2.52
  37  0.218  0.096  0.099-  55 2.44  85 2.45  53 2.61  39 2.63
  38  0.197  0.854  0.883-  66 2.39  82 2.42  52 2.43  53 2.49
  39  0.269  0.122  0.871-  43 2.31  61 2.39  37 2.63  88 2.74
  40  0.746  0.964  0.519-   3 1.45  35 2.32  62 2.37  60 2.42
  41  0.040  0.905  0.406-  10 2.35  60 2.38  51 2.43  70 2.62
  42  0.502  0.970  0.581-  31 2.29  76 2.33  75 2.44  35 2.48
  43  0.348  0.244  0.783-  39 2.31  56 2.39  89 2.49  86 2.55
  44  0.686  0.331  0.274-  58 2.34  69 2.39  20 2.45  25 2.49
  45  0.561  0.439  0.752-  95 2.25  72 2.44  33 2.48  74 2.48
  46  0.138  0.449  0.812-   4 1.45  28 2.50  89 2.60  93 2.75
  47  0.295  0.832  0.406-  23 2.35   5 2.39  51 2.40  76 2.45
  48  0.002  0.701  0.936-   2 1.47  66 2.27   7 2.38  91 2.39
  49  0.971  0.075  0.121-  22 2.19  85 2.32  70 2.42  77 2.54
  50  0.258  0.225  0.436-  71 2.28  21 2.36  56 2.42  55 2.62
  51  0.153  0.816  0.518-  13 2.33  47 2.40  41 2.43  52 2.53
  52  0.134  0.923  0.698-  61 2.25  38 2.43  34 2.44  51 2.53
  53  0.168  0.924  0.088-  70 2.39   5 2.39  38 2.49  37 2.61
  54  0.523  0.237  0.510-  69 2.27  75 2.28  56 2.53  72 2.84
  55  0.332  0.173  0.228-   6 2.29  17 2.34  37 2.44  50 2.62
  56  0.366  0.295  0.576-  43 2.39  50 2.42  33 2.51  54 2.53
  57  0.604  0.654  0.311-  59 2.30  73 2.36  94 2.40  30 2.44  12 3.11
  58  0.757  0.424  0.421-  94 2.29  44 2.34  27 2.37
  59  0.538  0.780  0.406-  57 2.30  35 2.32  12 2.43  23 2.51
  60  0.912  0.945  0.529-  34 2.31  41 2.38  40 2.42  19 2.51
  61  0.170  0.073  0.709-  52 2.25  81 2.32  71 2.35  39 2.39
  62  0.688  0.061  0.363-  63 2.28  75 2.34  25 2.35  40 2.37  22 3.12
  63  0.720  0.987  0.184-  62 2.28  22 2.29   8 2.34  11 2.55
  64  0.736  0.890  0.883-  18 2.36  15 2.37  11 2.38  84 2.42
  65  0.817  0.678  0.667-  91 2.31  78 2.36  84 2.43  95 3.06
  66  0.158  0.696  0.916-  48 2.27  26 2.30  38 2.39  28 2.52
  67  0.009  0.313  0.508-  93 2.32  96 2.33  21 2.40  19 3.10
  68  0.513  0.471  0.413-  94 2.36  30 2.37  69 2.40  33 2.85
  69  0.528  0.318  0.333-  54 2.27  17 2.37  44 2.39  68 2.40
  70  0.015  0.919  0.168-   7 2.36  53 2.39  49 2.42  41 2.62
  71  0.230  0.081  0.510-  50 2.28  61 2.35  10 2.40  76 2.45
  72  0.637  0.293  0.708-  27 2.42  45 2.44  86 2.52  16 2.61  54 2.84
  73  0.641  0.733  0.129-  12 2.32  11 2.35  57 2.36  32 2.39
  74  0.543  0.464  0.976-  92 2.29  20 2.36  32 2.39  45 2.48
  75  0.540  0.092  0.435-  54 2.28  62 2.34   6 2.39  42 2.44  76 3.11
  76  0.361  0.978  0.478-  42 2.33   6 2.42  71 2.45  47 2.45  75 3.11
  77  0.925  0.100  0.899-  18 2.30  83 2.34  81 2.49  49 2.54  22 3.09
  78  0.781  0.540  0.773-  95 2.24  65 2.36  79 2.42
  79  0.855  0.391  0.774-  16 2.38  78 2.42  93 2.46  27 2.47
  80  0.394  0.791  0.095-  12 2.32  82 2.36   9 2.41   5 2.47  87 3.05
  81  0.035  0.156  0.742-  61 2.32  19 2.38  77 2.49  93 2.57
  82  0.363  0.847  0.897-  88 2.34  80 2.36  90 2.40  38 2.42   9 3.13
  83  0.776  0.155  0.934-  16 2.26  77 2.34  15 2.55  22 2.57
  84  0.695  0.784  0.721-  36 2.29  35 2.40  64 2.42  65 2.43
  85  0.088  0.155  0.218-  49 2.32  21 2.40  10 2.42  37 2.45
  86  0.516  0.207  0.828-  24 2.32  31 2.43  72 2.52  43 2.55
  87  0.476  0.982  0.125-   8 2.27   6 2.28  12 2.40  88 2.61  80 3.05
  88  0.411  0.000  0.904-  31 2.33  82 2.34  87 2.61  39 2.74
  89  0.309  0.404  0.850-  92 2.45  43 2.49  46 2.60  33 2.88
  90  0.409  0.715  0.778-  14 2.32  82 2.40   9 2.45  36 2.52
  91  0.963  0.723  0.725-  65 2.31  48 2.39  34 2.42  13 2.46
  92  0.400  0.417  0.038-  74 2.29  29 2.31  17 2.40  89 2.45
  93  0.008  0.330  0.719-  67 2.32  79 2.46  81 2.57  46 2.75
  94  0.655  0.541  0.458-  58 2.29  68 2.36  57 2.40  95 2.44
  95  0.644  0.557  0.679-  78 2.24  45 2.25  36 2.33  94 2.44  65 3.06
  96  0.877  0.223  0.495-  19 2.24  67 2.33  27 2.38  25 2.47

  LATTYP: Found a simple tetragonal cell.
 ALAT       =    14.5261084411
 C/A-ratio  =     0.7518265282
  
  Lattice vectors:
  
 A1 = (  14.5261084411,   0.0000000000,   0.0000000000)
 A2 = (   0.0000000000,  14.5261084411,   0.0000000000)
 A3 = (   0.0000000000,   0.0000000000,  10.9211136782)


Analysis of symmetry for initial positions (statically):
=====================================================================
 Subroutine PRICEL returns:
 Original cell was already a primitive cell.
 

 Routine SETGRP: Setting up the symmetry group for a 
 simple tetragonal supercell.


 Subroutine GETGRP returns: Found  1 space group operations
 (whereof  1 operations were pure point group operations)
 out of a pool of 16 trial point group operations.


The static configuration has the point symmetry C_1 .


Analysis of symmetry for dynamics (positions and initial velocities):
=====================================================================
 Subroutine PRICEL returns:
 Original cell was already a primitive cell.
 

 Routine SETGRP: Setting up the symmetry group for a 
 simple tetragonal supercell.


 Subroutine GETGRP returns: Found  1 space group operations
 (whereof  1 operations were pure point group operations)
 out of a pool of 16 trial point group operations.


The dynamic configuration has the point symmetry C_1 .


 Subroutine INISYM returns: Found  1 space group operations
 (whereof  1 operations are pure point group operations),
 and found     1 'primitive' translations


----------------------------------------------------------------------------------------

                                     Primitive cell                                     

  volume of cell :    2304.4405

  direct lattice vectors                    reciprocal lattice vectors
    14.526108441  0.000000000  0.000000000     0.068841562  0.000000000  0.000000000
     0.000000000 14.526108441  0.000000000     0.000000000  0.068841562  0.000000000
     0.000000000  0.000000000 10.921113678     0.000000000  0.000000000  0.091565753

  length of vectors
    14.526108441 14.526108441 10.921113678     0.068841562  0.068841562  0.091565753

  position of ions in fractional coordinates (direct lattice)
     0.132848382  0.595794120  0.178981747
     0.971932714  0.610352734  0.979667824
     0.724908536  0.009452222  0.633877662
     0.094049966  0.467845193  0.927954813
     0.244453634  0.806561513  0.201487693
     0.418712281  0.052471383  0.295720757
     0.927467949  0.828198416  0.031677447
     0.605170341  0.061136195  0.071164262
     0.426074886  0.651460096  0.984670640
     0.087891399  0.059600684  0.400351112
     0.762716322  0.834228937  0.084185187
     0.527361477  0.834235821  0.196061506
     0.092701359  0.678253232  0.592333364
     0.336556072  0.612727079  0.646430411
     0.657606271  0.033526185  0.873873332
     0.748810326  0.305622116  0.894141412
     0.436553260  0.284348696  0.158931594
     0.889109430  0.946055171  0.881901817
     0.968063818  0.107182871  0.554549671
     0.654321151  0.362624307  0.057259362
     0.120415596  0.283045526  0.350282042
     0.823909587  0.103011072  0.148861192
     0.387434806  0.703230328  0.451654487
     0.556741679  0.223426667  0.031951045
     0.778783942  0.190172062  0.315814861
     0.204681110  0.650784072  0.107793036
     0.775452011  0.327679641  0.593728826
     0.190323514  0.600344548  0.728064942
     0.353086308  0.554284723  0.125720695
     0.447379973  0.594853745  0.302123034
     0.521245592  0.047247548  0.762240028
     0.575193971  0.625146786  0.988873509
     0.415131831  0.454202860  0.637560436
     0.969867467  0.888847832  0.711595010
     0.627904579  0.858406093  0.546538584
     0.579898604  0.685319130  0.774816585
     0.218190578  0.096276990  0.099321373
     0.196829041  0.853614721  0.883214870
     0.269074819  0.122256419  0.870861734
     0.746338914  0.963988398  0.519447940
     0.040204230  0.905259661  0.405528239
     0.501609225  0.970170370  0.580983789
     0.347508765  0.244110803  0.782887190
     0.685889827  0.330510406  0.273723916
     0.561259751  0.438820213  0.752314301
     0.138067949  0.448584700  0.811651656
     0.295224286  0.831847019  0.406449391
     0.001970101  0.701123776  0.935536457
     0.970624724  0.075379446  0.121124094
     0.258347238  0.225338398  0.435585613
     0.153298456  0.815634831  0.517580914
     0.134023507  0.922655924  0.698280434
     0.167867396  0.924335658  0.087727042
     0.522641699  0.236925809  0.510277630
     0.331661437  0.173242545  0.227968509
     0.366361027  0.294800911  0.576143623
     0.604407577  0.654040966  0.311153249
     0.756837252  0.424134242  0.420709841
     0.538496600  0.779534315  0.405866117
     0.911730768  0.944877980  0.529299499
     0.169532674  0.073061550  0.709174012
     0.688348159  0.061242418  0.363422643
     0.720351224  0.986912638  0.184331018
     0.736343119  0.890493146  0.882900800
     0.817438480  0.677939315  0.667375161
     0.157534966  0.695678408  0.915721628
     0.009431156  0.313266972  0.507597500
     0.512732645  0.470693856  0.412760102
     0.527726337  0.317767833  0.333039295
     0.015053516  0.919021089  0.168234674
     0.229680923  0.081266088  0.509681537
     0.636646769  0.292812767  0.707672333
     0.640541136  0.733431121  0.129093062
     0.543215689  0.464164234  0.975843702
     0.539713718  0.091535872  0.435237663
     0.360991385  0.977846204  0.478217712
     0.924638561  0.099995123  0.899320371
     0.780918031  0.540457896  0.772610766
     0.855425254  0.391291310  0.774462225
     0.393649133  0.790920710  0.095385876
     0.035246536  0.156002553  0.742294260
     0.362689018  0.846689260  0.896762023
     0.775672304  0.155372653  0.933695986
     0.695210286  0.784415182  0.721149897
     0.088214266  0.154888008  0.218386153
     0.515692832  0.207128428  0.827800192
     0.476460026  0.982437936  0.125331540
     0.411044019  0.000458641  0.903601985
     0.309130282  0.403637356  0.849569950
     0.409051745  0.715263833  0.778339119
     0.963382592  0.722636764  0.725074405
     0.399860019  0.417441466  0.037606879
     0.007568786  0.330151742  0.718507309
     0.654984096  0.541317038  0.457737200
     0.644488511  0.557423899  0.679307094
     0.877303102  0.223006734  0.494599741

  ion indices of the primitive-cell ions
   primitive index   ion index
                 1           1
                 2           2
                 3           3
                 4           4
                 5           5
                 6           6
                 7           7
                 8           8
                 9           9
                10          10
                11          11
                12          12
                13          13
                14          14
                15          15
                16          16
                17          17
                18          18
                19          19
                20          20
                21          21
                22          22
                23          23
                24          24
                25          25
                26          26
                27          27
                28          28
                29          29
                30          30
                31          31
                32          32
                33          33
                34          34
                35          35
                36          36
                37          37
                38          38
                39          39
                40          40
                41          41
                42          42
                43          43
                44          44
                45          45
                46          46
                47          47
                48          48
                49          49
                50          50
                51          51
                52          52
                53          53
                54          54
                55          55
                56          56
                57          57
                58          58
                59          59
                60          60
                61          61
                62          62
                63          63
                64          64
                65          65
                66          66
                67          67
                68          68
                69          69
                70          70
                71          71
                72          72
                73          73
                74          74
                75          75
                76          76
                77          77
                78          78
                79          79
                80          80
                81          81
                82          82
                83          83
                84          84
                85          85
                86          86
                87          87
                88          88
                89          89
                90          90
                91          91
                92          92
                93          93
                94          94
                95          95
                96          96

----------------------------------------------------------------------------------------


 -----------------------------------------------------------------------------
|                                                                             |
|           W    W    AA    RRRRR   N    N  II  N    N   GGGG   !!!           |
|           W    W   A  A   R    R  NN   N  II  NN   N  G    G  !!!           |
|           W    W  A    A  R    R  N N  N  II  N N  N  G       !!!           |
|           W WW W  AAAAAA  RRRRR   N  N N  II  N  N N  G  GGG   !            |
|           WW  WW  A    A  R   R   N   NN  II  N   NN  G    G                |
|           W    W  A    A  R    R  N    N  II  N    N   GGGG   !!!           |
|                                                                             |
|     The requested file  could not be found or opened for reading            |
|     k-point information. Automatic k-point generation is used as a          |
|     fallback, which may lead to unwanted results.                           |
|                                                                             |
 -----------------------------------------------------------------------------



Automatic generation of k-mesh.
 Grid dimensions derived from KSPACING:
 generate k-points for:    2    2    3

 Generating k-lattice:

  Cartesian coordinates                     Fractional coordinates (reciprocal lattice)
     0.034420781  0.000000000  0.000000000     0.500000000  0.000000000  0.000000000
     0.000000000  0.034420781  0.000000000     0.000000000  0.500000000  0.000000000
     0.000000000  0.000000000  0.030521918     0.000000000  0.000000000  0.333333333

  Length of vectors
     0.034420781  0.034420781  0.030521918

  Shift w.r.t. Gamma in fractional coordinates (k-lattice)
     0.000000000  0.000000000  0.000000000

 
 Subroutine IBZKPT returns following result:
 ===========================================
 
 Found      8 irreducible k-points:
 
 Following reciprocal coordinates:
            Coordinates               Weight
  0.000000  0.000000  0.000000      1.000000
  0.500000  0.000000  0.000000      1.000000
  0.000000  0.500000  0.000000      1.000000
  0.500000  0.500000  0.000000      1.000000
  0.000000  0.000000  0.333333      2.000000
  0.500000  0.000000  0.333333      2.000000
  0.000000  0.500000  0.333333      2.000000
  0.500000  0.500000  0.333333      2.000000
 
 Following cartesian coordinates:
            Coordinates               Weight
  0.000000  0.000000  0.000000      1.000000
  0.034421  0.000000  0.000000      1.000000
  0.000000  0.034421  0.000000      1.000000
  0.034421  0.034421  0.000000      1.000000
  0.000000  0.000000  0.030522      2.000000
  0.034421  0.000000  0.030522      2.000000
  0.000000  0.034421  0.030522      2.000000
  0.034421  0.034421  0.030522      2.000000
 


--------------------------------------------------------------------------------------------------------




 Dimension of arrays:
   k-points           NKPTS =      8   k-points in BZ     NKDIM =      8   number of bands    NBANDS=    240
   number of dos      NEDOS =   2000   number of ions     NIONS =     96
   non local maximal  LDIM  =      4   non local SUM 2l+1 LMDIM =      8
   total plane-waves  NPLWV = ******
   max r-space proj   IRMAX =      1   max aug-charges    IRDMAX= 412927
   dimension x,y,z NGX =   168 NGY =  168 NGZ =  126
   dimension x,y,z NGXF=   336 NGYF=  336 NGZF=  252
   support grid    NGXF=   672 NGYF=  672 NGZF=  504
   ions per type =               4  92
   NGX,Y,Z   is equivalent  to a cutoff of  19.23, 19.23, 19.18 a.u.
   NGXF,Y,Z  is equivalent  to a cutoff of  38.45, 38.45, 38.36 a.u.

 SYSTEM =  a-Si SPC                                
 POSCAR =   H Si                                   

 Startparameter for this run:
   NWRITE =      2    write-flag & timer
   PREC   = accura    normal or accurate (medium, high low for compatibility)
   ISTART =      1    job   : 0-new  1-cont  2-samecut
   ICHARG =      1    charge: 1-file 2-atom 10-const
   ISPIN  =      1    spin polarized calculation?
   LNONCOLLINEAR =      F non collinear calculations
   LSORBIT =      F    spin-orbit coupling
   INIWAV =      1    electr: 0-lowe 1-rand  2-diag
   LASPH  =      T    aspherical Exc in radial PAW
 Electronic Relaxation 1
   ENCUT  = 1200.0 eV  88.20 Ry    9.39 a.u.  41.03 41.03 30.85*2*pi/ulx,y,z
   ENINI  = 1200.0     initial cutoff
   ENAUG  =  400.0 eV  augmentation charge cutoff
   NELM   =    150;   NELMIN=  2; NELMDL=  0     # of ELM steps 
   EDIFF  = 0.1E-05   stopping-criterion for ELM
   LREAL  =      F    real-space projection
   NLSPLINE    = F    spline interpolate recip. space projectors
   LCOMPAT=      F    compatible to vasp.4.4
   GGA_COMPAT  = T    GGA compatible to vasp.4.4-vasp.4.6
   LMAXPAW     = -100 max onsite density
   LMAXMIX     =    2 max onsite mixed and CHGCAR
   VOSKOWN=      0    Vosko Wilk Nusair interpolation
   ROPT   =    0.00000   0.00000
 Ionic relaxation
   EDIFFG = -.1E-01   stopping-criterion for IOM
   NSW    =      0    number of steps for IOM
   NBLOCK =      1;   KBLOCK =      1    inner block; outer block 
   IBRION =     -1    ionic relax: 0-MD 1-quasi-New 2-CG
   NFREE  =      0    steps in history (QN), initial steepest desc. (CG)
   ISIF   =      2    stress and relaxation
   IWAVPR =     10    prediction:  0-non 1-charg 2-wave 3-comb
   ISYM   =      1    0-nonsym 1-usesym 2-fastsym
   LCORR  =      T    Harris-Foulkes like correction to forces

   POTIM  = 0.5000    time-step for ionic-motion
   TEIN   =    0.0    initial temperature
   TEBEG  =    0.0;   TEEND  =   0.0 temperature during run
   SMASS  =  -3.00    Nose mass-parameter (am)
   estimated Nose-frequenzy (Omega)   =  0.10E-29 period in steps = 0.13E+47 mass=  -0.482E-26a.u.
   SCALEE = 1.0000    scale energy and forces
   NPACO  =    256;   APACO  = 10.0  distance and # of slots for P.C.
   PSTRESS=    0.0 pullay stress

  Mass of Ions in am
   POMASS =   1.00 28.09
  Ionic Valenz
   ZVAL   =   1.00  4.00
  Atomic Wigner-Seitz radii
   RWIGS  =  -1.00 -1.00
  virtual crystal weights 
   VCA    =   1.00  1.00
   NELECT =     372.0000    total number of electrons
   NUPDOWN=      -1.0000    fix difference up-down

 DOS related values:
   EMIN   =  10.00;   EMAX   =-10.00  energy-range for DOS
   EFERMI =   0.00;   METHOD = LEGACY      
   ISMEAR =     0;   SIGMA  =   0.10  broadening in eV -4-tet -1-fermi 0-gaus
   EFERMI_NEDOS =   21; number of points for ismear=-14 and -15

 Electronic relaxation 2 (details)
   IALGO  =     38    algorithm
   LDIAG  =      F    sub-space diagonalisation (order eigenvalues)
   LSUBROT=      F    optimize rotation matrix (better conditioning)
   TURBO    =      0    0=normal 1=particle mesh
   IRESTART =      0    0=no restart 2=restart with 2 vectors
   NREBOOT  =      0    no. of reboots
   NMIN     =      0    reboot dimension
   EREF     =   0.00    reference energy to select bands
   IMIX   =      4    mixing-type and parameters
     AMIX     =   0.40;   BMIX     =  1.00
     AMIX_MAG =   1.60;   BMIX_MAG =  1.00
     AMIN     =   0.10
     WC   =   100.;   INIMIX=   1;  MIXPRE=   1;  MAXMIX= -45

 Intra band minimization:
   WEIMIN = 0.0000     energy-eigenvalue tresh-hold
   EBREAK =  0.10E-08  absolut break condition
   DEPER  =   0.30     relativ break condition  

   TIME   =   0.40     timestep for ELM

  volume/ion in A,a.u.               =      24.00       161.99
  Fermi-wavevector in a.u.,A,eV,Ry     =   0.891389  1.684481 10.810842  0.794575
  Thomas-Fermi vector in A             =   2.013203

 Write flags
   LWAVE        =      F    write WAVECAR
   LDOWNSAMPLE  =      F    k-point downsampling of WAVECAR
   LCHARG       =      F    write CHGCAR
   LVTOT        =      F    write LOCPOT, total local potential
   LVHAR        =      F    write LOCPOT, Hartree potential only
   WRT_POTENTIAL= false  ! write potential to hdf5 file
   LELF         =      F    write electronic localiz. function (ELF)
   LORBIT       =     11    0 simple, 1 ext, 2 COOP (PROOUT), +10 PAW based schemes


 Python interface
   PLUGINS active      =      F    recompile with -DPLUGINS to activate

 Dipole corrections
   LMONO      =      F    monopole corrections only (constant potential shift)
   LDIPOL     =      F    correct potential (dipole corrections)
   IDIPOL     =      0    1-x, 2-y, 3-z, 4-all directions 
   EPSILON    =  1.0000000 bulk dielectric constant
   LVACPOTAV  =      F  vacuum potentials using an averaging scheme for the charge density
   VACPOTFLAT =  0.1000000 required flatness to determine vacuum potential

Coulomb truncation method
  LTRUNCATE          =      F  Coulomb kernel truncation to be used
  IDIMENSIONALITY    =      3  Dimensionality of cutoff (0 molecules / 2 surfaces)
  ISURFACE           =     -1  Direction of surface normal
  LCOARSEN           =      F  Coarsen the charge grid before padding, preferred


 Exchange correlation treatment:
   METAGGA = SCAN    functional components
   XC_C    = 1    coefficients multiplying the functional components
   LIBXC   =     F    Libxc                    
   VOSKOWN =     0    Vosko Wilk Nusair interpolation
   LHFCALC =     F    Hartree Fock is set to
   LHFONE  =     F    Hartree Fock one center treatment
   AEXX    =    0.0000 exact exchange contribution

 Parameters of functionals:
   SCAN:
     P1 =  0.000000E+00
     P2 =  0.000000E+00
     P3 =  0.000000E+00

 Accuracy and mixing parameters for tau-dependent meta-GGA functionals:
   LMAXTAU = 6
   LMIXTAU = T

 Van der Waals corrections
   IVDW    =     0    specifies the selected vdW correction

 Linear response parameters
   LEPSILON=     F    determine dielectric tensor
   LRPA    =     F    only Hartree local field effects (RPA)
   LNABLA  =     F    use nabla operator in PAW spheres
   LVEL    =     F    velocity operator in full k-point grid
   CSHIFT  =0.1000    complex shift for real part using Kramers Kronig
   OMEGAMAX=  -1.0    maximum frequency
   DEG_THRESHOLD= 0.2000000E-02 threshold for treating states as degnerate
   RTIME   =   -0.100 relaxation time in fs
  (WPLASMAI=    0.000 imaginary part of plasma frequency in eV, 0.658/RTIME)
   DFIELD  = 0.0000000 0.0000000 0.0000000 field for delta impulse in time

  Optional k-point grid parameters
   LKPOINTS_OPT  =     F    use optional k-point grid
   KPOINTS_OPT_MODE=     1    mode for optional k-point grid

 Orbital magnetization related:
   ORBITALMAG=     F  switch on orbital magnetization
   LCHIMAG   =     F  perturbation theory with respect to B field
   DQ        =  0.001000  dq finite difference perturbation B field
   LLRAUG    =     F  two centre corrections for induced B field
   LBONE     =     F  B-component reconstruction in AE one-centre
   LVGVCALC  =     T  calculate vGv susceptibility
   LVGVAPPL  =     F  apply vGv susceptibility instead of pGv for G=0

 Random number generation:
   RANDOM_GENERATOR = DEFAULT
   PCG_SEED         = not used


--------------------------------------------------------------------------------------------------------


 Static calculation
 charge density and potential will be updated during run
 non-spin polarized calculation
 Variant of blocked Davidson
 perform Loewdin sub-space diagonalisation
    ordering is kept fixed
    before iterative eigenvector-optimisation
 modified Broyden-mixing scheme, WC =      100.0
 initial mixing is a Kerker type mixing with AMIX =  0.4000 and BMIX =      1.0000
 Hartree-type preconditioning will be used
 using additional bands           54
 reciprocal scheme for non local part
 use partial core corrections
 calculate Harris-corrections to forces   (improved forces if not selfconsistent)
 use gradient corrections 
 use of overlap-Matrix (Vanderbilt PP)
 Gauss-broadening in eV      SIGMA  =   0.10


--------------------------------------------------------------------------------------------------------


  energy-cutoff  :     1200.00
  volume of cell :     2304.44
      direct lattice vectors                 reciprocal lattice vectors
    14.526108441  0.000000000  0.000000000     0.068841562  0.000000000  0.000000000
     0.000000000 14.526108441  0.000000000     0.000000000  0.068841562  0.000000000
     0.000000000  0.000000000 10.921113678     0.000000000  0.000000000  0.091565753

  length of vectors
    14.526108441 14.526108441 10.921113678     0.068841562  0.068841562  0.091565753



 old parameters found on file WAVECAR:
  energy-cutoff  :     1200.00
  volume of cell :     2304.44
      direct lattice vectors                 reciprocal lattice vectors
    14.526108441  0.000000000  0.000000000     0.068841562  0.000000000  0.000000000
     0.000000000 14.526108441  0.000000000     0.000000000  0.068841562  0.000000000
     0.000000000  0.000000000 10.921113678     0.000000000  0.000000000  0.091565753

  length of vectors


 k-points in units of 2pi/SCALE and weight: read from INCAR                         
   0.00000000  0.00000000  0.00000000       0.083
   0.03442078  0.00000000  0.00000000       0.083
   0.00000000  0.03442078  0.00000000       0.083
   0.03442078  0.03442078  0.00000000       0.083
   0.00000000  0.00000000  0.03052192       0.167
   0.03442078  0.00000000  0.03052192       0.167
   0.00000000  0.03442078  0.03052192       0.167
   0.03442078  0.03442078  0.03052192       0.167

 k-points in reciprocal lattice and weights: read from INCAR                         
   0.00000000  0.00000000  0.00000000       0.083
   0.50000000  0.00000000  0.00000000       0.083
   0.00000000  0.50000000  0.00000000       0.083
   0.50000000  0.50000000  0.00000000       0.083
   0.00000000  0.00000000  0.33333333       0.167
   0.50000000  0.00000000  0.33333333       0.167
   0.00000000  0.50000000  0.33333333       0.167
   0.50000000  0.50000000  0.33333333       0.167

 position of ions in fractional coordinates (direct lattice) 
   0.13284838  0.59579412  0.17898175
   0.97193271  0.61035273  0.97966782
   0.72490854  0.00945222  0.63387766
   0.09404997  0.46784519  0.92795481
   0.24445363  0.80656151  0.20148769
   0.41871228  0.05247138  0.29572076
   0.92746795  0.82819842  0.03167745
   0.60517034  0.06113620  0.07116426
   0.42607489  0.65146010  0.98467064
   0.08789140  0.05960068  0.40035111
   0.76271632  0.83422894  0.08418519
   0.52736148  0.83423582  0.19606151
   0.09270136  0.67825323  0.59233336
   0.33655607  0.61272708  0.64643041
   0.65760627  0.03352619  0.87387333
   0.74881033  0.30562212  0.89414141
   0.43655326  0.28434870  0.15893159
   0.88910943  0.94605517  0.88190182
   0.96806382  0.10718287  0.55454967
   0.65432115  0.36262431  0.05725936
   0.12041560  0.28304553  0.35028204
   0.82390959  0.10301107  0.14886119
   0.38743481  0.70323033  0.45165449
   0.55674168  0.22342667  0.03195105
   0.77878394  0.19017206  0.31581486
   0.20468111  0.65078407  0.10779304
   0.77545201  0.32767964  0.59372883
   0.19032351  0.60034455  0.72806494
   0.35308631  0.55428472  0.12572069
   0.44737997  0.59485374  0.30212303
   0.52124559  0.04724755  0.76224003
   0.57519397  0.62514679  0.98887351
   0.41513183  0.45420286  0.63756044
   0.96986747  0.88884783  0.71159501
   0.62790458  0.85840609  0.54653858
   0.57989860  0.68531913  0.77481658
   0.21819058  0.09627699  0.09932137
   0.19682904  0.85361472  0.88321487
   0.26907482  0.12225642  0.87086173
   0.74633891  0.96398840  0.51944794
   0.04020423  0.90525966  0.40552824
   0.50160923  0.97017037  0.58098379
   0.34750876  0.24411080  0.78288719
   0.68588983  0.33051041  0.27372392
   0.56125975  0.43882021  0.75231430
   0.13806795  0.44858470  0.81165166
   0.29522429  0.83184702  0.40644939
   0.00197010  0.70112378  0.93553646
   0.97062472  0.07537945  0.12112409
   0.25834724  0.22533840  0.43558561
   0.15329846  0.81563483  0.51758091
   0.13402351  0.92265592  0.69828043
   0.16786740  0.92433566  0.08772704
   0.52264170  0.23692581  0.51027763
   0.33166144  0.17324255  0.22796851
   0.36636103  0.29480091  0.57614362
   0.60440758  0.65404097  0.31115325
   0.75683725  0.42413424  0.42070984
   0.53849660  0.77953432  0.40586612
   0.91173077  0.94487798  0.52929950
   0.16953267  0.07306155  0.70917401
   0.68834816  0.06124242  0.36342264
   0.72035122  0.98691264  0.18433102
   0.73634312  0.89049315  0.88290080
   0.81743848  0.67793931  0.66737516
   0.15753497  0.69567841  0.91572163
   0.00943116  0.31326697  0.50759750
   0.51273264  0.47069386  0.41276010
   0.52772634  0.31776783  0.33303929
   0.01505352  0.91902109  0.16823467
   0.22968092  0.08126609  0.50968154
   0.63664677  0.29281277  0.70767233
   0.64054114  0.73343112  0.12909306
   0.54321569  0.46416423  0.97584370
   0.53971372  0.09153587  0.43523766
   0.36099138  0.97784620  0.47821771
   0.92463856  0.09999512  0.89932037
   0.78091803  0.54045790  0.77261077
   0.85542525  0.39129131  0.77446223
   0.39364913  0.79092071  0.09538588
   0.03524654  0.15600255  0.74229426
   0.36268902  0.84668926  0.89676202
   0.77567230  0.15537265  0.93369599
   0.69521029  0.78441518  0.72114990
   0.08821427  0.15488801  0.21838615
   0.51569283  0.20712843  0.82780019
   0.47646003  0.98243794  0.12533154
   0.41104402  0.00045864  0.90360199
   0.30913028  0.40363736  0.84956995
   0.40905174  0.71526383  0.77833912
   0.96338259  0.72263676  0.72507440
   0.39986002  0.41744147  0.03760688
   0.00756879  0.33015174  0.71850731
   0.65498410  0.54131704  0.45773720
   0.64448851  0.55742390  0.67930709
   0.87730310  0.22300673  0.49459974

 position of ions in cartesian coordinates  (Angst):
   1.92977000  8.65457000  1.95468000
  14.11840000  8.86605000 10.69906368
  10.53010000  0.13730400  6.92265000
   1.36618000  6.79597000 10.13430000
   3.55096000 11.71620000  2.20047000
   6.08226000  0.76220500  3.22960000
  13.47250000 12.03050000  0.34595300
   8.79077000  0.88807100  0.77719300
   6.18921000  9.46318000 10.75370000
   1.27672000  0.86576600  4.37228000
  11.07930000 12.11810000  0.91939600
   7.66051000 12.11820000  2.14121000
   1.34659000  9.85238000  6.46894000
   4.88885000  8.90054000  7.05974000
   9.55246000  0.48700500  9.54367000
  10.87730000  4.43950000  9.76502000
   6.34142000  4.13048000  1.73571000
  12.91530000 13.74250000  9.63135000
  14.06220000  1.55695000  6.05630000
   9.50474000  5.26752000  0.62533600
   1.74917000  4.11155000  3.82547000
  11.96820000  1.49635000  1.62573000
   5.62792000 10.21520000  4.93257000
   8.08729000  3.24552000  0.34894100
  11.31270000  2.76246000  3.44905000
   2.97322000  9.45336000  1.17722000
  11.26430000  4.75991000  6.48418000
   2.76466000  8.72067000  7.95128000
   5.12897000  8.05160000  1.37301000
   6.49869000  8.64091000  3.29952000
   7.57167000  0.68632300  8.32451000
   8.35533000  9.08095000 10.79960000
   6.03025000  6.59780000  6.96287000
  14.08840000 12.91150000  7.77141000
   9.12101000 12.46930000  5.96881000
   8.42367000  9.95502000  8.46186000
   3.16946000  1.39853000  1.08470000
   2.85916000 12.39970000  9.64569000
   3.90861000  1.77591000  9.51078000
  10.84140000 14.00300000  5.67295000
   0.58401100 13.14990000  4.42882000
   7.28643000 14.09280000  6.34499000
   5.04795000  3.54598000  8.55000000
   9.96331000  4.80103000  2.98937000
   8.15292000  6.37435000  8.21611000
   2.00559000  6.51619000  8.86414000
   4.28846000 12.08350000  4.43888000
   0.02861790 10.18460000 10.21710000
  14.09940000  1.09497000  1.32281000
   3.75278000  3.27329000  4.75708000
   2.22683000 11.84800000  5.65256000
   1.94684000 13.40260000  7.62600000
   2.43846000 13.42700000  0.95807700
   7.59195000  3.44161000  5.57280000
   4.81775000  2.51654000  2.48967000
   5.32180000  4.28231000  6.29213000
   8.77969000  9.50067000  3.39814000
  10.99390000  6.16102000  4.59462000
   7.82226000 11.32360000  4.43251000
  13.24390000 13.72540000  5.78054000
   2.46265000  1.06130000  7.74497000
   9.99902000  0.88961400  3.96898000
  10.46390000 14.33600000  2.01310000
  10.69620000 12.93540000  9.64226000
  11.87420000  9.84782000  7.28848000
   2.28837000 10.10550000 10.00070000
   0.13699800  4.55055000  5.54353000
   7.44801000  6.83735000  4.50780000
   7.66581000  4.61593000  3.63716000
   0.21866900 13.34980000  1.83731000
   3.33637000  1.18048000  5.56629000
   9.24800000  4.25343000  7.72857000
   9.30457000 10.65390000  1.40984000
   7.89081000  6.74250000 10.65730000
   7.83994000  1.32966000  4.75328000
   5.24380000 14.20430000  5.22267000
  13.43140000  1.45254000  9.82158000
  11.34370000  7.85075000  8.43777000
  12.42600000  5.68394000  8.45799000
   5.71819000 11.48900000  1.04172000
   0.51199500  2.26611000  8.10668000
   5.26846000 12.29910000  9.79364000
  11.26750000  2.25696000 10.19700000
  10.09870000 11.39450000  7.87576000
   1.28141000  2.24992000  2.38502000
   7.49101000  3.00877000  9.04050000
   6.92111000 14.27100000  1.36876000
   5.97087000  0.00666227  9.86834000
   4.49046000  5.86328000  9.27825000
   5.94193000 10.39000000  8.50033000
  13.99420000 10.49710000  7.91862000
   5.80841000  6.06380000  0.41070900
   0.10994500  4.79582000  7.84690000
   9.51437000  7.86323000  4.99900000
   9.36191000  8.09720000  7.41879000
  12.74380000  3.23942000  5.40158000



--------------------------------------------------------------------------------------------------------


 k-point     1 :   0.0000 0.0000 0.0000  plane waves:  217509
 k-point     2 :   0.5000 0.0000 0.0000  plane waves:  217518
 k-point     3 :   0.0000 0.5000 0.0000  plane waves:  217518
 k-point     4 :   0.5000 0.5000 0.0000  plane waves:  217548
 k-point     5 :   0.0000 0.0000 0.3333  plane waves:  217446
 k-point     6 :   0.5000 0.0000 0.3333  plane waves:  217564
 k-point     7 :   0.0000 0.5000 0.3333  plane waves:  217564
 k-point     8 :   0.5000 0.5000 0.3333  plane waves:  217536

 maximum and minimum number of plane-waves per node :     13666    13530

 maximum number of plane-waves:    217564
 maximum index in each direction: 
   IXMAX=   41   IYMAX=   41   IZMAX=   30
   IXMIN=  -41   IYMIN=  -41   IZMIN=  -31


 parallel 3D FFT for wavefunctions:
    minimum data exchange during FFTs selected (reduces bandwidth)
 parallel 3D FFT for charge:
    minimum data exchange during FFTs selected (reduces bandwidth)


 total amount of memory used by VASP MPI-rank0   193425. kBytes
=======================================================================

   base                                    :      30000. kBytes
   nonl-proj                               :      34836. kBytes
   fftplans                                :      42984. kBytes
   grid                                    :      33148. kBytes
   one-center                              :         18. kBytes
   wavefun                                 :      52439. kBytes

     INWAV:  cpu time      9.7193: real time      9.7229
 Broyden mixing: mesh for mixing (old mesh)
   NGX = 83   NGY = 83   NGZ = 61
  (NGX  =336   NGY  =336   NGZ  =252)
  gives a total of 420229 points

 initial charge density was supplied:
 number of electron     371.9999999 magnetization 
 keeping initial charge density in first step


--------------------------------------------------------------------------------------------------------


 Maximum index for augmentation-charges        11422 (set IRDMAX)


--------------------------------------------------------------------------------------------------------


 First call to EWALD:  gamma=   0.134
 Maximum number of real-space cells   3x   3x   3
 Maximum number of reciprocal cells   3x   3x   2

    FEWALD:  cpu time      0.0190: real time      0.0194


--------------------------------------- Ionic step        1  -------------------------------------------




--------------------------------------- Iteration      1(   1)  ---------------------------------------


    POTLOK:  cpu time      0.7643: real time      0.7652
    SETDIJ:  cpu time      1.3329: real time      1.3337
    EDDIAG:  cpu time     22.2752: real time     22.2938
     EDDAV:  cpu time    103.5111: real time    103.6009
       DOS:  cpu time      0.0106: real time      0.0107
    CHARGE:  cpu time      9.8254: real time      9.8335
    MIXING:  cpu time      0.0233: real time      0.0240
    --------------------------------------------
      LOOP:  cpu time    137.7428: real time    137.8617

 eigenvalue-minimisations  :  3848
 total energy-change (2. order) :-0.9600190E+03  (-0.1072529E+01)
 number of electron     371.9999999 magnetization 
 augmentation part      -20.5318784 magnetization 

 Broyden mixing:
  rms(total) = 0.11943E+01    rms(broyden)= 0.48129E+02
  rms(prec ) = 0.12922E+01
  weight for this iteration     100.00
  WARNING: grid for Broyden might be to small

 Free energy of the ion-electron system (eV)
  ---------------------------------------------------
  alpha Z        PSCENC =       126.55860261
  Ewald energy   TEWEN  =     -7200.95839819
  -Hartree energ DENC   =     -3319.40759890
  -exchange      EXHF   =         0.00000000
  -V(xc)+E(xc)   XCENC  =      -442.67239396
  PAW double counting   =     33016.40506960   -32098.61255791
  entropy T*S    EENTRO =        -0.11024312
  eigenvalues    EBANDS =      -573.32386400
  atomic energy  EATOM  =      9532.10233977
  Solvation  Ediel_sol  =         0.00000000
  ---------------------------------------------------
  free energy    TOTEN  =      -960.01904409 eV

  energy without entropy =     -959.90880097  energy(sigma->0) =     -959.96392253


--------------------------------------------------------------------------------------------------------




--------------------------------------- Iteration      1(   2)  ---------------------------------------


    POTLOK:  cpu time      0.7438: real time      0.7609
    SETDIJ:  cpu time      1.3147: real time      1.3154
    EDDIAG:  cpu time     22.6423: real time     22.6612
     EDDAV:  cpu time    103.7494: real time    103.8391
       DOS:  cpu time      0.0037: real time      0.0037
    CHARGE:  cpu time      9.8434: real time      9.8523
    MIXING:  cpu time      0.0169: real time      0.0171
    --------------------------------------------
      LOOP:  cpu time    138.3143: real time    138.4497

 eigenvalue-minimisations  :  3840
 total energy-change (2. order) : 0.6647053E+02  (-0.9916804E+00)
 number of electron     371.9999999 magnetization 
 augmentation part      -20.4472959 magnetization 

 Broyden mixing:
  rms(total) = 0.79694E+00    rms(broyden)= 0.27686E+02
  rms(prec ) = 0.84695E+00
  weight for this iteration     100.00
  WARNING: grid for Broyden might be to small

 eigenvalues of (default mixing * dielectric matrix)
  average eigenvalue GAMMA=   0.6348
  0.6348

 Free energy of the ion-electron system (eV)
  ---------------------------------------------------
  alpha Z        PSCENC =       126.55860261
  Ewald energy   TEWEN  =     -7200.95839819
  -Hartree energ DENC   =     -3310.08767700
  -exchange      EXHF   =         0.00000000
  -V(xc)+E(xc)   XCENC  =      -432.94435270
  PAW double counting   =     39663.80615095   -38745.77074634
  entropy T*S    EENTRO =        -0.10109189
  eigenvalues    EBANDS =      -526.15333810
  atomic energy  EATOM  =      9532.10233977
  Solvation  Ediel_sol  =         0.00000000
  ---------------------------------------------------
  free energy    TOTEN  =      -893.54851089 eV

  energy without entropy =     -893.44741900  energy(sigma->0) =     -893.49796494


--------------------------------------------------------------------------------------------------------




--------------------------------------- Iteration      1(   3)  ---------------------------------------


    POTLOK:  cpu time      0.7496: real time      0.7617
    SETDIJ:  cpu time      1.3133: real time      1.3146
    EDDIAG:  cpu time     22.5644: real time     22.5833
     EDDAV:  cpu time    103.5112: real time    103.6062
       DOS:  cpu time      0.0039: real time      0.0039
    CHARGE:  cpu time      9.8467: real time      9.8550
    MIXING:  cpu time      0.0152: real time      0.0152
    --------------------------------------------
      LOOP:  cpu time    138.0043: real time    138.1399

 eigenvalue-minimisations  :  3840
 total energy-change (2. order) :-0.3317538E+01  (-0.7700743E+00)
 number of electron     371.9999999 magnetization 
 augmentation part      -20.3804277 magnetization 

 Broyden mixing:
  rms(total) = 0.46516E+00    rms(broyden)= 0.21140E+02
  rms(prec ) = 0.51660E+00
  weight for this iteration     100.00
  WARNING: grid for Broyden might be to small

 eigenvalues of (default mixing * dielectric matrix)
  average eigenvalue GAMMA=   0.6966
  0.7695  0.6237

 Free energy of the ion-electron system (eV)
  ---------------------------------------------------
  alpha Z        PSCENC =       126.55860261
  Ewald energy   TEWEN  =     -7200.95839819
  -Hartree energ DENC   =     -3313.97007225
  -exchange      EXHF   =         0.00000000
  -V(xc)+E(xc)   XCENC  =      -437.76446723
  PAW double counting   =     45141.03546022   -44223.09481040
  entropy T*S    EENTRO =        -0.09983910
  eigenvalues    EBANDS =      -520.67486385
  atomic energy  EATOM  =      9532.10233977
  Solvation  Ediel_sol  =         0.00000000
  ---------------------------------------------------
  free energy    TOTEN  =      -896.86604841 eV

  energy without entropy =     -896.76620932  energy(sigma->0) =     -896.81612886


--------------------------------------------------------------------------------------------------------




--------------------------------------- Iteration      1(   4)  ---------------------------------------


    POTLOK:  cpu time      0.7493: real time      0.7646
    SETDIJ:  cpu time      1.3170: real time      1.3175
    EDDIAG:  cpu time     22.5541: real time     22.5727
     EDDAV:  cpu time    108.3676: real time    108.4625
       DOS:  cpu time      0.0040: real time      0.0040
    CHARGE:  cpu time      9.6876: real time      9.6966
    MIXING:  cpu time      0.0152: real time      0.0152
    --------------------------------------------
      LOOP:  cpu time    142.6948: real time    142.8330

 eigenvalue-minimisations  :  4152
 total energy-change (2. order) :-0.3801938E+00  (-0.9965007E-01)
 number of electron     371.9999999 magnetization 
 augmentation part      -20.3666722 magnetization 

 Broyden mixing:
  rms(total) = 0.84447E-01    rms(broyden)= 0.18484E+01
  rms(prec ) = 0.16094E+00
  weight for this iteration     100.00
  WARNING: grid for Broyden might be to small

 eigenvalues of (default mixing * dielectric matrix)
  average eigenvalue GAMMA=   0.9845
  1.6371  0.6918  0.6245

 Free energy of the ion-electron system (eV)
  ---------------------------------------------------
  alpha Z        PSCENC =       126.55860261
  Ewald energy   TEWEN  =     -7200.95839819
  -Hartree energ DENC   =     -3319.21686213
  -exchange      EXHF   =         0.00000000
  -V(xc)+E(xc)   XCENC  =      -438.32418593
  PAW double counting   =     53157.63825389   -52239.76500179
  entropy T*S    EENTRO =        -0.10083504
  eigenvalues    EBANDS =      -515.18015542
  atomic energy  EATOM  =      9532.10233977
  Solvation  Ediel_sol  =         0.00000000
  ---------------------------------------------------
  free energy    TOTEN  =      -897.24624221 eV

  energy without entropy =     -897.14540718  energy(sigma->0) =     -897.19582469


--------------------------------------------------------------------------------------------------------




--------------------------------------- Iteration      1(   5)  ---------------------------------------


    POTLOK:  cpu time      0.7441: real time      0.7626
    SETDIJ:  cpu time      1.3154: real time      1.3164
    EDDIAG:  cpu time     22.5959: real time     22.6141
     EDDAV:  cpu time    116.2143: real time    116.3190
       DOS:  cpu time      0.0037: real time      0.0037
    CHARGE:  cpu time      9.5664: real time      9.5745
    MIXING:  cpu time      0.0156: real time      0.0156
    --------------------------------------------
      LOOP:  cpu time    150.4554: real time    150.6059

 eigenvalue-minimisations  :  4656
 total energy-change (2. order) :-0.3299640E-01  (-0.4387103E-01)
 number of electron     371.9999999 magnetization 
 augmentation part      -20.3685956 magnetization 

 Broyden mixing:
  rms(total) = 0.67187E-01    rms(broyden)= 0.12331E+01
  rms(prec ) = 0.12648E+00
  weight for this iteration     100.00
  WARNING: grid for Broyden might be to small

 eigenvalues of (default mixing * dielectric matrix)
  average eigenvalue GAMMA=   0.9906
  2.1174  0.7471  0.6178  0.4802

 Free energy of the ion-electron system (eV)
  ---------------------------------------------------
  alpha Z        PSCENC =       126.55860261
  Ewald energy   TEWEN  =     -7200.95839819
  -Hartree energ DENC   =     -3320.14842743
  -exchange      EXHF   =         0.00000000
  -V(xc)+E(xc)   XCENC  =      -439.51551787
  PAW double counting   =     53050.97471442   -52133.08179802
  entropy T*S    EENTRO =        -0.09537314
  eigenvalues    EBANDS =      -513.11538077
  atomic energy  EATOM  =      9532.10233977
  Solvation  Ediel_sol  =         0.00000000
  ---------------------------------------------------
  free energy    TOTEN  =      -897.27923861 eV

  energy without entropy =     -897.18386547  energy(sigma->0) =     -897.23155204


--------------------------------------------------------------------------------------------------------




--------------------------------------- Iteration      1(   6)  ---------------------------------------


    POTLOK:  cpu time      0.7472: real time      0.7615
    SETDIJ:  cpu time      1.3136: real time      1.3141
    EDDIAG:  cpu time     22.5669: real time     22.5852
     EDDAV:  cpu time    109.8488: real time    109.9441
       DOS:  cpu time      0.0050: real time      0.0050
    CHARGE:  cpu time      9.7967: real time      9.8057
    MIXING:  cpu time      0.0156: real time      0.0156
    --------------------------------------------
      LOOP:  cpu time    144.2939: real time    144.4312

 eigenvalue-minimisations  :  4240
 total energy-change (2. order) : 0.8235276E-02  (-0.6331778E-02)
 number of electron     371.9999999 magnetization 
 augmentation part      -20.3689793 magnetization 

 Broyden mixing:
  rms(total) = 0.24614E-01    rms(broyden)= 0.34713E+00
  rms(prec ) = 0.31104E-01
  weight for this iteration     100.00
  WARNING: grid for Broyden might be to small

 eigenvalues of (default mixing * dielectric matrix)
  average eigenvalue GAMMA=   1.0299
  2.5751  0.9380  0.6428  0.6306  0.3631

 Free energy of the ion-electron system (eV)
  ---------------------------------------------------
  alpha Z        PSCENC =       126.55860261
  Ewald energy   TEWEN  =     -7200.95839819
  -Hartree energ DENC   =     -3319.90589788
  -exchange      EXHF   =         0.00000000
  -V(xc)+E(xc)   XCENC  =      -439.79280429
  PAW double counting   =     52786.78651182   -51868.87295248
  entropy T*S    EENTRO =        -0.10233074
  eigenvalues    EBANDS =      -513.08607396
  atomic energy  EATOM  =      9532.10233977
  Solvation  Ediel_sol  =         0.00000000
  ---------------------------------------------------
  free energy    TOTEN  =      -897.27100334 eV

  energy without entropy =     -897.16867259  energy(sigma->0) =     -897.21983796


--------------------------------------------------------------------------------------------------------




--------------------------------------- Iteration      1(   7)  ---------------------------------------


    POTLOK:  cpu time      0.7483: real time      0.7603
    SETDIJ:  cpu time      1.3171: real time      1.3186
    EDDIAG:  cpu time     22.5732: real time     22.5916
     EDDAV:  cpu time    109.2812: real time    109.3831
       DOS:  cpu time      0.0056: real time      0.0056
    CHARGE:  cpu time      9.6192: real time      9.6267
    MIXING:  cpu time      0.0158: real time      0.0158
    --------------------------------------------
      LOOP:  cpu time    143.5604: real time    143.7017

 eigenvalue-minimisations  :  4216
 total energy-change (2. order) :-0.1305559E-02  (-0.1101410E-02)
 number of electron     371.9999999 magnetization 
 augmentation part      -20.3673375 magnetization 

 Broyden mixing:
  rms(total) = 0.12232E-01    rms(broyden)= 0.19674E+00
  rms(prec ) = 0.15319E-01
  weight for this iteration     100.00
  WARNING: grid for Broyden might be to small

 eigenvalues of (default mixing * dielectric matrix)
  average eigenvalue GAMMA=   1.0327
  2.5648  1.1639  0.8271  0.3728  0.6339  0.6339

 Free energy of the ion-electron system (eV)
  ---------------------------------------------------
  alpha Z        PSCENC =       126.55860261
  Ewald energy   TEWEN  =     -7200.95839819
  -Hartree energ DENC   =     -3320.27165345
  -exchange      EXHF   =         0.00000000
  -V(xc)+E(xc)   XCENC  =      -439.68923846
  PAW double counting   =     52756.73107374   -51838.79853230
  entropy T*S    EENTRO =        -0.10313235
  eigenvalues    EBANDS =      -512.84337027
  atomic energy  EATOM  =      9532.10233977
  Solvation  Ediel_sol  =         0.00000000
  ---------------------------------------------------
  free energy    TOTEN  =      -897.27230889 eV

  energy without entropy =     -897.16917655  energy(sigma->0) =     -897.22074272


--------------------------------------------------------------------------------------------------------




--------------------------------------- Iteration      1(   8)  ---------------------------------------


    POTLOK:  cpu time      0.7460: real time      0.7620
    SETDIJ:  cpu time      1.3136: real time      1.3141
    EDDIAG:  cpu time     22.6222: real time     22.6412
     EDDAV:  cpu time    108.9946: real time    109.0868
       DOS:  cpu time      0.0057: real time      0.0057
    CHARGE:  cpu time      9.6800: real time      9.6890
    MIXING:  cpu time      0.0158: real time      0.0159
    --------------------------------------------
      LOOP:  cpu time    143.3780: real time    143.5147

 eigenvalue-minimisations  :  4184
 total energy-change (2. order) :-0.1025707E-02  (-0.2843610E-03)
 number of electron     371.9999999 magnetization 
 augmentation part      -20.3662794 magnetization 

 Broyden mixing:
  rms(total) = 0.36629E-02    rms(broyden)= 0.11273E+00
  rms(prec ) = 0.50471E-02
  weight for this iteration     100.00
  WARNING: grid for Broyden might be to small

 eigenvalues of (default mixing * dielectric matrix)
  average eigenvalue GAMMA=   1.0920
  2.5737  1.7323  0.9548  0.3770  0.7430  0.6362  0.6271

 Free energy of the ion-electron system (eV)
  ---------------------------------------------------
  alpha Z        PSCENC =       126.55860261
  Ewald energy   TEWEN  =     -7200.95839819
  -Hartree energ DENC   =     -3320.63391554
  -exchange      EXHF   =         0.00000000
  -V(xc)+E(xc)   XCENC  =      -439.60856974
  PAW double counting   =     52773.61644477   -51855.67068154
  entropy T*S    EENTRO =        -0.10292945
  eigenvalues    EBANDS =      -512.57622730
  atomic energy  EATOM  =      9532.10233977
  Solvation  Ediel_sol  =         0.00000000
  ---------------------------------------------------
  free energy    TOTEN  =      -897.27333460 eV

  energy without entropy =     -897.17040515  energy(sigma->0) =     -897.22186988


--------------------------------------------------------------------------------------------------------




--------------------------------------- Iteration      1(   9)  ---------------------------------------


    POTLOK:  cpu time      0.7433: real time      0.7615
    SETDIJ:  cpu time      1.3152: real time      1.3158
    EDDIAG:  cpu time     22.5424: real time     22.5600
     EDDAV:  cpu time    116.2807: real time    116.3879
       DOS:  cpu time      0.0049: real time      0.0049
    CHARGE:  cpu time      9.5967: real time      9.6055
    MIXING:  cpu time      0.0159: real time      0.0159
    --------------------------------------------
      LOOP:  cpu time    150.4993: real time    150.6517

 eigenvalue-minimisations  :  4648
 total energy-change (2. order) :-0.8993282E-04  (-0.3263132E-04)
 number of electron     371.9999999 magnetization 
 augmentation part      -20.3664125 magnetization 

 Broyden mixing:
  rms(total) = 0.23624E-02    rms(broyden)= 0.60096E-01
  rms(prec ) = 0.39654E-02
  weight for this iteration     100.00
  WARNING: grid for Broyden might be to small

 eigenvalues of (default mixing * dielectric matrix)
  average eigenvalue GAMMA=   1.1407
  2.5564  2.3355  0.9884  0.9264  0.3765  0.6875  0.6353  0.6195

 Free energy of the ion-electron system (eV)
  ---------------------------------------------------
  alpha Z        PSCENC =       126.55860261
  Ewald energy   TEWEN  =     -7200.95839819
  -Hartree energ DENC   =     -3320.65472467
  -exchange      EXHF   =         0.00000000
  -V(xc)+E(xc)   XCENC  =      -439.63282978
  PAW double counting   =     52788.06562973   -51870.11664169
  entropy T*S    EENTRO =        -0.10294267
  eigenvalues    EBANDS =      -512.53445966
  atomic energy  EATOM  =      9532.10233977
  Solvation  Ediel_sol  =         0.00000000
  ---------------------------------------------------
  free energy    TOTEN  =      -897.27342453 eV

  energy without entropy =     -897.17048187  energy(sigma->0) =     -897.22195320


--------------------------------------------------------------------------------------------------------




--------------------------------------- Iteration      1(  10)  ---------------------------------------


    POTLOK:  cpu time      0.7429: real time      0.7618
    SETDIJ:  cpu time      1.3185: real time      1.3194
    EDDIAG:  cpu time     22.4326: real time     22.4523
     EDDAV:  cpu time    109.2049: real time    109.3013
       DOS:  cpu time      0.0051: real time      0.0051
    CHARGE:  cpu time      9.6044: real time      9.6139
    MIXING:  cpu time      0.0163: real time      0.0163
    --------------------------------------------
      LOOP:  cpu time    143.3244: real time    143.4699

 eigenvalue-minimisations  :  4208
 total energy-change (2. order) :-0.1780182E-04  (-0.1233730E-04)
 number of electron     371.9999999 magnetization 
 augmentation part      -20.3663990 magnetization 

 Broyden mixing:
  rms(total) = 0.10458E-02    rms(broyden)= 0.15819E-01
  rms(prec ) = 0.16864E-02
  weight for this iteration     100.00
  WARNING: grid for Broyden might be to small

 eigenvalues of (default mixing * dielectric matrix)
  average eigenvalue GAMMA=   1.2144
  2.9562  2.6168  1.2319  1.0378  0.3763  0.8245  0.6587  0.6307  0.5972

 Free energy of the ion-electron system (eV)
  ---------------------------------------------------
  alpha Z        PSCENC =       126.55860261
  Ewald energy   TEWEN  =     -7200.95839819
  -Hartree energ DENC   =     -3320.62487305
  -exchange      EXHF   =         0.00000000
  -V(xc)+E(xc)   XCENC  =      -439.64272778
  PAW double counting   =     52784.14224656   -51866.19142286
  entropy T*S    EENTRO =        -0.10298992
  eigenvalues    EBANDS =      -512.55621949
  atomic energy  EATOM  =      9532.10233977
  Solvation  Ediel_sol  =         0.00000000
  ---------------------------------------------------
  free energy    TOTEN  =      -897.27344234 eV

  energy without entropy =     -897.17045242  energy(sigma->0) =     -897.22194738


--------------------------------------------------------------------------------------------------------




--------------------------------------- Iteration      1(  11)  ---------------------------------------


    POTLOK:  cpu time      0.7457: real time      0.7614
    SETDIJ:  cpu time      1.3140: real time      1.3145
    EDDIAG:  cpu time     22.5754: real time     22.5954
     EDDAV:  cpu time    110.4726: real time    110.5709
       DOS:  cpu time      0.0034: real time      0.0034
    CHARGE:  cpu time      9.5895: real time      9.5983
    MIXING:  cpu time      0.0167: real time      0.0167
    --------------------------------------------
      LOOP:  cpu time    144.7173: real time    144.8607

 eigenvalue-minimisations  :  4280
 total energy-change (2. order) :-0.2457818E-04  (-0.4777183E-05)
 number of electron     371.9999999 magnetization 
 augmentation part      -20.3664671 magnetization 

 Broyden mixing:
  rms(total) = 0.60172E-03    rms(broyden)= 0.16383E-01
  rms(prec ) = 0.10233E-02
  weight for this iteration     100.00
  WARNING: grid for Broyden might be to small

 eigenvalues of (default mixing * dielectric matrix)
  average eigenvalue GAMMA=   1.2222
  3.2329  2.6108  1.4140  0.9928  0.9928  0.3762  0.7372  0.6435  0.6217  0.6001

 Free energy of the ion-electron system (eV)
  ---------------------------------------------------
  alpha Z        PSCENC =       126.55860261
  Ewald energy   TEWEN  =     -7200.95839819
  -Hartree energ DENC   =     -3320.56440874
  -exchange      EXHF   =         0.00000000
  -V(xc)+E(xc)   XCENC  =      -439.65177191
  PAW double counting   =     52778.94803174   -51860.99611293
  entropy T*S    EENTRO =        -0.10302863
  eigenvalues    EBANDS =      -512.60872063
  atomic energy  EATOM  =      9532.10233977
  Solvation  Ediel_sol  =         0.00000000
  ---------------------------------------------------
  free energy    TOTEN  =      -897.27346691 eV

  energy without entropy =     -897.17043828  energy(sigma->0) =     -897.22195260


--------------------------------------------------------------------------------------------------------




--------------------------------------- Iteration      1(  12)  ---------------------------------------


    POTLOK:  cpu time      0.7440: real time      0.7599
    SETDIJ:  cpu time      1.3163: real time      1.3169
    EDDIAG:  cpu time     22.5400: real time     22.5594
     EDDAV:  cpu time    108.7979: real time    108.8964
       DOS:  cpu time      0.0038: real time      0.0038
    CHARGE:  cpu time      9.6405: real time      9.6496
    MIXING:  cpu time      0.0168: real time      0.0168
    --------------------------------------------
      LOOP:  cpu time    143.0593: real time    143.2028

 eigenvalue-minimisations  :  4184
 total energy-change (2. order) :-0.8214258E-05  (-0.1986304E-05)
 number of electron     371.9999999 magnetization 
 augmentation part      -20.3665260 magnetization 

 Broyden mixing:
  rms(total) = 0.26108E-03    rms(broyden)= 0.13693E-01
  rms(prec ) = 0.44805E-03
  weight for this iteration     100.00
  WARNING: grid for Broyden might be to small

 eigenvalues of (default mixing * dielectric matrix)
  average eigenvalue GAMMA=   1.2483
  3.3705  2.6370  1.7196  1.1045  1.1045  0.8633  0.3762  0.6951  0.6310  0.6145
  0.6145

 Free energy of the ion-electron system (eV)
  ---------------------------------------------------
  alpha Z        PSCENC =       126.55860261
  Ewald energy   TEWEN  =     -7200.95839819
  -Hartree energ DENC   =     -3320.52606635
  -exchange      EXHF   =         0.00000000
  -V(xc)+E(xc)   XCENC  =      -439.66075499
  PAW double counting   =     52779.21394429   -51861.26216269
  entropy T*S    EENTRO =        -0.10302205
  eigenvalues    EBANDS =      -512.63795753
  atomic energy  EATOM  =      9532.10233977
  Solvation  Ediel_sol  =         0.00000000
  ---------------------------------------------------
  free energy    TOTEN  =      -897.27347513 eV

  energy without entropy =     -897.17045308  energy(sigma->0) =     -897.22196410


--------------------------------------------------------------------------------------------------------




--------------------------------------- Iteration      1(  13)  ---------------------------------------


    POTLOK:  cpu time      0.7476: real time      0.7593
    SETDIJ:  cpu time      1.3138: real time      1.3143
    EDDIAG:  cpu time     22.5146: real time     22.5328
     EDDAV:  cpu time    105.1098: real time    105.2032
       DOS:  cpu time      0.0068: real time      0.0069
    CHARGE:  cpu time      9.5425: real time      9.5507
    MIXING:  cpu time      0.0170: real time      0.0170
    --------------------------------------------
      LOOP:  cpu time    139.2521: real time    139.3841

 eigenvalue-minimisations  :  3944
 total energy-change (2. order) :-0.2575005E-05  (-0.7893834E-06)
 number of electron     371.9999999 magnetization 
 augmentation part      -20.3665540 magnetization 

 Broyden mixing:
  rms(total) = 0.20342E-03    rms(broyden)= 0.43633E-02
  rms(prec ) = 0.42661E-03
  weight for this iteration     100.00
  WARNING: grid for Broyden might be to small

 eigenvalues of (default mixing * dielectric matrix)
  average eigenvalue GAMMA=   1.2814
  3.5924  2.6189  2.2306  1.2303  1.0216  0.9541  0.3763  0.8392  0.6736  0.6259
  0.6259  0.5886

 Free energy of the ion-electron system (eV)
  ---------------------------------------------------
  alpha Z        PSCENC =       126.55860261
  Ewald energy   TEWEN  =     -7200.95839819
  -Hartree energ DENC   =     -3320.49933720
  -exchange      EXHF   =         0.00000000
  -V(xc)+E(xc)   XCENC  =      -439.66530229
  PAW double counting   =     52779.51032603   -51861.55884793
  entropy T*S    EENTRO =        -0.10301477
  eigenvalues    EBANDS =      -512.65984575
  atomic energy  EATOM  =      9532.10233977
  Solvation  Ediel_sol  =         0.00000000
  ---------------------------------------------------
  free energy    TOTEN  =      -897.27347770 eV

  energy without entropy =     -897.17046294  energy(sigma->0) =     -897.22197032


--------------------------------------------------------------------------------------------------------




--------------------------------------- Iteration      1(  14)  ---------------------------------------


    POTLOK:  cpu time      0.7585: real time      0.7598
    SETDIJ:  cpu time      1.3158: real time      1.3164
    EDDIAG:  cpu time     22.4678: real time     22.4885
     EDDAV:  cpu time     98.3375: real time     98.4263
       DOS:  cpu time      0.0046: real time      0.0046
    CHARGE:  cpu time      9.6156: real time      9.6246
    MIXING:  cpu time      0.0173: real time      0.0173
    --------------------------------------------
      LOOP:  cpu time    132.5172: real time    132.6374

 eigenvalue-minimisations  :  3512
 total energy-change (2. order) :-0.2475776E-05  (-0.3808959E-06)
 number of electron     371.9999999 magnetization 
 augmentation part      -20.3665616 magnetization 

 Broyden mixing:
  rms(total) = 0.86194E-04    rms(broyden)= 0.24260E-02
  rms(prec ) = 0.14648E-03
  weight for this iteration     100.00
  WARNING: grid for Broyden might be to small

 eigenvalues of (default mixing * dielectric matrix)
  average eigenvalue GAMMA=   1.2954
  3.7713  2.5534  2.5534  1.2732  1.1441  1.0238  0.8891  0.3763  0.7607  0.6646
  0.6289  0.6289  0.5731

 Free energy of the ion-electron system (eV)
  ---------------------------------------------------
  alpha Z        PSCENC =       126.55860261
  Ewald energy   TEWEN  =     -7200.95839819
  -Hartree energ DENC   =     -3320.47742696
  -exchange      EXHF   =         0.00000000
  -V(xc)+E(xc)   XCENC  =      -439.66668633
  PAW double counting   =     52779.61305965   -51861.66181006
  entropy T*S    EENTRO =        -0.10302178
  eigenvalues    EBANDS =      -512.68013889
  atomic energy  EATOM  =      9532.10233977
  Solvation  Ediel_sol  =         0.00000000
  ---------------------------------------------------
  free energy    TOTEN  =      -897.27348018 eV

  energy without entropy =     -897.17045840  energy(sigma->0) =     -897.22196929


--------------------------------------------------------------------------------------------------------




--------------------------------------- Iteration      1(  15)  ---------------------------------------


    POTLOK:  cpu time      0.7437: real time      0.7594
    SETDIJ:  cpu time      1.3171: real time      1.3177
    EDDIAG:  cpu time     22.3939: real time     22.4134
     EDDAV:  cpu time     89.1200: real time     89.1939
[...]
   -.105E+03 -.589E+02 0.453E+02   0.105E+03 0.591E+02 -.453E+02   0.438E+00 -.187E+00 -.746E-01   -.444E-04 0.266E-05 0.161E-03
   -.174E+02 0.932E+01 -.222E+02   0.192E+02 -.125E+02 0.211E+02   -.222E+01 0.253E+01 0.130E+01   -.108E-03 0.289E-04 0.116E-03
   0.245E+02 0.434E+02 0.363E+02   -.216E+02 -.432E+02 -.337E+02   -.280E+01 0.341E+00 -.228E+01   0.180E-03 -.999E-04 0.815E-04
   0.577E+00 -.354E+02 -.225E+02   -.442E+00 0.341E+02 0.218E+02   0.889E+00 0.233E+01 0.118E+01   -.119E-03 -.233E-03 -.975E-04
   -.230E+02 -.129E+00 -.156E+02   0.240E+02 0.222E+00 0.160E+02   -.707E+00 -.205E+00 0.775E+00   0.895E-04 -.128E-03 -.368E-05
   -.349E+02 0.596E+02 -.223E+02   0.353E+02 -.535E+02 0.226E+02   -.213E+00 -.640E+01 -.106E+01   0.429E-04 -.557E-04 0.464E-04
   -.391E+01 0.424E+02 0.974E+01   0.521E+01 -.405E+02 -.887E+01   -.137E+01 -.131E+01 -.138E+01   0.740E-04 -.120E-03 -.106E-03
   -.471E+02 0.322E+02 0.564E+02   0.481E+02 -.342E+02 -.550E+02   -.116E+01 0.125E+01 -.403E+00   0.206E-03 0.137E-03 0.655E-04
   0.275E+02 0.607E+02 -.895E+01   -.294E+02 -.594E+02 0.105E+02   0.255E+01 -.101E+01 -.232E+01   0.622E-04 0.819E-04 -.438E-03
   -.243E+02 -.110E+03 0.415E+02   0.238E+02 0.106E+03 -.407E+02   0.962E+00 0.331E+01 -.200E+01   0.143E-03 -.172E-03 0.163E-03
   0.296E+02 -.677E+00 0.537E+01   -.277E+02 0.194E+01 -.596E+01   -.250E+01 -.120E+01 0.982E+00   -.390E-04 0.214E-03 -.378E-04
   0.135E+02 -.302E+02 0.957E+01   -.125E+02 0.296E+02 -.790E+01   -.573E+00 0.151E+01 -.200E+01   -.101E-04 0.596E-04 -.652E-04
   0.175E+02 0.547E+02 -.312E+02   -.173E+02 -.543E+02 0.291E+02   0.194E+00 -.417E+00 0.260E+01   0.125E-03 0.231E-04 0.270E-04
   0.227E+01 -.106E+02 -.440E+01   -.427E+01 0.135E+02 0.418E+01   0.195E+01 -.301E+01 0.610E+00   -.195E-03 -.210E-03 0.669E-04
   -.257E+02 0.225E+01 0.180E+02   0.257E+02 -.464E+00 -.160E+02   -.143E+01 -.154E+01 -.146E+01   -.227E-04 0.175E-04 -.614E-04
   -.868E+02 0.469E+02 -.247E+01   0.848E+02 -.458E+02 0.352E+01   0.229E+01 -.180E+01 -.112E+01   -.126E-03 0.720E-04 -.756E-04
   -.278E+02 -.137E+02 -.181E+02   0.272E+02 0.125E+02 0.181E+02   0.198E+01 0.118E+01 -.707E+00   -.988E-04 0.217E-03 -.619E-04
   -.117E+02 -.119E+02 -.587E+01   0.115E+02 0.119E+02 0.566E+01   0.166E+00 -.100E+01 0.143E+00   0.312E-04 -.192E-03 -.222E-04
   0.267E+02 0.176E+02 -.217E+02   -.264E+02 -.171E+02 0.194E+02   -.147E+01 -.871E+00 0.904E+00   -.186E-03 -.244E-03 0.706E-04
   -.422E+02 -.588E+02 0.270E+01   0.396E+02 0.580E+02 -.149E+01   0.357E+01 0.972E+00 -.608E+00   0.137E-03 -.201E-03 -.101E-03
   -.827E+02 0.446E+01 -.444E+02   0.804E+02 -.803E+00 0.434E+02   0.369E+01 -.250E+01 0.994E+00   0.109E-03 0.213E-03 -.126E-03
   -.771E+02 -.509E+02 -.374E+02   0.743E+02 0.488E+02 0.367E+02   0.232E+01 0.169E+01 0.813E-01   0.199E-03 0.209E-03 -.161E-03
   0.220E+02 0.156E+02 -.176E+02   -.218E+02 -.168E+02 0.162E+02   -.103E+01 0.565E+00 0.121E+01   -.834E-04 -.215E-04 -.286E-04
   -.816E+01 -.645E+02 -.419E+02   0.804E+01 0.615E+02 0.404E+02   -.113E+01 0.331E+01 0.154E+01   0.849E-04 -.144E-03 -.934E-04
   0.822E+01 0.367E+01 0.337E+02   -.899E+01 -.201E+01 -.307E+02   0.201E+00 -.126E+01 -.317E+01   -.136E-03 -.158E-03 -.700E-04
   -.372E+02 -.405E+02 0.711E+01   0.391E+02 0.417E+02 -.657E+01   -.151E+01 -.240E+01 -.115E+00   0.577E-04 -.215E-03 -.182E-04
   -.368E+02 0.179E+02 0.937E+01   0.344E+02 -.198E+02 -.851E+01   0.245E+01 0.203E+01 -.686E+00   0.507E-04 -.240E-04 -.480E-04
   0.191E+02 -.901E+02 0.345E+02   -.192E+02 0.877E+02 -.343E+02   0.424E+00 0.192E+01 -.819E-02   0.717E-04 -.124E-03 0.158E-03
   0.157E+02 -.210E+02 0.108E+02   -.156E+02 0.204E+02 -.101E+02   -.753E+00 0.633E+00 -.210E+01   -.733E-04 -.129E-03 0.887E-04
   0.238E+02 0.988E+01 0.746E+01   -.206E+02 -.652E+01 -.591E+01   -.330E+01 -.346E+01 -.245E+01   -.878E-04 -.173E-03 -.271E-04
   0.292E+02 -.755E+01 0.420E+01   -.282E+02 0.555E+01 -.614E+01   -.179E+01 0.224E+01 0.249E+01   -.102E-03 -.175E-03 0.931E-05
   0.744E+02 -.127E+02 -.122E+02   -.735E+02 0.109E+02 0.124E+02   -.781E+00 0.783E+00 -.727E+00   -.188E-03 0.168E-03 -.577E-04
   0.154E+02 -.553E+00 0.352E+02   -.158E+02 -.101E+01 -.338E+02   0.157E+01 0.973E+00 -.596E+00   -.187E-03 0.473E-04 -.553E-05
   0.704E+01 0.712E+02 0.276E+02   -.741E+01 -.699E+02 -.272E+02   0.123E+01 -.507E+00 -.885E+00   0.450E-03 -.170E-04 -.227E-03
   0.732E+02 0.893E+01 -.220E+02   -.721E+02 -.677E+01 0.223E+02   -.219E+01 -.231E+01 -.244E+00   -.389E-04 0.154E-03 -.602E-04
   -.291E+02 -.621E+02 -.348E+02   0.286E+02 0.616E+02 0.330E+02   0.185E+01 0.107E+01 0.241E+01   0.174E-03 0.648E-04 -.350E-04
   -.775E+02 -.301E+02 0.256E+02   0.762E+02 0.268E+02 -.251E+02   0.768E+00 0.319E+01 0.232E+00   -.478E-04 0.115E-03 0.128E-03
   -.367E+02 -.112E+02 0.247E+02   0.354E+02 0.926E+01 -.217E+02   0.319E+00 0.198E+01 -.406E+01   0.325E-04 0.207E-03 0.162E-04
   -.892E+01 -.412E+02 0.237E+02   0.110E+02 0.411E+02 -.225E+02   -.329E+01 0.938E+00 -.224E+01   0.127E-03 -.159E-03 0.519E-04
 -----------------------------------------------------------------------------------------------
   -.113E+02 -.624E+01 0.200E+02   0.480E-13 0.107E-12 -.217E-12   0.113E+02 0.625E+01 -.200E+02   -.721E-03 -.188E-02 -.219E-02


 POSITION                                       TOTAL-FORCE (eV/Angst)
 -----------------------------------------------------------------------------------
      1.92977      8.65457      1.95468         0.182308      0.445615     -0.393046
     14.11840      8.86605     10.69906        -0.323579     -0.217575      0.205403
     10.53010      0.13730      6.92265         0.128326      0.514137      0.940027
      1.36618      6.79597     10.13430        -0.191837      0.281757      0.736090
      3.55096     11.71620      2.20047         1.087561     -0.475885     -0.794755
      6.08226      0.76220      3.22960         0.253342      0.064198      0.923071
     13.47250     12.03050      0.34595        -0.193762      0.728699      0.362087
      8.79077      0.88807      0.77719         0.206116      0.747372     -0.112137
      6.18921      9.46318     10.75370        -1.691300      0.674952      0.310749
      1.27672      0.86577      4.37228         0.020054      0.421644      0.611993
     11.07930     12.11810      0.91940        -0.006801      0.483681      0.003667
      7.66051     12.11820      2.14121        -0.511757      0.489132      0.159379
      1.34659      9.85238      6.46894        -0.718877     -0.097470      0.529607
      4.88885      8.90054      7.05974         1.224644     -0.137160     -0.992452
      9.55246      0.48701      9.54367         0.586536      0.016239      0.289847
     10.87730      4.43950      9.76502        -0.597772      0.843056     -0.300024
      6.34142      4.13048      1.73571         0.144955     -0.378381     -0.560883
     12.91530     13.74250      9.63135         0.472862     -1.459557     -0.459237
     14.06220      1.55695      6.05630         0.611418     -1.479704     -0.411595
      9.50474      5.26752      0.62534         0.216397     -1.257248     -0.206323
      1.74917      4.11155      3.82547        -0.460546      0.512411      0.710907
     11.96820      1.49635      1.62573        -1.440431      0.849591     -0.821047
      5.62792     10.21520      4.93257         0.375447     -0.301695      0.203526
      8.08729      3.24552      0.34894         0.312345     -0.169450      0.977476
     11.31270      2.76246      3.44905        -0.259094      0.956690      0.291345
      2.97322      9.45336      1.17722         0.862201     -0.467865      1.787438
     11.26430      4.75991      6.48418         0.291274      0.243767      0.192721
      2.76466      8.72067      7.95128        -1.349668      0.100123      0.615477
      5.12897      8.05160      1.37301        -0.551553      1.258994      0.032501
      6.49869      8.64091      3.29952        -0.531567     -0.119124     -0.220402
      7.57167      0.68632      8.32451         0.115682      0.889025      1.239239
      8.35533      9.08095     10.79960         1.514083      0.459736     -1.081887
      6.03025      6.59780      6.96287        -0.011977     -0.020244      0.472421
     14.08840     12.91150      7.77141         0.263743     -0.508306      0.289861
      9.12101     12.46930      5.96881        -0.443249      0.367994      0.476744
      8.42367      9.95502      8.46186        -0.864122     -0.462289      1.043039
      3.16946      1.39853      1.08470        -0.044794      0.169484     -0.427945
      2.85916     12.39970      9.64569         0.338031      0.008689      0.434738
      3.90861      1.77591      9.51078         0.499076     -1.614571      0.931543
     10.84140     14.00300      5.67295         0.442258      0.209809     -1.228689
      0.58401     13.14990      4.42882        -0.460402     -0.074581     -1.456006
      7.28643     14.09280      6.34499         1.080948      0.490610     -0.370927
      5.04795      3.54598      8.55000         0.984315      1.411573      0.424511
      9.96331      4.80103      2.98937         0.132580     -0.599580     -0.293528
      8.15292      6.37435      8.21611        -0.941564     -0.975858     -0.031806
      2.00559      6.51619      8.86414         1.034994     -0.543640     -1.299667
      4.28846     12.08350      4.43888        -0.887417     -0.288890      0.402245
      0.02862     10.18460     10.21710        -0.952349      0.004973     -0.575914
     14.09940      1.09497      1.32281         1.105100     -0.229391     -0.964804
      3.75278      3.27329      4.75708         0.761159      0.514834     -1.251898
      2.22683     11.84800      5.65256        -0.142103      0.967810      0.199006
      1.94684     13.40260      7.62600        -0.824703     -2.105817      0.475549
      2.43846     13.42700      0.95808         0.374957      0.164350     -0.239967
      7.59195      3.44161      5.57280        -0.591521      0.650450      1.264652
      4.81775      2.51654      2.48967        -0.772110      0.148107      0.845780
      5.32180      4.28231      6.29213         0.506353     -0.415710     -0.051261
      8.77969      9.50067      3.39814        -0.012470     -0.333360      0.205982
     10.99390      6.16102      4.59462         0.224582     -0.080705     -0.034215
      7.82226     11.32360      4.43251        -0.528856     -0.540520      0.177454
     13.24390     13.72540      5.78054        -0.021565      0.589621      0.213468
      2.46265      1.06130      7.74497         1.050737      1.134746      0.590815
      9.99902      0.88961      3.96898         0.303924     -0.132841      1.221464
     10.46390     14.33600      2.01310         0.137094     -0.600081     -0.835042
     10.69620     12.93540      9.64226        -0.088884      0.515404     -0.568475
     11.87420      9.84782      7.28848        -0.159001     -0.702832      1.168661
      2.28837     10.10550     10.00070         0.768503      0.265861     -0.894710
      0.13700      4.55055      5.54353         0.494899     -0.758566     -1.270426
      7.44801      6.83735      4.50780        -0.675254      0.029074      0.413530
      7.66581      4.61593      3.63716         0.457857      1.019331     -0.411885
      0.21867     13.34980      1.83731         0.392132      0.061785      0.625033
      3.33637      1.18048      5.56629         0.049384     -0.306807      0.438814
      9.24800      4.25343      7.72857        -1.502713      0.275283      0.441111
      9.30457     10.65390      1.40984         0.313117     -0.858499     -0.087216
      7.89081      6.74250     10.65730         1.440059      0.118930     -0.760764
      7.83994      1.32966      4.75328        -0.101103     -1.061458     -0.046565
      5.24380     14.20430      5.22267        -1.246220     -0.477631     -1.371792
     13.43140      1.45254      9.82158         1.176467      0.164747      0.581480
     11.34370      7.85075      8.43777         1.527118      1.020990     -0.211119
     12.42600      5.68394      8.45799        -0.502863     -0.328875     -0.782682
      5.71819     11.48900      1.04172        -0.865134     -0.598436     -0.223387
      0.51199      2.26611      8.10668        -1.360861      0.456978      0.047032
      5.26846     12.29910      9.79364        -0.556020      0.306497     -0.304637
     11.26750      2.25696     10.19700         0.311388     -1.390854      0.413658
     10.09870     11.39450      7.87576         0.178477      0.212509      0.132364
      1.28141      2.24992      2.38502         0.334146     -0.414970      0.311405
      7.49101      3.00877      9.04050        -0.622825      0.051393     -1.469484
      6.92111     14.27100      1.36876        -0.162688     -0.313148     -1.011758
      5.97087      0.00666      9.86834        -0.875702      0.311307      0.682179
      4.49046      5.86328      9.27825         0.074618     -1.042590     -0.604593
      5.94193     10.39000      8.50033         1.309959     -0.624087      0.903871
     13.99420     10.49710      7.91862         0.916620      0.845828     -0.500407
      5.80841      6.06380      0.41071        -1.151137     -0.232534      0.116157
      0.10995      4.79582      7.84690         1.397024      0.615521      0.684084
      9.51437      7.86323      4.99900        -0.513878      0.068359      0.725274
      9.36191      8.09720      7.41879        -0.924973      0.163032     -1.303683
     12.74380      3.23942      5.40158        -1.350172      0.882089     -1.237438
 -----------------------------------------------------------------------------------
    total drift:                                0.000822      0.007453      0.006214


--------------------------------------------------------------------------------------------------------



  FREE ENERGIE OF THE ION-ELECTRON SYSTEM (eV)
  ---------------------------------------------------
  free  energy   TOTEN  =      -897.27348110 eV

  energy  without entropy=     -897.17045391  energy(sigma->0) =     -897.22196751



--------------------------------------------------------------------------------------------------------


    POTLOK:  cpu time      2.0817: real time      2.0911


--------------------------------------------------------------------------------------------------------


     LOOP+:  cpu time   2324.3985: real time   2326.6676
    4ORBIT:  cpu time      0.0000: real time      0.0000



 total charge

# of ion       s       p       d       tot
------------------------------------------
    1        0.551   0.014   0.000   0.565
    2        0.575   0.016   0.000   0.592
    3        0.587   0.018   0.000   0.606
    4        0.584   0.018   0.000   0.601
    5        0.752   0.876   0.000   1.628
    6        0.755   0.955   0.000   1.710
    7        0.751   0.898   0.000   1.648
    8        0.762   0.939   0.000   1.701
    9        0.769   0.958   0.000   1.727
   10        0.773   0.874   0.000   1.647
   11        0.759   0.866   0.000   1.625
   12        0.754   0.930   0.000   1.684
   13        0.787   0.859   0.000   1.647
   14        0.756   0.864   0.000   1.620
   15        0.756   0.913   0.000   1.668
   16        0.764   0.891   0.000   1.655
   17        0.750   0.917   0.000   1.667
   18        0.755   0.947   0.000   1.702
   19        0.764   0.901   0.000   1.665
   20        0.756   0.886   0.000   1.642
   21        0.783   0.836   0.000   1.618
   22        0.763   0.961   0.000   1.725
   23        0.760   0.852   0.000   1.612
   24        0.759   0.893   0.000   1.652
   25        0.752   0.911   0.000   1.663
   26        0.744   0.884   0.000   1.628
   27        0.771   0.863   0.000   1.634
   28        0.749   0.890   0.000   1.640
   29        0.757   0.898   0.000   1.655
   30        0.757   0.888   0.000   1.645
   31        0.749   0.951   0.000   1.700
   32        0.754   0.948   0.000   1.701
   33        0.759   0.804   0.000   1.563
   34        0.753   0.927   0.000   1.680
   35        0.752   0.922   0.000   1.673
   36        0.758   0.908   0.000   1.666
   37        0.756   0.811   0.000   1.567
   38        0.750   0.887   0.000   1.637
   39        0.758   0.845   0.000   1.603
   40        0.749   0.968   0.000   1.717
   41        0.757   0.881   0.000   1.638
   42        0.750   0.926   0.000   1.676
   43        0.750   0.889   0.000   1.640
   44        0.749   0.886   0.000   1.635
   45        0.759   0.901   0.000   1.660
   46        0.754   0.853   0.000   1.607
   47        0.749   0.907   0.000   1.655
   48        0.743   0.981   0.000   1.724
   49        0.757   0.945   0.000   1.702
   50        0.753   0.893   0.000   1.646
   51        0.759   0.873   0.000   1.631
   52        0.757   0.906   0.000   1.663
   53        0.753   0.861   0.000   1.613
   54        0.775   0.884   0.000   1.659
   55        0.753   0.909   0.000   1.661
   56        0.761   0.839   0.000   1.600
   57        0.762   0.914   0.000   1.676
   58        0.792   0.875   0.000   1.667
   59        0.760   0.902   0.000   1.662
   60        0.750   0.911   0.000   1.661
   61        0.751   0.960   0.000   1.711
   62        0.755   0.953   0.000   1.708
   63        0.755   0.943   0.000   1.697
   64        0.753   0.924   0.000   1.676
   65        0.794   0.847   0.000   1.641
   66        0.752   0.941   0.000   1.693
   67        0.785   0.858   0.000   1.643
   68        0.789   0.844   0.000   1.633
   69        0.753   0.944   0.000   1.697
   70        0.756   0.875   0.000   1.631
   71        0.753   0.929   0.000   1.682
   72        0.750   0.842   0.000   1.591
   73        0.756   0.919   0.000   1.675
   74        0.754   0.913   0.000   1.667
   75        0.757   0.940   0.000   1.698
   76        0.753   0.880   0.000   1.633
   77        0.761   0.887   0.000   1.648
   78        0.793   0.861   0.000   1.654
   79        0.755   0.875   0.000   1.630
   80        0.760   0.927   0.000   1.687
   81        0.760   0.873   0.000   1.633
   82        0.763   0.903   0.000   1.665
   83        0.759   0.895   0.000   1.654
   84        0.748   0.914   0.000   1.663
   85        0.754   0.904   0.000   1.657
   86        0.768   0.858   0.000   1.625
   87        0.755   0.923   0.000   1.679
   88        0.775   0.847   0.000   1.622
   89        0.782   0.782   0.000   1.564
   90        0.759   0.885   0.000   1.643
   91        0.752   0.921   0.000   1.673
   92        0.755   0.924   0.000   1.679
   93        0.764   0.813   0.000   1.577
   94        0.755   0.923   0.000   1.678
   95        0.757   0.965   0.000   1.723
   96        0.752   0.939   0.000   1.691
--------------------------------------------------
tot         72.128  82.650   0.000 154.778


 total amount of memory used by VASP MPI-rank0   193425. kBytes
=======================================================================

   base                                    :      30000. kBytes
   nonl-proj                               :      34836. kBytes
   fftplans                                :      42984. kBytes
   grid                                    :      33148. kBytes
   one-center                              :         18. kBytes
   wavefun                                 :      52439. kBytes

  
  
 General timing and accounting informations for this job:
 ========================================================
  
                  Total CPU time used (sec):     2393.938
                            User time (sec):     2385.685
                          System time (sec):        8.253
                         Elapsed time (sec):     2396.310
  
                   Maximum memory used (kb):      355492.
                   Average memory used (kb):          N/A
  
                          Minor page faults:       300796
                          Major page faults:         1138
                 Voluntary context switches:         2546
