 vasp.6.5.0 16Dec24 (build Jan 20 2025 08:32:48) complex                         
 executed on        HPECrayEX_GCC date 2025.07.22  06:45:30
 running  128 mpi-ranks, with    1 threads/rank, on    1 nodes
 distrk:  each k-point on  128 cores,    1 groups
 distr:  one band on NCORE=  16 cores,    8 groups


--------------------------------------------------------------------------------------------------------


 INCAR:
   SYSTEM = a-Si SPC
   NCORE = 16
   ISTART = 1
   ICHARG = 1
   ISPIN = 1
   ISYM = 1
   EDIFF = 1E-6
   NELM = 150
   EDIFFG = -0.01
   NSW = 0
   ISIF = 2
   IBRION = -1
   PREC = Accurate
   ENCUT = 1200
   KSPACING = 0.23
   KGAMMA = .TRUE.
   METAGGA = SCAN
   LASPH = .TRUE.
   LDIAG = .FALSE.
   LMIXTAU = .TRUE.
   ADDGRID = .TRUE.
   ALGO = Normal
   ISMEAR = 0
   SIGMA = 0.1
   LORBIT = 11
   NEDOS = 2000
   LWAVE = .FALSE.
   LCHARG = .FALSE.

 POTCAR:    PAW_PBE H 15Jun2001                   
 POTCAR:    PAW_PBE Si 05Jan2001                  
 POTCAR:    PAW_PBE H 15Jun2001                   
   SHA256 =  030f79b5d3ab3cf0e668861823c8fb652ff669f3e15e46930bd03bfd63a607b6 H/POTCAR              
   COPYR  = (c) Copyright 15Jun2001 Georg Kresse                                                    
   COPYR  = This file is part of the software VASP. Any use, copying, and all other rights are regul
   COPYR  = If you do not have a valid VASP license, you may not use, copy or distribute this file. 
   VRHFIN =H: ultrasoft test                                                                        
   LEXCH  = PE                                                                                      
   EATOM  =    12.4884 eV,    0.9179 Ry                                                             
                                                                                                    
   TITEL  = PAW_PBE H 15Jun2001                                                                     
   LULTRA =        F    use ultrasoft PP ?                                                          
   IUNSCR =        0    unscreen: 0-lin 1-nonlin 2-no                                               
   RPACOR =    0.000    partial core radius                                                         
   POMASS =    1.000; ZVAL   =    1.000    mass and valenz                                          
   RCORE  =    1.100    outmost cutoff radius                                                       
   RWIGS  =    0.700; RWIGS  =    0.370    wigner-seitz radius (au A)                               
   ENMAX  =  250.000; ENMIN  =  200.000 eV                                                          
   RCLOC  =    0.701    cutoff for local pot                                                        
   LCOR   =        T    correct aug charges                                                         
   LPAW   =        T    paw PP                                                                      
   EAUG   =  400.000                                                                                
   RMAX   =    1.123    core radius for proj-oper                                                   
   RAUG   =    1.200    factor for augmentation sphere                                              
   RDEP   =    1.112    radius for radial grids                                                     
   RDEPT  =    0.926    core radius for aug-charge                                                  
                                                                                                    
   Atomic configuration                                                                             
    2 entries                                                                                       
     n  l   j            E        occ.                                                              
     1  0  0.50        -6.4927   1.0000                                                             
     2  1  0.50        -3.4015   0.0000                                                             
   Description                                                                                      
     l       E           TYP  RCUT    TYP  RCUT                                                     
     0     -6.4927494     23  1.100                                                                 
     0      6.8029130     23  1.100                                                                 
     1     -4.0817478     23  1.100                                                                 
  local pseudopotential read in
  atomic valenz-charges read in
  non local Contribution for L=           0  read in
    real space projection operators read in
  non local Contribution for L=           0  read in
    real space projection operators read in
  non local Contribution for L=           1  read in
    real space projection operators read in
    PAW grid and wavefunctions read in

   number of l-projection  operators is LMAX  =           3
   number of lm-projection operators is LMMAX =           5

 POTCAR:    PAW_PBE Si 05Jan2001                  
   SHA256 =  79d9987ad8750f624c4d6acb2a16d13abf6a777132adc04dc6c8399be72b42bb Si/POTCAR             
   COPYR  = (c) Copyright 05Jan2001 Georg Kresse                                                    
   COPYR  = This file is part of the software VASP. Any use, copying, and all other rights are regul
   COPYR  = If you do not have a valid VASP license, you may not use, copy or distribute this file. 
   VRHFIN =Si: s2p2                                                                                 
   LEXCH  = PE                                                                                      
   EATOM  =   103.0669 eV,    7.5752 Ry                                                             
                                                                                                    
   TITEL  = PAW_PBE Si 05Jan2001                                                                    
   LULTRA =        F    use ultrasoft PP ?                                                          
   IUNSCR =        1    unscreen: 0-lin 1-nonlin 2-no                                               
   RPACOR =    1.500    partial core radius                                                         
   POMASS =   28.085; ZVAL   =    4.000    mass and valenz                                          
   RCORE  =    1.900    outmost cutoff radius                                                       
   RWIGS  =    2.480; RWIGS  =    1.312    wigner-seitz radius (au A)                               
   ENMAX  =  245.345; ENMIN  =  184.009 eV                                                          
   ICORE  =        2    local potential                                                             
   LCOR   =        T    correct aug charges                                                         
   LPAW   =        T    paw PP                                                                      
   EAUG   =  322.069                                                                                
   DEXC   =    0.000                                                                                
   RMAX   =    1.950    core radius for proj-oper                                                   
   RAUG   =    1.300    factor for augmentation sphere                                              
   RDEP   =    1.993    radius for radial grids                                                     
   RDEPT  =    1.837    core radius for aug-charge                                                  
                                                                                                    
   Atomic configuration                                                                             
    6 entries                                                                                       
     n  l   j            E        occ.                                                              
     1  0  0.50     -1785.8828   2.0000                                                             
     2  0  0.50      -139.4969   2.0000                                                             
     2  1  1.50       -95.5546   6.0000                                                             
     3  0  0.50       -10.8127   2.0000                                                             
     3  1  0.50        -4.0811   2.0000                                                             
     3  2  1.50        -4.0817   0.0000                                                             
   Description                                                                                      
     l       E           TYP  RCUT    TYP  RCUT                                                     
     0    -10.8127223     23  1.900                                                                 
     0     -7.6451159     23  1.900                                                                 
     1     -4.0811372     23  1.900                                                                 
     1      2.4879257     23  1.900                                                                 
     2     -4.0817478      7  1.900                                                                 
  local pseudopotential read in
  partial core-charges read in
  partial kinetic energy density read in
  atomic valenz-charges read in
  non local Contribution for L=           0  read in
    real space projection operators read in
  non local Contribution for L=           0  read in
    real space projection operators read in
  non local Contribution for L=           1  read in
    real space projection operators read in
  non local Contribution for L=           1  read in
    real space projection operators read in
    PAW grid and wavefunctions read in

   number of l-projection  operators is LMAX  =           4
   number of lm-projection operators is LMMAX =           8

 -----------------------------------------------------------------------------
|                                                                             |
|               ----> ADVICE to this user running VASP <----                  |
|                                                                             |
|     You have a (more or less) 'large supercell' and for larger cells it     |
|     might be more efficient to use real-space projection operators.         |
|     Therefore, try LREAL= Auto in the INCAR file.                           |
|     Mind: For very accurate calculation, you might also keep the            |
|     reciprocal projection scheme (i.e. LREAL=.FALSE.).                      |
|                                                                             |
 -----------------------------------------------------------------------------

 -----------------------------------------------------------------------------
|                                                                             |
|               ----> ADVICE to this user running VASP <----                  |
|                                                                             |
|     You enforced a specific xc type in the INCAR file but a different       |
|     type was found in the POTCAR file.                                      |
|     I HOPE YOU KNOW WHAT YOU ARE DOING!                                     |
|                                                                             |
 -----------------------------------------------------------------------------

  PAW_PBE H 15Jun2001                   :
 energy of atom  1       EATOM=  -12.4884
 kinetic energy error for atom=    0.0000 (will be added to EATOM!!)
  PAW_PBE Si 05Jan2001                  :
 energy of atom  2       EATOM= -103.0669
 kinetic energy error for atom=    0.0001 (will be added to EATOM!!)


 POSCAR:  H Si
  positions in cartesian coordinates
  No initial velocities read in


 exchange-correlation table for SCAN
   RHO(1)=    0.500       N(1)  =     2000
   RHO(2)=  100.500       N(2)  =     4000



--------------------------------------------------------------------------------------------------------


 ion  position               nearest neighbor table
   1  0.587  0.587  0.416-  15 1.50
   2  0.257  0.723  0.548-  46 1.58  58 1.89
   3  0.410  0.456  0.389-
   4  0.804  0.118  0.581-  18 1.64
   5  0.458  0.346  0.611-  26 1.63
   6  0.840  0.539  0.403-  31 1.48
   7  0.471  0.498  0.558-  56 1.49
   8  0.387  0.241  0.444-  12 2.26  62 2.39
   9  0.697  0.461  0.493-  15 2.28  31 2.36  20 2.37  49 2.38
  10  0.094  0.778  0.429-  41 2.39  59 2.48
  11  0.660  0.950  0.546-  48 2.37  25 2.39  51 2.44  47 2.47
  12  0.489  0.336  0.482-   8 2.26  56 2.28  20 2.36  26 2.38
  13  0.068  0.207  0.401-  24 2.26  55 2.36
  14  0.060  0.263  0.572-  28 2.27  39 2.30  53 2.41
  15  0.585  0.565  0.473-   1 1.50  43 2.18   9 2.28  56 2.33
  16  0.394  0.948  0.587-  51 2.33  34 2.35  42 2.41
  17  0.505  0.012  0.453-  34 2.21  25 2.31  27 2.51
  18  0.829  0.157  0.523-   4 1.64  39 2.30  45 2.32  29 2.42
  19  0.956  0.403  0.466-  60 2.25  31 2.34  39 2.48  24 2.83
  20  0.637  0.335  0.445-  29 2.31  12 2.36   9 2.37
  21  0.292  0.178  0.608-  62 2.41
  22  0.191  0.479  0.541-  32 2.40  60 2.45  28 2.52
  23  0.914  0.891  0.515-  41 2.24  50 2.33  47 2.35  45 2.38
  24  0.131  0.334  0.437-  13 2.26  28 2.27  19 2.83
  25  0.613  0.087  0.503-  17 2.31  11 2.39  29 2.43  52 2.43
  26  0.539  0.317  0.570-   5 1.63  52 2.26  12 2.38  49 2.43
  27  0.603  0.889  0.413-  40 2.32  48 2.35  17 2.51
  28  0.177  0.310  0.521-  14 2.27  24 2.27  62 2.31  22 2.52
  29  0.712  0.198  0.460-  20 2.31  18 2.42  25 2.43
  30  0.737  0.661  0.572-  61 2.21  43 2.23
  31  0.838  0.511  0.459-   6 1.48  61 2.23  19 2.34   9 2.36
  32  0.310  0.551  0.492-  35 2.23  46 2.30  56 2.32  22 2.40
  33  0.964  0.583  0.568-  44 2.35  61 2.38  60 2.41
  34  0.380  0.971  0.497-  17 2.21  16 2.35  38 2.37  57 2.37
  35  0.244  0.554  0.413-  32 2.23  59 2.37
  36  0.828  0.353  0.593-  39 2.26  49 2.41
  37  0.486  0.716  0.563-  43 2.35  46 2.37  51 2.45
  38  0.256  0.064  0.469-  62 2.36  34 2.37  54 2.40
  39  0.920  0.286  0.533-  36 2.26  18 2.30  14 2.30  19 2.48
  40  0.475  0.797  0.403-  27 2.32  57 2.47
  41  0.066  0.877  0.502-  23 2.24  54 2.26  58 2.34  10 2.39
  42  0.239  0.906  0.609-  58 2.34  16 2.41
  43  0.622  0.688  0.516-  15 2.18  30 2.23  48 2.33  37 2.35
  44  0.048  0.708  0.602-  58 2.25  33 2.35
  45  0.865  0.029  0.474-  55 2.27  18 2.32  23 2.38
  46  0.347  0.699  0.516-   2 1.58  57 2.21  32 2.30  37 2.37
  47  0.815  0.933  0.584-  23 2.35  11 2.47
  48  0.679  0.828  0.486-  50 2.33  43 2.33  27 2.35  11 2.37
  49  0.675  0.412  0.580-   9 2.38  36 2.41  26 2.43
  50  0.829  0.777  0.474-  61 2.33  48 2.33  23 2.33
  51  0.534  0.870  0.590-  16 2.33  11 2.44  37 2.45
  52  0.570  0.167  0.582-  26 2.26  25 2.43
  53  0.063  0.098  0.579-  54 2.37  14 2.41
  54  0.105  0.027  0.500-  55 2.21  41 2.26  53 2.37  38 2.40
  55  0.003  0.077  0.442-  54 2.21  45 2.27  13 2.36
  56  0.455  0.486  0.501-   7 1.49  12 2.28  32 2.32  15 2.33
  57  0.347  0.822  0.465-  46 2.21  34 2.37  40 2.47
  58  0.154  0.797  0.563-   2 1.89  44 2.25  41 2.34  42 2.34
  59  0.091  0.608  0.425-  60 2.37  35 2.37  10 2.48
  60  0.047  0.516  0.497-  19 2.25  59 2.37  33 2.41  22 2.45
  61  0.843  0.632  0.512-  30 2.21  31 2.23  50 2.33  33 2.38
  62  0.290  0.199  0.515-  28 2.31  38 2.36   8 2.39  21 2.41

  LATTYP: Found a simple tetragonal cell.
 ALAT       =    14.5492154081
 C/A-ratio  =     1.7675977899
  
  Lattice vectors:
  
 A1 = (  14.5492154081,   0.0000000000,   0.0000000000)
 A2 = (   0.0000000000,  14.5492154081,   0.0000000000)
 A3 = (   0.0000000000,   0.0000000000,  25.7171610000)


Analysis of symmetry for initial positions (statically):
=====================================================================
 Subroutine PRICEL returns:
 Original cell was already a primitive cell.
 

 Routine SETGRP: Setting up the symmetry group for a 
 simple tetragonal supercell.


 Subroutine GETGRP returns: Found  1 space group operations
 (whereof  1 operations were pure point group operations)
 out of a pool of 16 trial point group operations.


The static configuration has the point symmetry C_1 .


Analysis of symmetry for dynamics (positions and initial velocities):
=====================================================================
 Subroutine PRICEL returns:
 Original cell was already a primitive cell.
 

 Routine SETGRP: Setting up the symmetry group for a 
 simple tetragonal supercell.


 Subroutine GETGRP returns: Found  1 space group operations
 (whereof  1 operations were pure point group operations)
 out of a pool of 16 trial point group operations.


The dynamic configuration has the point symmetry C_1 .


 Subroutine INISYM returns: Found  1 space group operations
 (whereof  1 operations are pure point group operations),
 and found     1 'primitive' translations


----------------------------------------------------------------------------------------

                                     Primitive cell                                     

  volume of cell :    5443.8001

  direct lattice vectors                    reciprocal lattice vectors
    14.549215408  0.000000000  0.000000000     0.068732229  0.000000000  0.000000000
     0.000000000 14.549215408  0.000000000     0.000000000  0.068732229  0.000000000
     0.000000000  0.000000000 25.717161000     0.000000000  0.000000000  0.038884541

  length of vectors
    14.549215408 14.549215408 25.717161000     0.068732229  0.068732229  0.038884541

  position of ions in fractional coordinates (direct lattice)
     0.586739543  0.587201424  0.415972315
     0.257010423  0.722973693  0.548035259
     0.409919012  0.456281649  0.388845409
     0.803713442  0.117738308  0.580907861
     0.458200653  0.345680496  0.611154591
     0.840437072  0.539092987  0.403440955
     0.470719541  0.498099024  0.557861383
     0.386719135  0.241269368  0.443916457
     0.696566771  0.461303913  0.492725111
     0.094256629  0.778289391  0.429212579
     0.660074082  0.949583851  0.546419607
     0.489324668  0.336112283  0.482321552
     0.068028204  0.207295027  0.401494395
     0.059579501  0.262653339  0.572333043
     0.584529802  0.564762413  0.473049533
     0.393582048  0.947975517  0.586931077
     0.504615527  0.012263136  0.453107985
     0.829371183  0.157273086  0.523165096
     0.956498313  0.403007986  0.465679357
     0.637377325  0.335358977  0.444986560
     0.292206135  0.177938805  0.608345960
     0.191063224  0.478770834  0.541147641
     0.914324218  0.891367654  0.515463235
     0.131447638  0.334346552  0.437332138
     0.613461946  0.086939396  0.503167554
     0.538568561  0.317351133  0.570113124
     0.603174106  0.889175096  0.413152486
     0.176543541  0.309794712  0.520689317
     0.712292705  0.198154328  0.460482827
     0.737194392  0.660886497  0.571623011
     0.838354486  0.511074982  0.458625701
     0.310218103  0.551340383  0.491695448
     0.963722071  0.583351731  0.568025024
     0.380474125  0.971488813  0.496963137
     0.243628258  0.553829177  0.413441126
     0.828381439  0.352632074  0.593063558
     0.486072259  0.715825542  0.562821106
     0.255877028  0.063805159  0.468781177
     0.919554741  0.286104775  0.532582154
     0.474769244  0.796613403  0.403429601
     0.065594946  0.876638337  0.501677887
     0.238670602  0.905595225  0.609329350
     0.622252798  0.688270791  0.516172878
     0.047944853  0.707701392  0.602079716
     0.865331885  0.028771586  0.473755676
     0.346650995  0.698807442  0.515859468
     0.815397921  0.933479890  0.583856087
     0.679150712  0.828237102  0.485881043
     0.675388310  0.411733542  0.579903474
     0.829384930  0.776825395  0.473973818
     0.533540798  0.870369958  0.589631997
     0.569833477  0.166629604  0.582461299
     0.062675407  0.097610762  0.579436470
     0.104575399  0.026715667  0.499819206
     0.003185292  0.076818575  0.442162764
     0.454671253  0.485696294  0.500975244
     0.347309450  0.821913737  0.465199133
     0.153650897  0.796847093  0.562774445
     0.091301143  0.608147570  0.424824809
     0.047140480  0.515966655  0.496586346
     0.842657123  0.632152988  0.512041395
     0.290006704  0.199064343  0.515297976

  ion indices of the primitive-cell ions
   primitive index   ion index
                 1           1
                 2           2
                 3           3
                 4           4
                 5           5
                 6           6
                 7           7
                 8           8
                 9           9
                10          10
                11          11
                12          12
                13          13
                14          14
                15          15
                16          16
                17          17
                18          18
                19          19
                20          20
                21          21
                22          22
                23          23
                24          24
                25          25
                26          26
                27          27
                28          28
                29          29
                30          30
                31          31
                32          32
                33          33
                34          34
                35          35
                36          36
                37          37
                38          38
                39          39
                40          40
                41          41
                42          42
                43          43
                44          44
                45          45
                46          46
                47          47
                48          48
                49          49
                50          50
                51          51
                52          52
                53          53
                54          54
                55          55
                56          56
                57          57
                58          58
                59          59
                60          60
                61          61
                62          62

----------------------------------------------------------------------------------------


 -----------------------------------------------------------------------------
|                                                                             |
|           W    W    AA    RRRRR   N    N  II  N    N   GGGG   !!!           |
|           W    W   A  A   R    R  NN   N  II  NN   N  G    G  !!!           |
|           W    W  A    A  R    R  N N  N  II  N N  N  G       !!!           |
|           W WW W  AAAAAA  RRRRR   N  N N  II  N  N N  G  GGG   !            |
|           WW  WW  A    A  R   R   N   NN  II  N   NN  G    G                |
|           W    W  A    A  R    R  N    N  II  N    N   GGGG   !!!           |
|                                                                             |
|     The requested file  could not be found or opened for reading            |
|     k-point information. Automatic k-point generation is used as a          |
|     fallback, which may lead to unwanted results.                           |
|                                                                             |
 -----------------------------------------------------------------------------



Automatic generation of k-mesh.
 Grid dimensions derived from KSPACING:
 generate k-points for:    2    2    2

 Generating k-lattice:

  Cartesian coordinates                     Fractional coordinates (reciprocal lattice)
     0.034366114  0.000000000  0.000000000     0.500000000  0.000000000  0.000000000
     0.000000000  0.034366114  0.000000000     0.000000000  0.500000000  0.000000000
     0.000000000  0.000000000  0.019442270     0.000000000  0.000000000  0.500000000

  Length of vectors
     0.034366114  0.034366114  0.019442270

  Shift w.r.t. Gamma in fractional coordinates (k-lattice)
     0.000000000  0.000000000  0.000000000

 
 Subroutine IBZKPT returns following result:
 ===========================================
 
 Found      8 irreducible k-points:
 
 Following reciprocal coordinates:
            Coordinates               Weight
  0.000000  0.000000  0.000000      1.000000
  0.500000  0.000000  0.000000      1.000000
  0.000000  0.500000  0.000000      1.000000
  0.500000  0.500000  0.000000      1.000000
  0.000000  0.000000  0.500000      1.000000
  0.500000  0.000000  0.500000      1.000000
  0.000000  0.500000  0.500000      1.000000
  0.500000  0.500000  0.500000      1.000000
 
 Following cartesian coordinates:
            Coordinates               Weight
  0.000000  0.000000  0.000000      1.000000
  0.034366  0.000000  0.000000      1.000000
  0.000000  0.034366  0.000000      1.000000
  0.034366  0.034366  0.000000      1.000000
  0.000000  0.000000  0.019442      1.000000
  0.034366  0.000000  0.019442      1.000000
  0.000000  0.034366  0.019442      1.000000
  0.034366  0.034366  0.019442      1.000000
 


--------------------------------------------------------------------------------------------------------




 Dimension of arrays:
   k-points           NKPTS =      8   k-points in BZ     NKDIM =      8   number of bands    NBANDS=    152
   number of dos      NEDOS =   2000   number of ions     NIONS =     62
   non local maximal  LDIM  =      4   non local SUM 2l+1 LMDIM =      8
   total plane-waves  NPLWV = ******
   max r-space proj   IRMAX =      1   max aug-charges    IRDMAX= 407864
   dimension x,y,z NGX =   168 NGY =  168 NGZ =  294
   dimension x,y,z NGXF=   336 NGYF=  336 NGZF=  588
   support grid    NGXF=   672 NGYF=  672 NGZF= 1176
   ions per type =               7  55
   NGX,Y,Z   is equivalent  to a cutoff of  19.20, 19.20, 19.01 a.u.
   NGXF,Y,Z  is equivalent  to a cutoff of  38.39, 38.39, 38.01 a.u.

 SYSTEM =  a-Si SPC                                
 POSCAR =   H Si                                   

 Startparameter for this run:
   NWRITE =      2    write-flag & timer
   PREC   = accura    normal or accurate (medium, high low for compatibility)
   ISTART =      1    job   : 0-new  1-cont  2-samecut
   ICHARG =      1    charge: 1-file 2-atom 10-const
   ISPIN  =      1    spin polarized calculation?
   LNONCOLLINEAR =      F non collinear calculations
   LSORBIT =      F    spin-orbit coupling
   INIWAV =      1    electr: 0-lowe 1-rand  2-diag
   LASPH  =      T    aspherical Exc in radial PAW
 Electronic Relaxation 1
   ENCUT  = 1200.0 eV  88.20 Ry    9.39 a.u.  41.09 41.09 72.64*2*pi/ulx,y,z
   ENINI  = 1200.0     initial cutoff
   ENAUG  =  400.0 eV  augmentation charge cutoff
   NELM   =    150;   NELMIN=  2; NELMDL=  0     # of ELM steps 
   EDIFF  = 0.1E-05   stopping-criterion for ELM
   LREAL  =      F    real-space projection
   NLSPLINE    = F    spline interpolate recip. space projectors
   LCOMPAT=      F    compatible to vasp.4.4
   GGA_COMPAT  = T    GGA compatible to vasp.4.4-vasp.4.6
   LMAXPAW     = -100 max onsite density
   LMAXMIX     =    2 max onsite mixed and CHGCAR
   VOSKOWN=      0    Vosko Wilk Nusair interpolation
   ROPT   =    0.00000   0.00000
 Ionic relaxation
   EDIFFG = -.1E-01   stopping-criterion for IOM
   NSW    =      0    number of steps for IOM
   NBLOCK =      1;   KBLOCK =      1    inner block; outer block 
   IBRION =     -1    ionic relax: 0-MD 1-quasi-New 2-CG
   NFREE  =      0    steps in history (QN), initial steepest desc. (CG)
   ISIF   =      2    stress and relaxation
   IWAVPR =     10    prediction:  0-non 1-charg 2-wave 3-comb
   ISYM   =      1    0-nonsym 1-usesym 2-fastsym
   LCORR  =      T    Harris-Foulkes like correction to forces

   POTIM  = 0.5000    time-step for ionic-motion
   TEIN   =    0.0    initial temperature
   TEBEG  =    0.0;   TEEND  =   0.0 temperature during run
   SMASS  =  -3.00    Nose mass-parameter (am)
   estimated Nose-frequenzy (Omega)   =  0.10E-29 period in steps = 0.13E+47 mass=  -0.484E-26a.u.
   SCALEE = 1.0000    scale energy and forces
   NPACO  =    256;   APACO  = 10.0  distance and # of slots for P.C.
   PSTRESS=    0.0 pullay stress

  Mass of Ions in am
   POMASS =   1.00 28.09
  Ionic Valenz
   ZVAL   =   1.00  4.00
  Atomic Wigner-Seitz radii
   RWIGS  =  -1.00 -1.00
  virtual crystal weights 
   VCA    =   1.00  1.00
   NELECT =     227.0000    total number of electrons
   NUPDOWN=      -1.0000    fix difference up-down

 DOS related values:
   EMIN   =  10.00;   EMAX   =-10.00  energy-range for DOS
   EFERMI =   0.00;   METHOD = LEGACY      
   ISMEAR =     0;   SIGMA  =   0.10  broadening in eV -4-tet -1-fermi 0-gaus
   EFERMI_NEDOS =   21; number of points for ismear=-14 and -15

 Electronic relaxation 2 (details)
   IALGO  =     38    algorithm
   LDIAG  =      F    sub-space diagonalisation (order eigenvalues)
   LSUBROT=      F    optimize rotation matrix (better conditioning)
   TURBO    =      0    0=normal 1=particle mesh
   IRESTART =      0    0=no restart 2=restart with 2 vectors
   NREBOOT  =      0    no. of reboots
   NMIN     =      0    reboot dimension
   EREF     =   0.00    reference energy to select bands
   IMIX   =      4    mixing-type and parameters
     AMIX     =   0.40;   BMIX     =  1.00
     AMIX_MAG =   1.60;   BMIX_MAG =  1.00
     AMIN     =   0.10
     WC   =   100.;   INIMIX=   1;  MIXPRE=   1;  MAXMIX= -45

 Intra band minimization:
   WEIMIN = 0.0000     energy-eigenvalue tresh-hold
   EBREAK =  0.16E-08  absolut break condition
   DEPER  =   0.30     relativ break condition  

   TIME   =   0.40     timestep for ELM

  volume/ion in A,a.u.               =      87.80       592.53
  Fermi-wavevector in a.u.,A,eV,Ry     =   0.567696  1.072790  4.384873  0.322279
  Thomas-Fermi vector in A             =   1.606615

 Write flags
   LWAVE        =      F    write WAVECAR
   LDOWNSAMPLE  =      F    k-point downsampling of WAVECAR
   LCHARG       =      F    write CHGCAR
   LVTOT        =      F    write LOCPOT, total local potential
   LVHAR        =      F    write LOCPOT, Hartree potential only
   WRT_POTENTIAL= false  ! write potential to hdf5 file
   LELF         =      F    write electronic localiz. function (ELF)
   LORBIT       =     11    0 simple, 1 ext, 2 COOP (PROOUT), +10 PAW based schemes


 Python interface
   PLUGINS active      =      F    recompile with -DPLUGINS to activate

 Dipole corrections
   LMONO      =      F    monopole corrections only (constant potential shift)
   LDIPOL     =      F    correct potential (dipole corrections)
   IDIPOL     =      0    1-x, 2-y, 3-z, 4-all directions 
   EPSILON    =  1.0000000 bulk dielectric constant
   LVACPOTAV  =      F  vacuum potentials using an averaging scheme for the charge density
   VACPOTFLAT =  0.1000000 required flatness to determine vacuum potential

Coulomb truncation method
  LTRUNCATE          =      F  Coulomb kernel truncation to be used
  IDIMENSIONALITY    =      3  Dimensionality of cutoff (0 molecules / 2 surfaces)
  ISURFACE           =     -1  Direction of surface normal
  LCOARSEN           =      F  Coarsen the charge grid before padding, preferred


 Exchange correlation treatment:
   METAGGA = SCAN    functional components
   XC_C    = 1    coefficients multiplying the functional components
   LIBXC   =     F    Libxc                    
   VOSKOWN =     0    Vosko Wilk Nusair interpolation
   LHFCALC =     F    Hartree Fock is set to
   LHFONE  =     F    Hartree Fock one center treatment
   AEXX    =    0.0000 exact exchange contribution

 Parameters of functionals:
   SCAN:
     P1 =  0.000000E+00
     P2 =  0.000000E+00
     P3 =  0.000000E+00

 Accuracy and mixing parameters for tau-dependent meta-GGA functionals:
   LMAXTAU = 6
   LMIXTAU = T

 Van der Waals corrections
   IVDW    =     0    specifies the selected vdW correction

 Linear response parameters
   LEPSILON=     F    determine dielectric tensor
   LRPA    =     F    only Hartree local field effects (RPA)
   LNABLA  =     F    use nabla operator in PAW spheres
   LVEL    =     F    velocity operator in full k-point grid
   CSHIFT  =0.1000    complex shift for real part using Kramers Kronig
   OMEGAMAX=  -1.0    maximum frequency
   DEG_THRESHOLD= 0.2000000E-02 threshold for treating states as degnerate
   RTIME   =   -0.100 relaxation time in fs
  (WPLASMAI=    0.000 imaginary part of plasma frequency in eV, 0.658/RTIME)
   DFIELD  = 0.0000000 0.0000000 0.0000000 field for delta impulse in time

  Optional k-point grid parameters
   LKPOINTS_OPT  =     F    use optional k-point grid
   KPOINTS_OPT_MODE=     1    mode for optional k-point grid

 Orbital magnetization related:
   ORBITALMAG=     F  switch on orbital magnetization
   LCHIMAG   =     F  perturbation theory with respect to B field
   DQ        =  0.001000  dq finite difference perturbation B field
   LLRAUG    =     F  two centre corrections for induced B field
   LBONE     =     F  B-component reconstruction in AE one-centre
   LVGVCALC  =     T  calculate vGv susceptibility
   LVGVAPPL  =     F  apply vGv susceptibility instead of pGv for G=0

 Random number generation:
   RANDOM_GENERATOR = DEFAULT
   PCG_SEED         = not used


--------------------------------------------------------------------------------------------------------


 Static calculation
 charge density and potential will be updated during run
 non-spin polarized calculation
 Variant of blocked Davidson
 perform Loewdin sub-space diagonalisation
    ordering is kept fixed
    before iterative eigenvector-optimisation
 modified Broyden-mixing scheme, WC =      100.0
 initial mixing is a Kerker type mixing with AMIX =  0.4000 and BMIX =      1.0000
 Hartree-type preconditioning will be used
 using additional bands           38
 reciprocal scheme for non local part
 use partial core corrections
 calculate Harris-corrections to forces   (improved forces if not selfconsistent)
 use gradient corrections 
 use of overlap-Matrix (Vanderbilt PP)
 Gauss-broadening in eV      SIGMA  =   0.10


--------------------------------------------------------------------------------------------------------


  energy-cutoff  :     1200.00
  volume of cell :     5443.80
      direct lattice vectors                 reciprocal lattice vectors
    14.549215408  0.000000000  0.000000000     0.068732229  0.000000000  0.000000000
     0.000000000 14.549215408  0.000000000     0.000000000  0.068732229  0.000000000
     0.000000000  0.000000000 25.717161000     0.000000000  0.000000000  0.038884541

  length of vectors
    14.549215408 14.549215408 25.717161000     0.068732229  0.068732229  0.038884541



 old parameters found on file WAVECAR:
  energy-cutoff  :     1200.00
  volume of cell :     5443.80
      direct lattice vectors                 reciprocal lattice vectors
    14.549215408  0.000000000  0.000000000     0.068732229  0.000000000  0.000000000
     0.000000000 14.549215408  0.000000000     0.000000000  0.068732229  0.000000000
     0.000000000  0.000000000 25.717161000     0.000000000  0.000000000  0.038884541

  length of vectors


 k-points in units of 2pi/SCALE and weight: read from INCAR                         
   0.00000000  0.00000000  0.00000000       0.125
   0.03436611  0.00000000  0.00000000       0.125
   0.00000000  0.03436611  0.00000000       0.125
   0.03436611  0.03436611  0.00000000       0.125
   0.00000000  0.00000000  0.01944227       0.125
   0.03436611  0.00000000  0.01944227       0.125
   0.00000000  0.03436611  0.01944227       0.125
   0.03436611  0.03436611  0.01944227       0.125

 k-points in reciprocal lattice and weights: read from INCAR                         
   0.00000000  0.00000000  0.00000000       0.125
   0.50000000  0.00000000  0.00000000       0.125
   0.00000000  0.50000000  0.00000000       0.125
   0.50000000  0.50000000  0.00000000       0.125
   0.00000000  0.00000000  0.50000000       0.125
   0.50000000  0.00000000  0.50000000       0.125
   0.00000000  0.50000000  0.50000000       0.125
   0.50000000  0.50000000  0.50000000       0.125

 position of ions in fractional coordinates (direct lattice) 
   0.58673954  0.58720142  0.41597232
   0.25701042  0.72297369  0.54803526
   0.40991901  0.45628165  0.38884541
   0.80371344  0.11773831  0.58090786
   0.45820065  0.34568050  0.61115459
   0.84043707  0.53909299  0.40344096
   0.47071954  0.49809902  0.55786138
   0.38671914  0.24126937  0.44391646
   0.69656677  0.46130391  0.49272511
   0.09425663  0.77828939  0.42921258
   0.66007408  0.94958385  0.54641961
   0.48932467  0.33611228  0.48232155
   0.06802820  0.20729503  0.40149440
   0.05957950  0.26265334  0.57233304
   0.58452980  0.56476241  0.47304953
   0.39358205  0.94797552  0.58693108
   0.50461553  0.01226314  0.45310798
   0.82937118  0.15727309  0.52316510
   0.95649831  0.40300799  0.46567936
   0.63737733  0.33535898  0.44498656
   0.29220613  0.17793880  0.60834596
   0.19106322  0.47877083  0.54114764
   0.91432422  0.89136765  0.51546323
   0.13144764  0.33434655  0.43733214
   0.61346195  0.08693940  0.50316755
   0.53856856  0.31735113  0.57011312
   0.60317411  0.88917510  0.41315249
   0.17654354  0.30979471  0.52068932
   0.71229271  0.19815433  0.46048283
   0.73719439  0.66088650  0.57162301
   0.83835449  0.51107498  0.45862570
   0.31021810  0.55134038  0.49169545
   0.96372207  0.58335173  0.56802502
   0.38047412  0.97148881  0.49696314
   0.24362826  0.55382918  0.41344113
   0.82838144  0.35263207  0.59306356
   0.48607226  0.71582554  0.56282111
   0.25587703  0.06380516  0.46878118
   0.91955474  0.28610477  0.53258215
   0.47476924  0.79661340  0.40342960
   0.06559495  0.87663834  0.50167789
   0.23867060  0.90559522  0.60932935
   0.62225280  0.68827079  0.51617288
   0.04794485  0.70770139  0.60207972
   0.86533189  0.02877159  0.47375568
   0.34665100  0.69880744  0.51585947
   0.81539792  0.93347989  0.58385609
   0.67915071  0.82823710  0.48588104
   0.67538831  0.41173354  0.57990347
   0.82938493  0.77682539  0.47397382
   0.53354080  0.87036996  0.58963200
   0.56983348  0.16662960  0.58246130
   0.06267541  0.09761076  0.57943647
   0.10457540  0.02671567  0.49981921
   0.00318529  0.07681858  0.44216276
   0.45467125  0.48569629  0.50097524
   0.34730945  0.82191374  0.46519913
   0.15365090  0.79684709  0.56277444
   0.09130114  0.60814757  0.42482481
   0.04714048  0.51596665  0.49658635
   0.84265712  0.63215299  0.51204140
   0.29000670  0.19906434  0.51529798

 position of ions in cartesian coordinates  (Angst):
   8.53660000  8.54332000 10.69762700
   3.73930000 10.51870000 14.09391100
   5.96400000  6.63854000 10.00000000
  11.69340000  1.71300000 14.93930100
   6.66646000  5.02938000 15.71716100
  12.22770000  7.84338000 10.37535600
   6.84860000  7.24695000 14.34661100
   5.62646000  3.51028000 11.41627100
  10.13450000  6.71161000 12.67149100
   1.37136000 11.32350000 11.03812900
   9.60356000 13.81570000 14.05236100
   7.11929000  4.89017000 12.40394100
   0.98975700  3.01598000 10.32529600
   0.86683500  3.82140000 14.71878100
   8.50445000  8.21685000 12.16549100
   5.72631000 13.79230000 15.09420100
   7.34176000  0.17841900 11.65265100
  12.06670000  2.28820000 13.45432100
  13.91630000  5.86345000 11.97595100
   9.27334000  4.87921000 11.44379100
   4.25137000  2.58887000 15.64493100
   2.77982000  6.96574000 13.91678100
  13.30270000 12.96870000 13.25625100
   1.91246000  4.86448000 11.24694100
   8.92539000  1.26490000 12.94004100
   7.83575000  4.61721000 14.66169100
   8.77571000 12.93680000 10.62510900
   2.56857000  4.50727000 13.39065100
  10.36330000  2.88299000 11.84231100
  10.72560000  9.61538000 14.70052100
  12.19740000  7.43574000 11.79455100
   4.51343000  8.02157000 12.64501100
  14.02140000  8.48731000 14.60799100
   5.53560000 14.13440000 12.78048100
   3.54460000  8.05778000 10.63253200
  12.05230000  5.13052000 15.25191100
   7.07197000 10.41470000 14.47416100
   3.72281000  0.92831500 12.05572100
  13.37880000  4.16260000 13.69650100
   6.90752000 11.59010000 10.37506400
   0.95435500 12.75440000 12.90173100
   3.47247000 13.17570000 15.67022100
   9.05329000 10.01380000 13.27450100
   0.69756000 10.29650000 15.48378100
  12.58990000  0.41860400 12.18365100
   5.04350000 10.16710000 13.26644100
  11.86340000 13.58140000 15.01512100
   9.88111000 12.05020000 12.49548100
   9.82637000  5.99040000 14.91347100
  12.06690000 11.30220000 12.18926100
   7.76260000 12.66320000 15.16366100
   8.29063000  2.42433000 14.97925100
   0.91187800  1.42016000 14.90146100
   1.52149000  0.38869200 12.85393100
   0.04634350  1.11765000 11.37117100
   6.61511000  7.06650000 12.88366100
   5.05308000 11.95820000 11.96360100
   2.23550000 11.59350000 14.47296100
   1.32836000  8.84807000 10.92528800
   0.68585700  7.50691000 12.77079100
  12.26000000  9.19733000 13.16825100
   4.21937000  2.89623000 13.25200100



--------------------------------------------------------------------------------------------------------


 k-point     1 :   0.0000 0.0000 0.0000  plane waves:  513617
 k-point     2 :   0.5000 0.0000 0.0000  plane waves:  513938
 k-point     3 :   0.0000 0.5000 0.0000  plane waves:  513938
 k-point     4 :   0.5000 0.5000 0.0000  plane waves:  513900
 k-point     5 :   0.0000 0.0000 0.5000  plane waves:  513746
 k-point     6 :   0.5000 0.0000 0.5000  plane waves:  513796
 k-point     7 :   0.0000 0.5000 0.5000  plane waves:  513796
 k-point     8 :   0.5000 0.5000 0.5000  plane waves:  513928

 maximum and minimum number of plane-waves per node :     32216    32034

 maximum number of plane-waves:    513938
 maximum index in each direction: 
   IXMAX=   41   IYMAX=   41   IZMAX=   72
   IXMIN=  -41   IYMIN=  -41   IZMIN=  -73


 parallel 3D FFT for wavefunctions:
    minimum data exchange during FFTs selected (reduces bandwidth)
 parallel 3D FFT for charge:
    minimum data exchange during FFTs selected (reduces bandwidth)


 total amount of memory used by VASP MPI-rank0   350160. kBytes
=======================================================================

   base                                    :      30000. kBytes
   nonl-proj                               :      64753. kBytes
   fftplans                                :     100025. kBytes
   grid                                    :      77177. kBytes
   one-center                              :         12. kBytes
   wavefun                                 :      78193. kBytes

     INWAV:  cpu time     23.7266: real time     23.7427
 Broyden mixing: mesh for mixing (old mesh)
   NGX = 83   NGY = 83   NGZ =145
  (NGX  =336   NGY  =336   NGZ  =588)
  gives a total of 998905 points

 initial charge density was supplied:
 number of electron     226.9999999 magnetization 
 keeping initial charge density in first step


--------------------------------------------------------------------------------------------------------


 Maximum index for augmentation-charges        10962 (set IRDMAX)


--------------------------------------------------------------------------------------------------------


 First call to EWALD:  gamma=   0.101
 Maximum number of real-space cells   3x   3x   2
 Maximum number of reciprocal cells   2x   2x   4

    FEWALD:  cpu time      0.0104: real time      0.0105


--------------------------------------- Ionic step        1  -------------------------------------------




--------------------------------------- Iteration      1(   1)  ---------------------------------------


    POTLOK:  cpu time      1.9841: real time      1.9849
    SETDIJ:  cpu time      1.3150: real time      1.3160
    EDDIAG:  cpu time     46.1803: real time     46.2076
     EDDAV:  cpu time    200.0588: real time    200.1756
       DOS:  cpu time      0.0095: real time      0.0099
    CHARGE:  cpu time     26.1618: real time     26.1866
    MIXING:  cpu time      0.0470: real time      0.0480
    --------------------------------------------
      LOOP:  cpu time    275.7566: real time    275.9286

 eigenvalue-minimisations  :  2432
 total energy-change (2. order) :-0.5527803E+03  (-0.6569159E+00)
 number of electron     226.9999999 magnetization 
 augmentation part      -12.7269276 magnetization 

 Broyden mixing:
  rms(total) = 0.84579E+00    rms(broyden)= 0.19572E+02
  rms(prec ) = 0.87002E+00
  weight for this iteration     100.00
  WARNING: grid for Broyden might be to small

 Free energy of the ion-electron system (eV)
  ---------------------------------------------------
  alpha Z        PSCENC =        20.01214494
  Ewald energy   TEWEN  =     23967.19658774
  -Hartree energ DENC   =    -28821.53037400
  -exchange      EXHF   =         0.00000000
  -V(xc)+E(xc)   XCENC  =      -264.73106810
  PAW double counting   =     18372.73423714   -17823.76627756
  entropy T*S    EENTRO =        -0.16342242
  eigenvalues    EBANDS =     -1758.62666704
  atomic energy  EATOM  =      5756.09450232
  Solvation  Ediel_sol  =         0.00000000
  ---------------------------------------------------
  free energy    TOTEN  =      -552.78033699 eV

  energy without entropy =     -552.61691457  energy(sigma->0) =     -552.69862578


--------------------------------------------------------------------------------------------------------




--------------------------------------- Iteration      1(   2)  ---------------------------------------


    POTLOK:  cpu time      1.9326: real time      1.9592
    SETDIJ:  cpu time      1.3158: real time      1.3166
    EDDIAG:  cpu time     46.1405: real time     46.1670
     EDDAV:  cpu time    200.5870: real time    200.7048
       DOS:  cpu time      0.0037: real time      0.0037
    CHARGE:  cpu time     26.0790: real time     26.1037
    MIXING:  cpu time      0.0402: real time      0.0402
    --------------------------------------------
      LOOP:  cpu time    276.0987: real time    276.2951

 eigenvalue-minimisations  :  2448
 total energy-change (2. order) : 0.4047226E+02  (-0.6051843E+00)
 number of electron     226.9999999 magnetization 
 augmentation part      -12.7006800 magnetization 

 Broyden mixing:
  rms(total) = 0.57985E+00    rms(broyden)= 0.11278E+02
  rms(prec ) = 0.59253E+00
  weight for this iteration     100.00
  WARNING: grid for Broyden might be to small

 eigenvalues of (default mixing * dielectric matrix)
  average eigenvalue GAMMA=   0.6346
  0.6346

 Free energy of the ion-electron system (eV)
  ---------------------------------------------------
  alpha Z        PSCENC =        20.01214494
  Ewald energy   TEWEN  =     23967.19658774
  -Hartree energ DENC   =    -28812.64346291
  -exchange      EXHF   =         0.00000000
  -V(xc)+E(xc)   XCENC  =      -259.19672763
  PAW double counting   =     21827.76351828   -21278.65982753
  entropy T*S    EENTRO =        -0.15403873
  eigenvalues    EBANDS =     -1732.72076855
  atomic energy  EATOM  =      5756.09450232
  Solvation  Ediel_sol  =         0.00000000
  ---------------------------------------------------
  free energy    TOTEN  =      -512.30807207 eV

  energy without entropy =     -512.15403334  energy(sigma->0) =     -512.23105270


--------------------------------------------------------------------------------------------------------




--------------------------------------- Iteration      1(   3)  ---------------------------------------


    POTLOK:  cpu time      1.9325: real time      1.9618
    SETDIJ:  cpu time      1.3106: real time      1.3115
    EDDIAG:  cpu time     46.1173: real time     46.1433
     EDDAV:  cpu time    199.9189: real time    200.0351
       DOS:  cpu time      0.0026: real time      0.0026
    CHARGE:  cpu time     26.0730: real time     26.0991
    MIXING:  cpu time      0.0381: real time      0.0381
    --------------------------------------------
      LOOP:  cpu time    275.3931: real time    275.5916

 eigenvalue-minimisations  :  2432
 total energy-change (2. order) :-0.1714228E+01  (-0.4845603E+00)
 number of electron     226.9999999 magnetization 
 augmentation part      -12.6533407 magnetization 

 Broyden mixing:
  rms(total) = 0.26005E+00    rms(broyden)= 0.16231E+02
  rms(prec ) = 0.31481E+00
  weight for this iteration     100.00
  WARNING: grid for Broyden might be to small

 eigenvalues of (default mixing * dielectric matrix)
  average eigenvalue GAMMA=   0.8171
  1.0063  0.6279

 Free energy of the ion-electron system (eV)
  ---------------------------------------------------
  alpha Z        PSCENC =        20.01214494
  Ewald energy   TEWEN  =     23967.19658774
  -Hartree energ DENC   =    -28811.85900764
  -exchange      EXHF   =         0.00000000
  -V(xc)+E(xc)   XCENC  =      -260.69332592
  PAW double counting   =     25905.18081982   -25356.19087527
  entropy T*S    EENTRO =        -0.15895186
  eigenvalues    EBANDS =     -1733.60419390
  atomic energy  EATOM  =      5756.09450232
  Solvation  Ediel_sol  =         0.00000000
  ---------------------------------------------------
  free energy    TOTEN  =      -514.02229979 eV

  energy without entropy =     -513.86334792  energy(sigma->0) =     -513.94282386


--------------------------------------------------------------------------------------------------------




--------------------------------------- Iteration      1(   4)  ---------------------------------------


    POTLOK:  cpu time      1.9533: real time      1.9821
    SETDIJ:  cpu time      1.3132: real time      1.3140
    EDDIAG:  cpu time     46.1350: real time     46.1598
     EDDAV:  cpu time    203.5463: real time    203.6686
       DOS:  cpu time      0.0028: real time      0.0028
    CHARGE:  cpu time     26.0982: real time     26.1214
    MIXING:  cpu time      0.0383: real time      0.0383
    --------------------------------------------
      LOOP:  cpu time    279.0869: real time    279.2870

 eigenvalue-minimisations  :  2512
 total energy-change (2. order) : 0.2748405E+00  (-0.5664915E-01)
 number of electron     226.9999999 magnetization 
 augmentation part      -12.6601113 magnetization 

 Broyden mixing:
  rms(total) = 0.70957E-01    rms(broyden)= 0.62336E+00
  rms(prec ) = 0.91702E-01
  weight for this iteration     100.00
  WARNING: grid for Broyden might be to small

 eigenvalues of (default mixing * dielectric matrix)
  average eigenvalue GAMMA=   1.1022
  2.0261  0.6729  0.6076

 Free energy of the ion-electron system (eV)
  ---------------------------------------------------
  alpha Z        PSCENC =        20.01214494
  Ewald energy   TEWEN  =     23967.19658774
  -Hartree energ DENC   =    -28811.24030282
  -exchange      EXHF   =         0.00000000
  -V(xc)+E(xc)   XCENC  =      -260.96982754
  PAW double counting   =     29127.69246185   -28578.75357615
  entropy T*S    EENTRO =        -0.15752340
  eigenvalues    EBANDS =     -1733.62192623
  atomic energy  EATOM  =      5756.09450232
  Solvation  Ediel_sol  =         0.00000000
  ---------------------------------------------------
  free energy    TOTEN  =      -513.74745931 eV

  energy without entropy =     -513.58993591  energy(sigma->0) =     -513.66869761


--------------------------------------------------------------------------------------------------------




--------------------------------------- Iteration      1(   5)  ---------------------------------------


    POTLOK:  cpu time      1.9301: real time      1.9613
    SETDIJ:  cpu time      1.3104: real time      1.3113
    EDDIAG:  cpu time     46.1176: real time     46.1424
     EDDAV:  cpu time    212.2619: real time    212.3876
       DOS:  cpu time      0.0045: real time      0.0045
    CHARGE:  cpu time     26.0974: real time     26.1219
    MIXING:  cpu time      0.0387: real time      0.0388
    --------------------------------------------
      LOOP:  cpu time    287.7607: real time    287.9678

 eigenvalue-minimisations  :  2704
 total energy-change (2. order) :-0.2606687E-01  (-0.9282925E-02)
 number of electron     226.9999999 magnetization 
 augmentation part      -12.6536485 magnetization 

 Broyden mixing:
  rms(total) = 0.54642E-01    rms(broyden)= 0.11059E+01
  rms(prec ) = 0.68509E-01
  weight for this iteration     100.00
  WARNING: grid for Broyden might be to small

 eigenvalues of (default mixing * dielectric matrix)
  average eigenvalue GAMMA=   1.1018
  2.5181  0.7884  0.6223  0.4785

 Free energy of the ion-electron system (eV)
  ---------------------------------------------------
  alpha Z        PSCENC =        20.01214494
  Ewald energy   TEWEN  =     23967.19658774
  -Hartree energ DENC   =    -28811.79613398
  -exchange      EXHF   =         0.00000000
  -V(xc)+E(xc)   XCENC  =      -261.59557407
  PAW double counting   =     28996.09063361   -28447.14673741
  entropy T*S    EENTRO =        -0.15612148
  eigenvalues    EBANDS =     -1732.47282783
  atomic energy  EATOM  =      5756.09450232
  Solvation  Ediel_sol  =         0.00000000
  ---------------------------------------------------
  free energy    TOTEN  =      -513.77352617 eV

  energy without entropy =     -513.61740469  energy(sigma->0) =     -513.69546543


--------------------------------------------------------------------------------------------------------




--------------------------------------- Iteration      1(   6)  ---------------------------------------


    POTLOK:  cpu time      1.9487: real time      1.9695
    SETDIJ:  cpu time      1.3068: real time      1.3076
    EDDIAG:  cpu time     46.1158: real time     46.1406
     EDDAV:  cpu time    205.7560: real time    205.8806
       DOS:  cpu time      0.0031: real time      0.0031
    CHARGE:  cpu time     26.0865: real time     26.1106
    MIXING:  cpu time      0.0394: real time      0.0394
    --------------------------------------------
      LOOP:  cpu time    281.2564: real time    281.4514

 eigenvalue-minimisations  :  2560
 total energy-change (2. order) : 0.3432131E-02  (-0.4254994E-02)
 number of electron     226.9999999 magnetization 
 augmentation part      -12.6549725 magnetization 

 Broyden mixing:
  rms(total) = 0.30319E-01    rms(broyden)= 0.22818E+00
  rms(prec ) = 0.34613E-01
  weight for this iteration     100.00
  WARNING: grid for Broyden might be to small

 eigenvalues of (default mixing * dielectric matrix)
  average eigenvalue GAMMA=   1.0323
  2.5953  0.8979  0.6385  0.6060  0.4239

 Free energy of the ion-electron system (eV)
  ---------------------------------------------------
  alpha Z        PSCENC =        20.01214494
  Ewald energy   TEWEN  =     23967.19658774
  -Hartree energ DENC   =    -28811.64266563
  -exchange      EXHF   =         0.00000000
  -V(xc)+E(xc)   XCENC  =      -261.73788248
  PAW double counting   =     28845.47465144   -28296.52094965
  entropy T*S    EENTRO =        -0.15780175
  eigenvalues    EBANDS =     -1732.48868097
  atomic energy  EATOM  =      5756.09450232
  Solvation  Ediel_sol  =         0.00000000
  ---------------------------------------------------
  free energy    TOTEN  =      -513.77009404 eV

  energy without entropy =     -513.61229229  energy(sigma->0) =     -513.69119317


--------------------------------------------------------------------------------------------------------




--------------------------------------- Iteration      1(   7)  ---------------------------------------


    POTLOK:  cpu time      1.9264: real time      1.9594
    SETDIJ:  cpu time      1.3151: real time      1.3156
    EDDIAG:  cpu time     46.1684: real time     46.1930
     EDDAV:  cpu time    208.7669: real time    208.8848
       DOS:  cpu time      0.0024: real time      0.0024
    CHARGE:  cpu time     26.1170: real time     26.1430
    MIXING:  cpu time      0.0398: real time      0.0398
    --------------------------------------------
      LOOP:  cpu time    284.3360: real time    284.5381

 eigenvalue-minimisations  :  2624
 total energy-change (2. order) : 0.1982075E-02  (-0.9279676E-03)
 number of electron     226.9999999 magnetization 
 augmentation part      -12.6561910 magnetization 

 Broyden mixing:
  rms(total) = 0.17303E-01    rms(broyden)= 0.23310E+00
  rms(prec ) = 0.20301E-01
  weight for this iteration     100.00
  WARNING: grid for Broyden might be to small

 eigenvalues of (default mixing * dielectric matrix)
  average eigenvalue GAMMA=   1.0160
  2.5887  1.0939  0.7942  0.6249  0.5451  0.4495

 Free energy of the ion-electron system (eV)
  ---------------------------------------------------
  alpha Z        PSCENC =        20.01214494
  Ewald energy   TEWEN  =     23967.19658774
  -Hartree energ DENC   =    -28811.41471266
  -exchange      EXHF   =         0.00000000
  -V(xc)+E(xc)   XCENC  =      -261.66746189
  PAW double counting   =     28831.19540364   -28282.23579995
  entropy T*S    EENTRO =        -0.15700927
  eigenvalues    EBANDS =     -1732.79176684
  atomic energy  EATOM  =      5756.09450232
  Solvation  Ediel_sol  =         0.00000000
  ---------------------------------------------------
  free energy    TOTEN  =      -513.76811197 eV

  energy without entropy =     -513.61110270  energy(sigma->0) =     -513.68960733


--------------------------------------------------------------------------------------------------------




--------------------------------------- Iteration      1(   8)  ---------------------------------------


    POTLOK:  cpu time      1.9347: real time      1.9639
    SETDIJ:  cpu time      1.3092: real time      1.3100
    EDDIAG:  cpu time     46.1374: real time     46.1641
     EDDAV:  cpu time    210.8294: real time    210.9507
       DOS:  cpu time      0.0040: real time      0.0040
    CHARGE:  cpu time     26.0920: real time     26.1153
    MIXING:  cpu time      0.0400: real time      0.0400
    --------------------------------------------
      LOOP:  cpu time    286.3467: real time    286.5479

 eigenvalue-minimisations  :  2672
 total energy-change (2. order) :-0.5903753E-03  (-0.5019656E-03)
 number of electron     226.9999999 magnetization 
 augmentation part      -12.6553072 magnetization 

 Broyden mixing:
  rms(total) = 0.13874E-01    rms(broyden)= 0.45375E-01
  rms(prec ) = 0.16313E-01
  weight for this iteration     100.00
  WARNING: grid for Broyden might be to small

 eigenvalues of (default mixing * dielectric matrix)
  average eigenvalue GAMMA=   1.0140
  2.5662  1.5469  0.7971  0.6031  0.6031  0.4908  0.4908

 Free energy of the ion-electron system (eV)
  ---------------------------------------------------
  alpha Z        PSCENC =        20.01214494
  Ewald energy   TEWEN  =     23967.19658774
  -Hartree energ DENC   =    -28811.18958095
  -exchange      EXHF   =         0.00000000
  -V(xc)+E(xc)   XCENC  =      -261.58211403
  PAW double counting   =     28846.21751738   -28297.25387678
  entropy T*S    EENTRO =        -0.15779774
  eigenvalues    EBANDS =     -1733.10608522
  atomic energy  EATOM  =      5756.09450232
  Solvation  Ediel_sol  =         0.00000000
  ---------------------------------------------------
  free energy    TOTEN  =      -513.76870234 eV

  energy without entropy =     -513.61090460  energy(sigma->0) =     -513.68980347


--------------------------------------------------------------------------------------------------------




--------------------------------------- Iteration      1(   9)  ---------------------------------------


    POTLOK:  cpu time      1.9315: real time      1.9606
    SETDIJ:  cpu time      1.3115: real time      1.3121
    EDDIAG:  cpu time     46.1665: real time     46.1914
     EDDAV:  cpu time    206.5919: real time    206.7139
       DOS:  cpu time      0.0025: real time      0.0025
    CHARGE:  cpu time     26.0970: real time     26.1213
    MIXING:  cpu time      0.0411: real time      0.0411
    --------------------------------------------
      LOOP:  cpu time    282.1422: real time    282.3433

 eigenvalue-minimisations  :  2576
 total energy-change (2. order) :-0.2128311E-03  (-0.1893016E-03)
 number of electron     226.9999999 magnetization 
 augmentation part      -12.6542495 magnetization 

 Broyden mixing:
  rms(total) = 0.27907E-02    rms(broyden)= 0.27109E-01
  rms(prec ) = 0.35970E-02
  weight for this iteration     100.00
  WARNING: grid for Broyden might be to small

 eigenvalues of (default mixing * dielectric matrix)
  average eigenvalue GAMMA=   1.0701
  2.5459  2.1187  0.8656  0.8656  0.6220  0.6220  0.4605  0.4605

 Free energy of the ion-electron system (eV)
  ---------------------------------------------------
  alpha Z        PSCENC =        20.01214494
  Ewald energy   TEWEN  =     23967.19658774
  -Hartree energ DENC   =    -28810.89955704
  -exchange      EXHF   =         0.00000000
  -V(xc)+E(xc)   XCENC  =      -261.57566270
  PAW double counting   =     28866.80027431   -28317.83380839
  entropy T*S    EENTRO =        -0.15775531
  eigenvalues    EBANDS =     -1733.40564104
  atomic energy  EATOM  =      5756.09450232
  Solvation  Ediel_sol  =         0.00000000
  ---------------------------------------------------
  free energy    TOTEN  =      -513.76891517 eV

  energy without entropy =     -513.61115986  energy(sigma->0) =     -513.69003752


--------------------------------------------------------------------------------------------------------




--------------------------------------- Iteration      1(  10)  ---------------------------------------


    POTLOK:  cpu time      1.9281: real time      1.9580
    SETDIJ:  cpu time      1.3147: real time      1.3155
    EDDIAG:  cpu time     46.1275: real time     46.1524
     EDDAV:  cpu time    205.8540: real time    205.9706
       DOS:  cpu time      0.0024: real time      0.0024
    CHARGE:  cpu time     26.0800: real time     26.1038
    MIXING:  cpu time      0.0415: real time      0.0415
    --------------------------------------------
      LOOP:  cpu time    281.3481: real time    281.5440

 eigenvalue-minimisations  :  2560
 total energy-change (2. order) : 0.2366575E-03  (-0.6766855E-04)
 number of electron     226.9999999 magnetization 
 augmentation part      -12.6542576 magnetization 

 Broyden mixing:
  rms(total) = 0.21590E-02    rms(broyden)= 0.96468E-02
  rms(prec ) = 0.27147E-02
  weight for this iteration     100.00
  WARNING: grid for Broyden might be to small

 eigenvalues of (default mixing * dielectric matrix)
  average eigenvalue GAMMA=   1.0880
  2.5665  2.5665  1.0343  0.6916  0.6916  0.6959  0.6144  0.4654  0.4654

 Free energy of the ion-electron system (eV)
  ---------------------------------------------------
  alpha Z        PSCENC =        20.01214494
  Ewald energy   TEWEN  =     23967.19658774
  -Hartree energ DENC   =    -28810.69590401
  -exchange      EXHF   =         0.00000000
  -V(xc)+E(xc)   XCENC  =      -261.57633908
  PAW double counting   =     28868.09371370   -28319.12602491
  entropy T*S    EENTRO =        -0.15771153
  eigenvalues    EBANDS =     -1733.60964768
  atomic energy  EATOM  =      5756.09450232
  Solvation  Ediel_sol  =         0.00000000
  ---------------------------------------------------
  free energy    TOTEN  =      -513.76867851 eV

  energy without entropy =     -513.61096699  energy(sigma->0) =     -513.68982275


--------------------------------------------------------------------------------------------------------




--------------------------------------- Iteration      1(  11)  ---------------------------------------


    POTLOK:  cpu time      1.9327: real time      1.9607
    SETDIJ:  cpu time      1.3157: real time      1.3162
    EDDIAG:  cpu time     46.1326: real time     46.1556
     EDDAV:  cpu time    207.9344: real time    208.0588
       DOS:  cpu time      0.0026: real time      0.0026
    CHARGE:  cpu time     26.0708: real time     26.0953
    MIXING:  cpu time      0.0425: real time      0.0425
    --------------------------------------------
      LOOP:  cpu time    283.4313: real time    283.6318

 eigenvalue-minimisations  :  2608
 total energy-change (2. order) :-0.5045979E-04  (-0.3478796E-04)
 number of electron     226.9999999 magnetization 
 augmentation part      -12.6544929 magnetization 

 Broyden mixing:
  rms(total) = 0.87178E-03    rms(broyden)= 0.76215E-02
  rms(prec ) = 0.12173E-02
  weight for this iteration     100.00
  WARNING: grid for Broyden might be to small

 eigenvalues of (default mixing * dielectric matrix)
  average eigenvalue GAMMA=   1.1090
  2.8375  2.6683  1.1163  0.8093  0.8093  0.7290  0.6272  0.4697  0.4697  0.5541

 Free energy of the ion-electron system (eV)
  ---------------------------------------------------
  alpha Z        PSCENC =        20.01214494
  Ewald energy   TEWEN  =     23967.19658774
  -Hartree energ DENC   =    -28810.45080240
  -exchange      EXHF   =         0.00000000
  -V(xc)+E(xc)   XCENC  =      -261.58427793
  PAW double counting   =     28865.12360207   -28316.15488578
  entropy T*S    EENTRO =        -0.15772623
  eigenvalues    EBANDS =     -1733.84787369
  atomic energy  EATOM  =      5756.09450232
  Solvation  Ediel_sol  =         0.00000000
  ---------------------------------------------------
  free energy    TOTEN  =      -513.76872897 eV

  energy without entropy =     -513.61100275  energy(sigma->0) =     -513.68986586


--------------------------------------------------------------------------------------------------------




--------------------------------------- Iteration      1(  12)  ---------------------------------------


    POTLOK:  cpu time      1.9416: real time      1.9714
    SETDIJ:  cpu time      1.3202: real time      1.3211
    EDDIAG:  cpu time     46.1689: real time     46.1944
     EDDAV:  cpu time    204.3352: real time    204.4478
       DOS:  cpu time      0.0024: real time      0.0024
    CHARGE:  cpu time     26.0580: real time     26.0803
    MIXING:  cpu time      0.0443: real time      0.0443
    --------------------------------------------
      LOOP:  cpu time    279.8704: real time    280.0616

 eigenvalue-minimisations  :  2528
 total energy-change (2. order) :-0.1596851E-03  (-0.2361022E-04)
 number of electron     226.9999999 magnetization 
 augmentation part      -12.6546655 magnetization 

 Broyden mixing:
  rms(total) = 0.87516E-03    rms(broyden)= 0.68111E-02
  rms(prec ) = 0.11303E-02
  weight for this iteration     100.00
  WARNING: grid for Broyden might be to small

 eigenvalues of (default mixing * dielectric matrix)
  average eigenvalue GAMMA=   1.1752
  3.2653  2.6414  1.6203  1.0386  0.7446  0.7446  0.7371  0.4684  0.4684  0.6090
  0.5899

 Free energy of the ion-electron system (eV)
  ---------------------------------------------------
  alpha Z        PSCENC =        20.01214494
  Ewald energy   TEWEN  =     23967.19658774
  -Hartree energ DENC   =    -28810.19242752
  -exchange      EXHF   =         0.00000000
  -V(xc)+E(xc)   XCENC  =      -261.59151934
  PAW double counting   =     28863.18821902   -28314.21899856
  entropy T*S    EENTRO =        -0.15775003
  eigenvalues    EBANDS =     -1734.09964723
  atomic energy  EATOM  =      5756.09450232
  Solvation  Ediel_sol  =         0.00000000
  ---------------------------------------------------
  free energy    TOTEN  =      -513.76888866 eV

  energy without entropy =     -513.61113863  energy(sigma->0) =     -513.69001365


--------------------------------------------------------------------------------------------------------




--------------------------------------- Iteration      1(  13)  ---------------------------------------


    POTLOK:  cpu time      1.9317: real time      1.9623
    SETDIJ:  cpu time      1.3161: real time      1.3172
    EDDIAG:  cpu time     46.1730: real time     46.1989
     EDDAV:  cpu time    204.3464: real time    204.4627
       DOS:  cpu time      0.0033: real time      0.0034
    CHARGE:  cpu time     26.0817: real time     26.1049
    MIXING:  cpu time      0.0446: real time      0.0446
    --------------------------------------------
      LOOP:  cpu time    279.8970: real time    280.0939

 eigenvalue-minimisations  :  2528
 total energy-change (2. order) :-0.1656981E-03  (-0.1890865E-04)
 number of electron     226.9999999 magnetization 
 augmentation part      -12.6546672 magnetization 

 Broyden mixing:
  rms(total) = 0.37784E-03    rms(broyden)= 0.45416E-02
  rms(prec ) = 0.62113E-03
  weight for this iteration     100.00
  WARNING: grid for Broyden might be to small

 eigenvalues of (default mixing * dielectric matrix)
  average eigenvalue GAMMA=   1.3509
  4.8534  2.6039  2.4642  1.0268  0.8889  0.8889  0.4677  0.4677  0.6438  0.6438
  0.6307  0.6307

 Free energy of the ion-electron system (eV)
  ---------------------------------------------------
  alpha Z        PSCENC =        20.01214494
  Ewald energy   TEWEN  =     23967.19658774
  -Hartree energ DENC   =    -28810.00576423
  -exchange      EXHF   =         0.00000000
  -V(xc)+E(xc)   XCENC  =      -261.59846855
  PAW double counting   =     28863.36057780   -28314.39143384
  entropy T*S    EENTRO =        -0.15774681
  eigenvalues    EBANDS =     -1734.27945372
  atomic energy  EATOM  =      5756.09450232
  Solvation  Ediel_sol  =         0.00000000
  ---------------------------------------------------
  free energy    TOTEN  =      -513.76905436 eV

  energy without entropy =     -513.61130755  energy(sigma->0) =     -513.69018095


--------------------------------------------------------------------------------------------------------




--------------------------------------- Iteration      1(  14)  ---------------------------------------


    POTLOK:  cpu time      1.9583: real time      1.9603
    SETDIJ:  cpu time      1.3150: real time      1.3161
    EDDIAG:  cpu time     46.1222: real time     46.1470
     EDDAV:  cpu time    204.5244: real time    204.6374
       DOS:  cpu time      0.0102: real time      0.0104
    CHARGE:  cpu time     26.0674: real time     26.0903
    MIXING:  cpu time      0.0601: real time      0.0606
    --------------------------------------------
      LOOP:  cpu time    280.0579: real time    280.2225

 eigenvalue-minimisations  :  2528
 total energy-change (2. order) :-0.1436870E-03  (-0.2141469E-04)
 number of electron     226.9999999 magnetization 
 augmentation part      -12.6547314 magnetization 

 Broyden mixing:
  rms(total) = 0.24902E-03    rms(broyden)= 0.32749E-02
  rms(prec ) = 0.42564E-03
  weight for this iteration     100.00
  WARNING: grid for Broyden might be to small

 eigenvalues of (default mixing * dielectric matrix)
  average eigenvalue GAMMA=   1.4879
  6.7327  2.6566  2.6566  1.1273  1.1273  0.8053  0.8053  0.4680  0.4680  0.6587
  0.6127  0.6127  0.6112

 Free energy of the ion-electron system (eV)
  ---------------------------------------------------
  alpha Z        PSCENC =        20.01214494
  Ewald energy   TEWEN  =     23967.19658774
  -Hartree energ DENC   =    -28809.82234082
  -exchange      EXHF   =         0.00000000
  -V(xc)+E(xc)   XCENC  =      -261.60191567
  PAW double counting   =     28863.28535642   -28314.31642170
  entropy T*S    EENTRO =        -0.15775613
  eigenvalues    EBANDS =     -1734.45935513
  atomic energy  EATOM  =      5756.09450232
  Solvation  Ediel_sol  =         0.00000000
  ---------------------------------------------------
  free energy    TOTEN  =      -513.76919804 eV

  energy without entropy =     -513.61144192  energy(sigma->0) =     -513.69031998


--------------------------------------------------------------------------------------------------------




--------------------------------------- Iteration      1(  15)  ---------------------------------------


    POTLOK:  cpu time      1.9398: real time      1.9621
    SETDIJ:  cpu time      1.3185: real time      1.3191
    EDDIAG:  cpu time     46.1500: real time     46.1768
     EDDAV:  cpu time    204.4387: real time    204.5565
       DOS:  cpu time      0.0031: real time      0.0031
    CHARGE:  cpu time     26.0721: real time     26.0946
    MIXING:  cpu time      0.0453: real time      0.0453
    --------------------------------------------
      LOOP:  cpu time    279.9671: real time    280.1572

 eigenvalue-minimisations  :  2528
 total energy-change (2. order) :-0.1460054E-03  (-0.2213362E-04)
 number of electron     226.9999999 magnetization 
 augmentation part      -12.6547713 magnetization 

 Broyden mixing:
  rms(total) = 0.29088E-03    rms(broyden)= 0.25087E-02
  rms(prec ) = 0.39376E-03
  weight for this iteration     100.00
  WARNING: grid for Broyden might be to small

 eigenvalues of (default mixing * dielectric matrix)
  average eigenvalue GAMMA=   1.6223
  8.6194  2.7434  2.7434  1.6636  1.0061  1.0061  0.7668  0.7668  0.4684  0.4684
  0.6636  0.6452  0.5956  0.5555

 Free energy of the ion-electron system (eV)
  ---------------------------------------------------
  alpha Z        PSCENC =        20.01214494
  Ewald energy   TEWEN  =     23967.19658774
  -Hartree energ DENC   =    -28809.62740486
  -exchange      EXHF   =         0.00000000
  -V(xc)+E(xc)   XCENC  =      -261.60683556
  PAW double counting   =     28863.60138046   -28314.63284546
  entropy T*S    EENTRO =        -0.15774443
  eigenvalues    EBANDS =     -1734.64912920
  atomic energy  EATOM  =      5756.09450232
  Solvation  Ediel_sol  =         0.00000000
  ---------------------------------------------------
  free energy    TOTEN  =      -513.76934405 eV

  energy without entropy =     -513.61159962  energy(sigma->0) =     -513.69047184


--------------------------------------------------------------------------------------------------------




--------------------------------------- Iteration      1(  16)  ---------------------------------------


    POTLOK:  cpu time      1.9442: real time      1.9573
    SETDIJ:  cpu time      1.3152: real time      1.3160
    EDDIAG:  cpu time     46.1629: real time     46.1900
     EDDAV:  cpu time    207.2190: real time    207.3457
       DOS:  cpu time      0.0025: real time      0.0025
    CHARGE:  cpu time     26.1125: real time     26.1363
    MIXING:  cpu time      0.0466: real time      0.0466
    --------------------------------------------
      LOOP:  cpu time    282.8030: real time    282.9944

 eigenvalue-minimisations  :  2592
 total energy-change (2. order) :-0.9966160E-04  (-0.1009223E-04)
 number of electron     226.9999999 magnetization 
 augmentation part      -12.6548146 magnetization 

 Broyden mixing:
  rms(total) = 0.13494E-03    rms(broyden)= 0.17680E-02
  rms(prec ) = 0.19583E-03
  weight for this iteration     100.00
  WARNING: grid for Broyden might be to small

 eigenvalues of (default mixing * dielectric matrix)
  average eigenvalue GAMMA=   1.6707
  9.5275  2.8261  2.8261  1.9509  1.2229  0.8672  0.8672  0.8196  0.8196  0.4686
  0.4686  0.6383  0.6383  0.5602  0.5602

 Free energy of the ion-electron system (eV)
  ---------------------------------------------------
  alpha Z        PSCENC =        20.01214494
  Ewald energy   TEWEN  =     23967.19658774
  -Hartree energ DENC   =    -28809.50403009
  -exchange      EXHF   =         0.00000000
  -V(xc)+E(xc)   XCENC  =      -261.60767277
  PAW double counting   =     28863.67129231   -28314.70292375
  entropy T*S    EENTRO =        -0.15775987
  eigenvalues    EBANDS =     -1734.77158454
  atomic energy  EATOM  =      5756.09450232
  Solvation  Ediel_sol  =         0.00000000
  ---------------------------------------------------
  free energy    TOTEN  =      -513.76944371 eV

  energy without entropy =     -513.61168384  energy(sigma->0) =     -513.69056378


--------------------------------------------------------------------------------------------------------




--------------------------------------- Iteration      1(  17)  ---------------------------------------


    POTLOK:  cpu time      1.9394: real time      1.9616
    SETDIJ:  cpu time      1.3137: real time      1.3144
    EDDIAG:  cpu time     46.1655: real time     46.1881
     EDDAV:  cpu time    204.7015: real time    204.8178
       DOS:  cpu time      0.0025: real time      0.0025
    CHARGE:  cpu time     26.1307: real time     26.1548
    MIXING:  cpu time      0.0467: real time      0.0467
    --------------------------------------------
      LOOP:  cpu time    280.2999: real time    280.4858

 eigenvalue-minimisations  :  2536
 total energy-change (2. order) :-0.4905728E-04  (-0.4751014E-05)
 number of electron     226.9999999 magnetization 
 augmentation part      -12.6548289 magnetization 

 Broyden mixing:
  rms(total) = 0.83315E-04    rms(broyden)= 0.12950E-02
  rms(prec ) = 0.12453E-03
  weight for this iteration     100.00
  WARNING: grid for Broyden might be to small

 eigenvalues of (default mixing * dielectric matrix)
  average eigenvalue GAMMA=   1.6380
  9.7397  2.9597  2.7753  2.0961  1.2496  1.0717  0.8558  0.8558  0.6799  0.6799
  0.6574  0.6217  0.5377  0.4699  0.4699  0.4880

 Free energy of the ion-electron system (eV)
  ---------------------------------------------------
  alpha Z        PSCENC =        20.01214494
  Ewald energy   TEWEN  =     23967.19658774
  -Hartree energ DENC   =    -28809.42992732
  -exchange      EXHF   =         0.00000000
  -V(xc)+E(xc)   XCENC  =      -261.60870007
  PAW double counting   =     28863.70384610   -28314.73553279
  entropy T*S    EENTRO =        -0.15775665
  eigenvalues    EBANDS =     -1734.84465702
  atomic energy  EATOM  =      5756.09450232
  Solvation  Ediel_sol  =         0.00000000
  ---------------------------------------------------
  free energy    TOTEN  =      -513.76949277 eV

  energy without entropy =     -513.61173612  energy(sigma->0) =     -513.69061444


--------------------------------------------------------------------------------------------------------




--------------------------------------- Iteration      1(  18)  ---------------------------------------


    POTLOK:  cpu time      1.9310: real time      1.9579
    SETDIJ:  cpu time      1.3177: real time      1.3186
    EDDIAG:  cpu time     46.1948: real time     46.2217
     EDDAV:  cpu time    202.9763: real time    203.0988
       DOS:  cpu time      0.0035: real time      0.0035
    CHARGE:  cpu time     26.1254: real time     26.1494
    MIXING:  cpu time      0.0480: real time      0.0480
    --------------------------------------------
      LOOP:  cpu time    278.5967: real time    278.7979

 eigenvalue-minimisations  :  2496
 total energy-change (2. order) :-0.2535344E-04  (-0.2222194E-05)
 number of electron     226.9999999 magnetization 
 augmentation part      -12.6548425 magnetization 

 Broyden mixing:
  rms(total) = 0.91789E-04    rms(broyden)= 0.81536E-03
  rms(prec ) = 0.11944E-03
  weight for this iteration     100.00
  WARNING: grid for Broyden might be to small

 eigenvalues of (default mixing * dielectric matrix)
  average eigenvalue GAMMA=   1.6538
  9.9004  3.1657  2.7393  2.3665  1.5351  1.1709  0.9784  0.8407  0.8407  0.7434
  0.6387  0.6387  0.5683  0.5683  0.4696  0.4696  0.4805

 Free energy of the ion-electron system (eV)
  ---------------------------------------------------
  alpha Z        PSCENC =        20.01214494
  Ewald energy   TEWEN  =     23967.19658774
  -Hartree energ DENC   =    -28809.38553462
  -exchange      EXHF   =         0.00000000
  -V(xc)+E(xc)   XCENC  =      -261.60890001
  PAW double counting   =     28863.62769064   -28314.65936160
  entropy T*S    EENTRO =        -0.15776113
  eigenvalues    EBANDS =     -1734.88888639
  atomic energy  EATOM  =      5756.09450232
  Solvation  Ediel_sol  =         0.00000000
  ---------------------------------------------------
  free energy    TOTEN  =      -513.76951812 eV

[...]
  Kinetic  1538.90075  1530.03205  1575.44851    -1.43888     8.04833     5.47724
  Fock        0.00000     0.00000     0.00000     0.00000     0.00000     0.00000
  -------------------------------------------------------------------------------------
  Total     -13.23627   -23.10849    -4.73773    -0.90952     2.77119     7.80671
  in kB      -3.89560    -6.80111    -1.39437    -0.26768     0.81559     2.29761
  external pressure =       -4.03 kB  Pullay stress =        0.00 kB


 VOLUME and BASIS-vectors are now :
 -----------------------------------------------------------------------------
  energy-cutoff  :     1200.00
  volume of cell :     5443.80
      direct lattice vectors                 reciprocal lattice vectors
    14.549215408  0.000000000  0.000000000     0.068732229  0.000000000  0.000000000
     0.000000000 14.549215408  0.000000000     0.000000000  0.068732229  0.000000000
     0.000000000  0.000000000 25.717161000     0.000000000  0.000000000  0.038884541

  length of vectors
    14.549215408 14.549215408 25.717161000     0.068732229  0.068732229  0.038884541


 FORCES acting on ions
    electron-ion (+dipol)            ewald-force                    non-local-force                 convergence-correction
 -----------------------------------------------------------------------------------------------
   -.382E+00 -.402E+01 0.742E+02   0.346E+00 0.444E+01 -.771E+02   -.673E-01 -.672E+00 0.294E+01   -.161E-04 -.103E-04 -.165E-04
   0.682E+01 0.726E+01 -.337E+02   -.793E+01 -.733E+01 0.348E+02   0.123E+01 0.155E-01 -.103E+01   0.902E-05 -.207E-05 -.134E-04
   -.204E+01 0.188E+01 0.626E+02   0.158E+01 -.189E+01 -.625E+02   -.109E+00 0.269E-01 0.170E+00   0.159E-04 -.281E-05 -.124E-04
   0.301E+01 0.313E+01 -.613E+02   -.338E+01 -.330E+01 0.622E+02   0.485E+00 0.751E+00 -.210E+01   -.116E-04 -.153E-04 -.103E-04
   0.173E+02 -.779E+01 -.672E+02   -.178E+02 0.807E+01 0.677E+02   0.174E+01 -.606E+00 -.157E+01   0.729E-05 0.134E-04 -.300E-05
   0.676E+00 -.675E+01 0.783E+02   -.896E+00 0.771E+01 -.816E+02   -.149E+00 -.878E+00 0.309E+01   -.479E-05 0.510E-05 -.505E-05
   0.395E+01 -.410E+01 -.565E+02   -.355E+01 0.447E+01 0.597E+02   -.463E+00 -.408E+00 -.297E+01   -.128E-05 0.757E-05 -.125E-04
   0.584E+00 0.776E+01 0.183E+03   -.103E+01 -.810E+01 -.186E+03   -.108E+00 -.255E+00 0.201E+01   0.580E-04 0.921E-04 -.928E-04
   -.162E+02 0.836E+01 0.401E+02   0.139E+02 -.830E+01 -.425E+02   0.282E+01 -.111E+01 0.156E+01   -.382E-04 0.195E-04 -.850E-04
   0.144E+01 -.930E+01 0.195E+03   0.634E+00 0.116E+02 -.200E+03   -.114E+01 -.280E+01 0.374E+01   -.945E-05 -.108E-04 -.311E-04
   -.769E+01 -.143E+02 -.114E+03   0.881E+01 0.143E+02 0.112E+03   -.910E+00 -.349E+00 0.183E+01   0.269E-05 -.600E-04 -.414E-04
   0.180E+02 0.125E+02 0.762E+02   -.196E+02 -.135E+02 -.762E+02   0.207E+01 0.653E+00 -.958E-02   0.851E-05 0.564E-04 -.129E-03
   0.624E+01 0.933E+01 0.244E+03   -.578E+01 -.743E+01 -.246E+03   -.112E+01 -.257E+01 0.107E+01   0.111E-04 -.311E-04 -.123E-03
   -.306E+01 -.154E+02 -.192E+03   0.337E+01 0.154E+02 0.189E+03   -.184E+00 -.110E+01 0.264E+01   0.829E-05 0.211E-04 -.433E-04
   0.147E+02 -.167E+01 0.107E+03   -.129E+02 0.283E+01 -.107E+03   -.225E+01 -.160E+01 -.160E+01   -.394E-04 -.106E-05 -.757E-04
   0.134E+01 -.216E+02 -.199E+03   -.677E+00 0.198E+02 0.197E+03   -.996E+00 0.215E+01 0.201E+01   0.331E-04 -.717E-04 -.254E-04
   0.444E+01 -.316E+02 0.166E+03   -.476E+01 0.314E+02 -.164E+03   0.158E+01 0.121E+00 -.283E+01   0.139E-04 -.341E-04 -.507E-04
   0.470E+01 -.277E+01 -.444E+02   -.376E+01 0.263E+01 0.425E+02   -.157E+01 -.178E+00 0.222E+01   -.678E-04 -.383E-04 -.814E-04
   0.124E+02 0.271E+02 0.130E+03   -.126E+02 -.243E+02 -.129E+03   0.507E+00 -.443E+01 -.154E+01   -.313E-04 0.844E-04 -.917E-04
   -.723E+01 0.113E+02 0.197E+03   0.736E+01 -.914E+01 -.194E+03   0.103E+00 -.160E+01 -.195E+01   -.580E-04 0.883E-06 -.868E-04
   -.842E+01 -.974E+01 -.229E+03   0.830E+01 0.113E+02 0.232E+03   0.514E-01 -.215E+01 -.412E+01   0.486E-04 0.289E-05 0.964E-05
   -.191E+02 -.552E+01 -.134E+03   0.178E+02 0.617E+01 0.134E+03   0.101E+01 -.129E+01 -.139E+01   0.439E-04 0.670E-04 -.780E-04
   -.657E+01 0.117E+02 -.267E+02   0.560E+01 -.120E+02 0.257E+02   -.385E+00 0.263E+00 0.847E+00   -.107E-04 -.502E-04 -.522E-04
   -.173E+02 -.172E+02 0.187E+03   0.193E+02 0.159E+02 -.187E+03   -.244E+01 0.236E+01 -.868E+00   0.663E-04 0.684E-04 -.937E-04
   -.227E+01 -.157E+02 0.231E+02   0.817E+00 0.161E+02 -.233E+02   0.145E+01 0.373E+00 0.384E+00   0.179E-04 -.944E-05 -.632E-04
   0.144E+02 -.674E+01 -.164E+03   -.154E+02 0.266E+01 0.163E+03   0.108E+00 0.460E+01 0.227E+01   -.727E-05 0.387E-04 -.662E-04
   -.309E+02 -.169E+02 0.237E+03   0.318E+02 0.155E+02 -.238E+03   -.148E+01 0.190E+01 0.253E+00   0.562E-05 -.192E-04 -.789E-05
   -.256E+02 -.166E+02 -.515E+02   0.233E+02 0.156E+02 0.499E+02   0.278E+01 0.185E+01 0.237E+01   0.818E-04 0.700E-04 -.913E-04
   -.118E+02 0.332E+01 0.154E+03   0.111E+02 -.351E+01 -.152E+03   0.337E+00 -.876E+00 -.165E+00   -.447E-04 0.343E-04 -.700E-04
   -.262E+01 0.181E+01 -.210E+03   0.349E+01 -.109E+01 0.211E+03   -.959E+00 -.218E+00 0.984E+00   -.112E-04 0.233E-04 -.609E-04
   0.172E+01 0.876E+01 0.142E+03   -.240E+01 -.703E+01 -.143E+03   0.173E+00 -.265E+01 0.135E+00   -.326E-04 0.466E-04 -.496E-04
   -.329E+00 0.972E+01 0.193E+02   0.190E+00 -.990E+01 -.213E+02   0.379E+00 -.289E+00 0.253E+01   0.613E-04 -.346E-06 -.956E-04
   -.433E+01 0.128E+02 -.178E+03   0.427E+01 -.138E+02 0.176E+03   0.604E+00 0.909E+00 0.148E+01   -.964E-05 0.660E-04 -.304E-04
   0.147E+02 -.125E+02 0.314E+02   -.134E+02 0.123E+02 -.322E+02   -.255E+01 -.515E+00 0.128E+01   0.234E-04 -.576E-04 -.567E-04
   -.163E+02 0.641E+01 0.233E+03   0.172E+02 -.433E+01 -.231E+03   -.819E+00 -.252E+01 -.238E+01   0.741E-04 -.946E-05 -.376E-04
   -.493E+01 -.705E+01 -.220E+03   0.640E+01 0.644E+01 0.220E+03   -.241E+01 0.150E+01 -.191E+00   -.630E-04 0.376E-04 -.756E-04
   0.164E+02 0.260E+02 -.167E+03   -.148E+02 -.276E+02 0.166E+03   -.107E+01 0.241E+01 0.110E+01   0.732E-05 -.785E-05 -.404E-04
   -.135E+00 0.760E+01 0.135E+03   -.231E+00 -.663E+01 -.133E+03   -.262E+00 -.734E+00 -.811E+00   0.257E-04 -.480E-04 -.859E-04
   0.155E+01 -.875E+00 -.481E+02   -.180E+01 0.753E+00 0.504E+02   0.860E+00 0.858E+00 -.274E+01   -.640E-04 -.132E-04 -.104E-03
   0.153E+02 0.249E+02 0.238E+03   -.135E+02 -.264E+02 -.239E+03   -.198E+01 0.135E+01 0.114E+01   -.105E-05 -.180E-04 -.119E-04
   -.590E+01 0.152E+02 0.277E+02   0.548E+01 -.142E+02 -.277E+02   0.865E+00 -.213E+01 0.649E-02   -.729E-05 -.659E-04 -.802E-04
   0.105E+02 -.725E+01 -.226E+03   -.121E+02 0.690E+01 0.231E+03   0.171E+01 0.109E+01 -.386E+01   0.247E-04 -.551E-04 -.329E-04
   0.103E+02 -.240E+01 -.188E+02   -.900E+01 0.173E+00 0.201E+02   -.253E+01 0.340E+01 -.543E+00   -.316E-05 0.163E-04 -.502E-04
   0.387E+01 0.868E+01 -.223E+03   -.540E+01 -.652E+01 0.225E+03   0.618E+00 -.213E+01 -.108E+01   -.176E-04 -.128E-05 -.166E-04
   0.255E+02 0.743E+01 0.120E+03   -.258E+02 -.710E+01 -.120E+03   -.163E+00 -.601E+00 -.789E+00   -.402E-04 -.478E-04 -.587E-04
   0.487E+01 0.174E+02 -.314E+02   -.636E+01 -.164E+02 0.306E+02   0.118E+01 -.116E+01 0.173E+01   0.244E-04 -.154E-04 -.465E-04
   -.989E+01 -.505E+00 -.211E+03   0.114E+02 0.419E+00 0.216E+03   -.158E+01 -.998E-01 -.401E+01   -.298E-04 -.574E-04 -.467E-04
   -.109E+02 -.435E+01 0.723E+02   0.107E+02 0.403E+01 -.719E+02   -.195E-01 0.280E+00 -.811E+00   -.766E-06 -.142E-04 -.194E-04
   0.366E+01 -.136E+02 -.201E+03   -.360E+01 0.144E+02 0.200E+03   0.654E+00 -.988E+00 0.614E+00   -.880E-04 0.484E-04 -.587E-04
   -.220E+02 0.115E+01 0.130E+03   0.221E+02 -.723E+00 -.129E+03   0.275E+00 -.115E+00 -.259E+00   -.146E-04 -.658E-05 -.333E-04
   -.141E+02 0.414E+01 -.213E+03   0.128E+02 -.491E+01 0.212E+03   0.939E+00 0.410E+00 0.600E-01   0.174E-04 -.341E-04 -.383E-04
   0.271E+01 0.148E+02 -.193E+03   -.266E+01 -.154E+02 0.195E+03   -.925E-01 -.663E+00 -.191E+01   0.613E-05 0.139E-04 -.468E-04
   0.834E+01 0.132E+02 -.197E+03   -.106E+02 -.146E+02 0.197E+03   0.257E+01 0.163E+01 -.402E+00   -.203E-04 -.953E-04 -.311E-04
   -.191E+02 0.259E+01 0.186E+02   0.179E+02 -.270E+01 -.196E+02   0.271E+01 0.493E+00 0.120E+01   -.165E-05 -.981E-04 -.883E-04
   0.120E+02 0.409E+01 0.192E+03   -.114E+02 -.400E+01 -.189E+03   -.567E+00 0.129E+01 -.434E+01   -.263E-04 -.647E-04 -.849E-04
   0.272E+02 0.142E+01 0.175E+02   -.261E+02 -.925E+00 -.152E+02   -.138E+01 0.137E+00 -.245E+01   -.141E-04 0.388E-05 -.132E-03
   0.333E+02 -.225E+01 0.130E+03   -.329E+02 0.164E+01 -.129E+03   0.740E-01 0.136E+01 -.233E+01   0.106E-04 -.316E-04 -.384E-04
   -.727E+01 0.168E+02 -.124E+03   0.529E+01 -.164E+02 0.126E+03   0.246E+01 -.605E+00 -.162E+01   -.632E-05 -.258E-04 -.591E-04
   0.181E+02 -.162E+02 0.201E+03   -.192E+02 0.157E+02 -.200E+03   0.631E+00 0.138E+01 -.124E+00   -.242E-05 0.340E-04 -.379E-04
   -.125E+02 -.128E+02 0.127E+02   0.110E+02 0.129E+02 -.125E+02   0.262E+01 0.736E+00 0.107E+01   0.135E-04 0.924E-04 -.830E-04
   -.216E+02 -.111E+02 -.412E+01   0.188E+02 0.103E+02 0.550E+01   0.398E+01 0.148E+01 -.105E+01   -.195E-04 0.288E-04 -.527E-04
   -.202E+02 -.777E+01 -.249E+02   0.204E+02 0.734E+01 0.251E+02   0.511E+00 0.246E+00 0.977E-01   0.680E-04 0.270E-04 -.110E-03
 -----------------------------------------------------------------------------------------------
   -.103E+02 0.225E+01 0.110E+02   0.110E-12 0.533E-13 -.995E-13   0.103E+02 -.225E+01 -.110E+02   -.257E-04 -.104E-03 -.344E-02


 POSITION                                       TOTAL-FORCE (eV/Angst)
 -----------------------------------------------------------------------------------
      8.53660      8.54332     10.69763        -0.103360     -0.246598      0.068208
      3.73930     10.51870     14.09391         0.117992     -0.045060      0.061429
      5.96400      6.63854     10.00000        -0.564759      0.022930      0.281341
     11.69340      1.71300     14.93930         0.109994      0.590682     -1.198289
      6.66646      5.02938     15.71716         1.242550     -0.325919     -1.020588
     12.22770      7.84338     10.37536        -0.369098      0.081724     -0.166680
      6.84860      7.24695     14.34661        -0.064781     -0.035008      0.196027
      5.62646      3.51028     11.41627        -0.511586     -0.532373     -0.024436
     10.13450      6.71161     12.67149         0.584637     -1.117825     -0.725495
      1.37136     11.32350     11.03813         0.837604     -0.723443     -0.261833
      9.60356     13.81570     14.05236         0.128955     -0.514426     -0.079473
      7.11929      4.89017     12.40394         0.629495     -0.347314     -0.020082
      0.98976      3.01598     10.32530        -0.737645     -0.811858      0.062444
      0.86684      3.82140     14.71878         0.109613     -1.247618      0.289149
      8.50445      8.21685     12.16549        -0.608198     -0.509650     -1.945919
      5.72631     13.79230     15.09420        -0.414185      0.400543     -0.301922
      7.34176      0.17842     11.65265         1.375253     -0.103115     -0.800805
     12.06670      2.28820     13.45432        -0.735834     -0.341146      0.462043
     13.91630      5.86345     11.97595         0.403698     -1.752942      0.135137
      9.27334      4.87921     11.44379         0.239393      0.428910      0.823887
      4.25137      2.58887     15.64493        -0.110598     -0.741263     -1.049486
      2.77982      6.96574     13.91678        -0.262957     -0.763703     -0.945286
     13.30270     12.96870     13.25625        -1.385713     -0.035805     -0.240013
      1.91246      4.86448     11.24694        -0.728268      1.062589     -0.694578
      8.92539      1.26490     12.94004         0.075075      0.778346      0.189734
      7.83575      4.61721     14.66169        -0.903210      0.755304      0.986329
      8.77571     12.93680     10.62511        -0.856559      0.556875      0.019698
      2.56857      4.50727     13.39065         0.571225      0.971369      0.909928
     10.36330      2.88299     11.84231        -0.443241     -1.093311      1.179763
     10.72560      9.61538     14.70052        -0.159640      0.475070      1.828342
     12.19740      7.43574     11.79455        -0.498425     -1.028677     -0.741051
      4.51343      8.02157     12.64501         0.278742     -0.452581      0.580147
     14.02140      8.48731     14.60799         0.657835      0.190734     -0.757407
      5.53560     14.13440     12.78048        -1.427280     -0.716900      0.525230
      3.54460      8.05778     10.63253        -0.133260     -0.555304     -0.419886
     12.05230      5.13052     15.25191        -1.164303      0.947689      0.380731
      7.07197     10.41470     14.47416         0.603410      1.099063      0.161455
      3.72281      0.92831     12.05572        -0.603059      0.224411      1.050447
     13.37880      4.16260     13.69650         0.648654      0.780817     -0.481567
      6.90752     11.59010     10.37506        -0.270846      0.137924      0.912103
      0.95435     12.75440     12.90173         0.470245     -1.216940      0.016819
      3.47247     13.17570     15.67022         0.281478      0.712473      0.307260
      9.05329     10.01380     13.27450        -1.398475      1.336271      0.734461
      0.69756     10.29650     15.48378        -0.781851     -0.119421     -0.019524
     12.58990      0.41860     12.18365        -0.236742     -0.213004     -0.155614
      5.04350     10.16710     13.26644        -0.274505     -0.147733      0.955466
     11.86340     13.58140     15.01512        -0.227100     -0.212626      0.160151
      9.88111     12.05020     12.49548        -0.221349     -0.054547     -0.426732
      9.82637      5.99040     14.91347         0.839413     -0.375501     -0.574780
     12.06690     11.30220     12.18926         0.242880      0.348966      0.623505
      7.76260     12.66320     15.16366        -0.408984     -0.287994     -0.403712
      8.29063      2.42433     14.97925        -0.069271     -1.108803     -0.434380
      0.91188      1.42016     14.90146         0.573118      0.404125     -0.130869
      1.52149      0.38869     12.85393         1.599497      0.371338      0.147470
      0.04634      1.11765     11.37117         0.082788      1.490236     -0.769819
      6.61511      7.06650     12.88366        -0.306122      0.646710     -0.145751
      5.05308     11.95820     11.96360         0.641352      0.756324     -1.639967
      2.23550     11.59350     14.47296         0.610869     -0.250889      0.058105
      1.32836      8.84807     10.92529        -0.241508      0.984941      0.618435
      0.68586      7.50691     12.77079         1.259503      0.867066      1.330262
     12.26000      9.19733     13.16825         1.370424      0.762565      0.299712
      4.21937      2.89623     13.25200         0.637024     -0.156700      0.220726
 -----------------------------------------------------------------------------------
    total drift:                               -0.011924     -0.004822     -0.000570


--------------------------------------------------------------------------------------------------------



  FREE ENERGIE OF THE ION-ELECTRON SYSTEM (eV)
  ---------------------------------------------------
  free  energy   TOTEN  =      -513.76952755 eV

  energy  without entropy=     -513.61176863  energy(sigma->0) =     -513.69064809



--------------------------------------------------------------------------------------------------------


    POTLOK:  cpu time      3.2493: real time      3.2513


--------------------------------------------------------------------------------------------------------


     LOOP+:  cpu time   6281.4888: real time   6285.9915
    4ORBIT:  cpu time      0.0000: real time      0.0000



 total charge

# of ion       s       p       d       tot
------------------------------------------
    1        0.556   0.015   0.000   0.571
    2        0.552   0.018   0.000   0.570
    3        0.389   0.001   0.000   0.390
    4        0.506   0.011   0.000   0.517
    5        0.513   0.010   0.000   0.523
    6        0.567   0.016   0.000   0.583
    7        0.569   0.016   0.000   0.585
    8        0.868   0.730   0.000   1.598
    9        0.759   0.935   0.000   1.694
   10        0.859   0.698   0.000   1.557
   11        0.772   0.862   0.000   1.634
   12        0.766   0.952   0.000   1.718
   13        0.849   0.759   0.000   1.608
   14        0.795   0.876   0.000   1.671
   15        0.755   1.027   0.000   1.782
   16        0.789   0.833   0.000   1.622
   17        0.809   0.845   0.000   1.654
   18        0.748   0.893   0.000   1.642
   19        0.780   0.863   0.000   1.643
   20        0.800   0.857   0.000   1.657
   21        0.923   0.580   0.000   1.504
   22        0.832   0.765   0.000   1.597
   23        0.769   0.943   0.000   1.712
   24        0.846   0.768   0.000   1.614
   25        0.762   0.887   0.000   1.649
   26        0.757   0.902   0.000   1.660
   27        0.822   0.818   0.000   1.640
   28        0.774   0.922   0.000   1.695
   29        0.796   0.830   0.000   1.626
   30        0.868   0.798   0.000   1.666
   31        0.746   0.992   0.000   1.738
   32        0.757   0.974   0.000   1.731
   33        0.813   0.817   0.000   1.630
   34        0.765   0.933   0.000   1.698
   35        0.850   0.727   0.000   1.577
   36        0.849   0.749   0.000   1.598
   37        0.809   0.819   0.000   1.628
   38        0.821   0.808   0.000   1.629
   39        0.765   0.933   0.000   1.698
   40        0.864   0.711   0.000   1.575
   41        0.771   0.955   0.000   1.726
   42        0.855   0.722   0.000   1.578
   43        0.764   1.011   0.000   1.774
   44        0.841   0.771   0.000   1.612
   45        0.808   0.859   0.000   1.667
   46        0.766   0.944   0.000   1.710
   47        0.884   0.674   0.000   1.558
   48        0.763   0.910   0.000   1.673
   49        0.800   0.810   0.000   1.611
   50        0.810   0.852   0.000   1.662
   51        0.796   0.804   0.000   1.600
   52        0.860   0.738   0.000   1.598
   53        0.861   0.708   0.000   1.569
   54        0.771   0.943   0.000   1.714
   55        0.795   0.896   0.000   1.691
   56        0.753   0.984   0.000   1.737
   57        0.803   0.850   0.000   1.653
   58        0.801   0.861   0.000   1.663
   59        0.806   0.805   0.000   1.612
   60        0.770   0.901   0.000   1.671
   61        0.766   0.979   0.000   1.746
   62        0.759   0.932   0.000   1.692
--------------------------------------------------
tot         47.796  46.801   0.000  94.597


 total amount of memory used by VASP MPI-rank0   350160. kBytes
=======================================================================

   base                                    :      30000. kBytes
   nonl-proj                               :      64753. kBytes
   fftplans                                :     100025. kBytes
   grid                                    :      77177. kBytes
   one-center                              :         12. kBytes
   wavefun                                 :      78193. kBytes

  
  
 General timing and accounting informations for this job:
 ========================================================
  
                  Total CPU time used (sec):     6419.166
                            User time (sec):     5651.311
                          System time (sec):      767.854
                         Elapsed time (sec):     6423.731
  
                   Maximum memory used (kb):      603248.
                   Average memory used (kb):          N/A
  
                          Minor page faults:     12189151
                          Major page faults:         1167
                 Voluntary context switches:         3506
