ITEM: TIMESTEP
209998
ITEM: NUMBER OF ATOMS
11500
ITEM: BOX BOUNDS pp pp pp
-8.6150658087222931e-01 5.8782690187050214e+01
-8.6150658087222931e-01 5.8782690187050214e+01
-8.6150658087222931e-01 6.7745169998751209e+01
ITEM: ATOMS id type xs ys zs
1 2 0.839776 0.0460709 0.300011
2 2 0.621203 0.107249 0.996982
3 2 0.624589 0.226815 0.00783734
4 2 0.215574 0.184115 0.230316
5 2 0.233845 0.345079 0.219815
6 2 0.159128 0.275018 0.198346
7 2 0.484322 0.44482 0.0749005
8 2 0.380011 0.226108 0.480926
9 2 0.196368 0.0673744 0.29213
10 2 0.333543 0.0812297 0.540738
11 2 0.327073 0.427361 0.111044
12 2 0.450821 0.169758 0.433128
13 2 0.527357 0.958513 0.209874
14 2 0.355525 0.95615 0.117648
15 2 0.114292 0.335418 0.34244
16 2 0.449618 0.213277 0.100548
17 2 0.408863 0.104772 0.345169
18 2 0.327407 0.271245 0.764486
19 2 0.372363 0.110147 0.390987
20 2 0.808912 0.54235 0.182409
21 2 0.668615 0.0762681 0.222169
22 2 0.303086 0.321165 0.168249
23 2 0.120319 0.455493 0.760621
24 2 0.344225 0.2953 0.124653
25 2 0.177522 0.464061 0.396358
26 2 0.546857 0.609878 0.442617
27 2 0.614086 0.57115 0.168394
28 2 0.176811 0.346564 0.230895
29 2 0.962138 0.146042 0.347222
30 2 0.323718 0.369233 0.258697
31 2 0.553373 0.154139 0.149595
32 2 0.706002 0.283139 0.81744
33 2 0.499867 0.149842 0.178356
34 2 0.335908 0.47801 0.243384
35 2 0.187009 0.29879 0.46064
36 2 4.52227e-05 0.405942 0.469545
37 2 0.0980573 0.493709 0.409679
38 2 0.0430401 0.255992 0.518979
39 2 0.153149 0.234484 0.255707
40 2 0.176285 0.00606279 0.312938
41 2 0.958402 0.320601 0.108366
42 2 0.928105 0.0568973 0.963978
43 2 0.618231 0.321781 0.183679
44 2 0.297596 0.820293 0.422276
45 2 0.913534 0.43104 0.169696
46 2 0.58357 0.0435397 0.475839
47 2 0.420794 0.885041 0.534094
48 2 0.137439 0.0983343 0.959781
49 2 0.564039 0.38156 0.38001
50 2 0.148438 0.218713 0.399608
51 2 0.629758 0.241217 0.83359
52 2 0.22228 0.0582933 0.991127
53 2 0.360014 0.119594 0.905388
54 2 0.328136 0.254244 0.368612
55 2 0.133222 0.0863607 0.424123
56 2 0.415316 0.259679 0.191673
57 2 0.982088 0.17892 0.747575
58 2 0.0295968 0.249579 0.358683
59 2 0.429578 0.454129 0.155814
60 2 0.600476 0.196491 0.999381
61 2 0.00466831 0.235881 0.455098
62 2 0.373533 0.237117 0.264512
63 2 0.267111 0.0534664 0.0959663
64 2 0.563442 0.377761 0.162596
65 2 0.295582 0.0283554 0.010168
66 2 0.209434 0.168784 0.542516
67 2 0.128775 0.478682 0.163409
68 2 0.805483 0.341563 0.287533
69 2 0.352895 0.149151 0.202547
70 2 0.620915 0.448936 0.0538453
71 2 0.0305476 0.734941 0.22853
72 2 0.985101 0.852638 0.59107
73 2 0.566544 0.900916 0.193367
74 2 0.279007 0.00909715 0.928568
75 2 0.985692 0.51097 0.415521
76 2 0.296243 0.291417 0.19014
77 2 0.337136 0.113284 0.258868
78 2 0.733176 0.0692669 0.314742
79 2 0.0561901 0.382328 0.491131
80 2 0.168346 0.363838 0.101351
81 2 0.0216583 0.67698 0.133285
82 2 0.346163 0.349863 0.93165
83 2 0.158268 0.271073 0.917866
84 2 0.212903 0.460193 0.413066
85 2 0.674829 0.312791 0.191906
86 2 0.410864 0.016405 0.0238076
87 2 0.53828 0.386495 0.210703
88 2 0.239885 0.47473 0.0509609
89 2 0.1539 0.436556 0.286795
90 2 0.881732 0.693741 0.142288
91 2 0.769211 0.155548 0.896483
92 2 0.565646 0.114833 0.773177
93 2 0.280935 0.695234 0.298349
94 2 0.13972 0.248627 0.0306416
95 2 0.304943 0.389649 0.674287
96 2 0.543408 0.284051 0.50436
97 2 0.186874 0.651519 0.477233
98 2 0.333439 0.0786086 0.127893
99 2 0.285975 0.238307 0.581723
100 2 0.415145 0.286192 0.0292425
101 2 0.425617 0.0307744 0.125799
102 2 0.10574 0.136808 0.221568
103 2 0.185481 0.522318 0.345693
104 2 0.0918833 0.558608 0.0916181
105 2 0.633918 0.40102 0.15964
106 2 0.358855 0.037186 0.28944
107 2 0.443123 0.221106 0.326375
108 2 0.255891 0.421292 0.982319
109 2 0.902971 0.214016 0.748031
110 2 0.477212 0.574267 0.115921
111 2 0.376285 0.644754 0.537938
112 2 0.270742 0.224646 0.183377
113 2 0.120629 0.344512 0.670028
114 2 0.301667 0.28726 0.223872
115 2 0.622365 0.936397 0.421951
116 2 0.337894 0.201506 0.160271
117 2 0.467556 0.577318 0.314772
118 2 0.991949 0.316469 0.355046
119 2 0.0194227 0.195514 0.208298
120 2 0.388693 0.22284 0.355724
121 2 0.295612 0.105854 0.325295
122 2 0.135006 0.0851732 0.927963
123 2 0.034439 0.139947 0.37093
124 2 0.131342 0.189691 0.499357
125 2 0.193327 0.293975 0.154086
126 2 0.311592 0.6122 0.0106948
127 2 0.444661 0.239729 0.148575
128 2 0.25707 0.766056 0.380978
129 2 0.431924 0.0848825 0.420649
130 2 0.429208 0.383924 0.42227
131 2 0.127094 0.0195153 0.281575
132 2 0.164758 0.47988 0.0706541
133 2 0.0952061 0.431723 0.509709
134 2 0.962342 0.216008 0.180056
135 2 0.761255 0.185611 0.306429
136 2 0.387637 0.261304 0.0190639
137 2 0.142927 0.452745 0.115162
138 2 0.491879 0.92028 0.184878
139 2 0.347688 0.404881 0.421944
140 2 0.7329 0.225625 0.434047
141 2 0.309594 0.0357351 0.0630272
142 2 0.679238 0.309355 0.107219
143 2 0.299952 0.98115 0.0514656
144 2 0.937721 0.690804 0.171451
145 2 0.0749526 0.398309 0.770033
146 2 0.431804 0.448155 0.443465
147 2 0.209948 0.353987 0.270604
148 2 0.164391 0.00910576 0.971573
149 2 0.212112 0.423622 0.365687
150 2 0.489087 0.194252 0.535598
151 2 0.339158 0.228761 0.00527269
152 2 0.78416 0.475128 0.991331
153 2 0.209886 0.367629 0.238113
154 2 0.658614 0.928577 0.305122
155 2 0.615547 0.129701 0.274659
156 2 0.0110199 0.0109722 0.384519
157 2 0.588915 0.791981 0.328424
158 2 0.184717 0.10401 0.205736
159 2 0.425096 0.077398 0.472272
160 2 0.153194 0.997688 0.20939
161 2 0.519462 0.00567405 0.479841
162 2 0.0985759 0.685273 0.400254
163 2 0.695675 0.929868 0.394155
164 2 0.167183 0.402493 0.405973
165 2 0.892627 0.328492 0.891247
166 2 0.104342 0.474758 0.287125
167 2 0.849695 0.952943 0.448797
168 2 0.23968 0.226243 0.298684
169 2 0.24031 0.982123 0.142444
170 2 0.934186 0.72061 0.206288
171 2 0.0995655 0.408899 0.851291
172 2 0.240378 0.458095 0.463944
173 2 0.418476 0.382875 0.486234
174 2 0.183613 0.107945 0.407333
175 2 0.285202 0.722975 0.0921574
176 2 0.074379 0.449618 0.293414
177 2 0.331748 0.84151 0.470203
178 2 0.22078 0.440084 0.057625
179 2 0.614878 0.315494 0.897751
180 2 0.0956879 0.0227763 0.113325
181 2 0.612045 0.303449 0.345649
182 2 0.959473 0.824534 0.179347
183 2 0.0398756 0.311924 0.718089
184 2 0.204526 0.182376 0.313839
185 2 0.211023 0.287982 0.415913
186 2 0.115971 0.530944 0.501308
187 2 0.864901 0.493784 0.928199
188 2 0.181784 0.969762 0.212588
189 2 0.400326 0.933971 0.411764
190 2 0.995217 0.736171 0.52895
191 2 0.219382 0.24154 0.210262
192 2 0.872009 0.0465113 0.466955
193 2 0.43565 0.00110116 0.105093
194 2 0.0969772 0.448318 0.34062
195 2 0.600823 0.471277 0.818665
196 2 0.879431 0.432436 0.299617
197 2 0.844292 0.173905 0.90069
198 2 0.20595 0.558324 0.0413432
199 2 0.145037 0.247829 0.452433
200 2 0.232708 0.312557 0.237717
201 2 0.293465 0.0610038 0.992051
202 2 0.196418 0.955463 0.526944
203 2 0.429441 0.580076 0.0834859
204 2 0.422008 0.150332 0.450562
205 2 0.976316 0.532141 0.149736
206 2 0.372068 0.182959 0.157392
207 2 0.379299 0.369655 0.171454
208 2 0.269857 0.700436 0.214074
209 2 0.111236 0.235808 0.304245
210 2 0.781625 0.982085 0.823753
211 2 0.272413 0.466088 0.113331
212 2 0.292848 0.345382 0.250701
213 2 0.361285 0.135615 0.610574
214 2 0.0343893 0.0561944 0.414611
215 2 0.478896 0.181013 0.138323
216 2 0.36521 0.315071 0.0760091
217 2 0.0291888 0.516854 0.168274
218 2 0.226123 0.301648 0.948163
219 2 0.995748 0.00434893 0.246332
220 2 0.44701 0.126893 0.25764
221 2 0.243106 0.0168609 0.126797
222 2 0.0640218 0.799544 0.301684
223 2 0.418433 0.329271 0.526354
224 2 0.230379 0.195359 0.387656
225 2 0.147697 0.427345 0.222076
226 2 0.10318 0.796902 0.199203
227 2 0.298809 0.35264 0.125775
228 2 0.927344 0.880944 0.345373
229 2 0.476832 0.111661 0.303971
230 2 0.245704 0.161591 0.942295
231 2 0.143332 0.799664 0.238875
232 2 0.688898 0.468393 0.18588
233 2 0.167943 0.310533 0.243768
234 2 0.569576 0.333106 0.217221
235 2 0.397156 0.341178 0.211138
236 2 0.458549 0.913039 0.984108
237 2 0.387524 0.0428653 0.674622
238 2 0.907244 0.221105 0.347217
239 2 0.160314 0.519697 0.877344
240 2 0.567935 0.00630378 0.613508
241 2 0.0871417 0.444453 0.861564
242 2 0.480866 0.849609 0.24049
243 2 0.272012 0.454662 0.969408
244 2 0.0688091 0.452644 0.75921
245 2 0.363826 0.8307 0.0469335
246 2 0.67028 0.639556 0.168117
247 2 0.0570866 0.447027 0.127208
248 2 0.0923988 0.424868 0.314432
249 2 0.685644 0.130159 0.363724
250 2 0.468336 0.292812 0.137412
251 2 0.215492 0.605303 0.156712
252 2 0.414879 0.16933 0.350677
253 2 0.0265698 0.174277 0.715298
254 2 0.528123 0.816866 0.879378
255 2 0.752581 0.87499 0.237761
256 2 0.22092 0.077151 0.446784
257 2 0.672814 0.636139 0.396726
258 2 0.985576 0.354258 0.315718
259 2 0.37391 0.286411 0.228588
260 2 0.425978 0.523601 0.207195
261 2 0.00377629 0.236667 0.133432
262 2 0.692382 0.971331 0.339545
263 2 0.337549 0.319643 0.151014
264 2 0.283236 0.379028 0.198497
265 2 0.428673 0.0269524 0.228142
266 2 0.254548 0.249446 0.40174
267 2 0.335778 0.188302 0.0453311
268 2 0.0292717 0.303334 0.0508129
269 2 0.171341 0.412345 0.796259
270 2 0.72677 0.252107 0.111597
271 2 0.377622 0.843211 0.11706
272 2 0.619049 0.0553967 0.258903
273 2 0.0822222 0.321092 0.328542
274 2 0.399736 0.136617 0.400469
275 2 0.518927 0.79755 0.994725
276 2 0.241967 0.994738 0.925604
277 2 0.335311 0.518156 0.442845
278 2 0.0781005 0.219861 0.503402
279 2 0.0938591 0.118267 0.374695
280 2 0.547588 0.395711 0.0255469
281 2 0.186789 0.32974 0.43817
282 2 0.175933 0.28871 0.850204
283 2 0.058967 0.20216 0.409583
284 2 0.310463 0.131943 0.23826
285 2 0.107926 0.0522229 0.207872
286 2 0.0273258 0.382723 0.147591
287 2 0.132995 0.125188 0.376922
288 2 0.324295 0.229414 0.138538
289 2 0.255625 0.228323 0.453659
290 2 0.987865 0.581215 0.537504
291 2 0.659793 0.215199 0.873353
292 2 0.393786 0.16465 0.252743
293 2 0.222463 0.284322 0.350046
294 2 0.0622454 0.674149 0.0202505
295 2 0.041764 0.462106 0.446702
296 2 0.242294 0.671042 0.0966451
297 2 0.512086 0.636398 0.129211
298 2 0.278554 0.331086 0.279934
299 2 0.383918 0.0452726 0.552445
300 2 0.157704 0.323967 0.716
301 2 0.261849 0.226895 0.089274
302 2 0.517267 0.200109 0.86287
303 2 0.703196 0.978855 0.863061
304 2 0.281814 0.530686 0.956935
305 2 0.735736 0.273282 0.269995
306 2 0.400831 0.818837 0.134769
307 2 0.588295 0.00448496 0.3557
308 2 0.580758 0.25586 0.227499
309 2 0.0319681 0.411093 0.34563
310 2 0.185389 0.511465 0.557308
311 2 0.24872 0.399715 0.278531
312 2 0.556753 0.87008 0.465331
313 2 0.449469 0.981092 0.0546119
314 2 0.742313 0.234035 0.867334
315 2 0.0397611 0.582665 0.316149
316 2 0.836149 0.441062 0.357568
317 2 0.299864 0.771044 0.0506984
318 2 0.289935 0.418984 0.245064
319 2 0.864156 0.315587 0.911852
320 2 0.253454 0.927377 0.550732
321 2 0.0179524 0.325176 0.476627
322 2 0.463919 0.120683 0.119892
323 2 0.200576 0.44896 0.866193
324 2 0.167703 0.159855 0.21455
325 2 0.159025 0.316639 0.417045
326 2 0.226007 0.931162 0.203873
327 2 0.581462 0.296451 0.96888
328 2 0.378584 0.95861 0.0143887
329 2 0.969508 0.0499768 0.321465
330 2 0.0254297 0.598091 0.17647
331 2 0.621183 0.533989 0.0733967
332 2 0.0345065 0.369223 0.0566333
333 2 0.92543 0.851416 0.422771
334 2 0.0186946 0.373155 0.378204
335 2 0.165483 0.243889 0.422859
336 2 0.79903 0.0161374 0.626066
337 2 0.248242 0.745752 0.30053
338 2 0.532828 0.550935 0.945975
339 2 0.397333 0.0633668 0.188044
340 2 0.264423 0.953065 0.690996
341 2 0.383198 0.533459 0.991159
342 2 0.324259 0.139816 0.1506
343 2 0.535704 0.296398 0.324482
344 2 0.120735 0.00085881 0.229323
345 2 0.226333 0.389091 0.0896228
346 2 0.157642 0.401763 0.247198
347 2 0.362593 0.268554 0.325251
348 2 0.0442549 0.449956 0.479024
349 2 0.526226 0.847904 0.690372
350 2 0.00186014 0.478031 0.058329
351 2 0.00837364 0.0421504 0.733576
352 2 0.311973 0.0133673 0.260623
353 2 0.408417 0.239506 0.162425
354 2 0.744589 0.235423 0.138034
355 2 0.156513 0.986595 0.0298028
356 2 0.174471 0.513977 0.181943
357 2 0.566626 0.169752 0.261967
358 2 0.0452133 0.493709 0.250339
359 2 0.77355 0.232404 0.402453
360 2 0.211619 0.22159 0.0464544
361 2 0.411426 0.958087 0.386143
362 2 0.307659 0.363198 0.649465
363 2 0.449469 0.313178 0.928605
364 2 0.356875 0.185121 0.0733856
365 2 0.184423 0.228167 0.992705
366 2 0.364953 0.254706 0.357451
367 2 0.356252 0.0419404 0.228336
368 2 0.111148 0.540467 0.145445
369 2 0.448111 0.455614 0.898784
370 2 0.0690275 0.381076 0.419936
371 2 0.052375 0.362657 0.363205
372 2 0.369264 0.373777 0.303605
373 2 0.519416 0.411205 0.304428
374 2 0.975789 0.291623 0.454923
375 2 0.292798 0.541319 0.578408
376 2 0.96367 0.381526 0.119404
377 2 0.972904 0.499096 0.13232
378 2 0.324767 0.230469 0.458367
379 2 0.153408 0.533228 0.488094
380 2 0.100775 0.60022 0.267452
381 2 0.314565 0.330249 0.971036
382 2 0.351162 0.919187 0.485984
383 2 0.454028 0.178847 0.0844148
384 2 0.164317 0.083229 0.62345
385 2 0.276156 0.433478 0.349527
386 2 0.671615 0.324904 0.158725
387 2 0.364668 0.278477 0.408662
388 2 0.294828 0.415904 0.210589
389 2 0.384388 0.18911 0.336749
390 2 0.452615 0.0287408 0.615855
391 2 0.13082 0.337339 0.490743
392 2 0.35772 0.804543 0.76406
393 2 0.328012 0.794425 0.243118
394 2 0.400262 0.155353 0.850815
395 2 0.440157 0.380542 0.0528316
396 2 0.0808703 0.100516 0.45648
397 2 0.73063 0.573236 0.271577
398 2 0.995743 0.653297 0.856772
399 2 0.151458 0.437979 0.409403
400 2 0.327298 0.252562 0.0296687
401 2 0.180263 0.99031 0.145415
402 2 0.274818 0.603813 0.239847
403 2 0.457772 0.0177169 0.556602
404 2 0.464168 0.503608 0.254176
405 2 0.144258 0.142539 0.126921
406 2 0.0620298 0.094105 0.258822
407 2 0.465294 0.895636 0.0386317
408 2 0.918986 0.524553 0.174472
409 2 0.387609 0.248811 0.13343
410 2 0.0141898 0.37757 0.734929
411 2 0.757691 0.305837 0.969757
412 2 0.509009 0.757014 0.177983
413 2 0.169784 0.921174 0.0386165
414 2 0.850549 0.215014 0.361728
415 2 0.160695 0.305829 0.277408
416 2 0.182714 0.0477736 0.236234
417 2 0.383724 0.396654 0.381935
418 2 0.537201 0.349599 0.171952
419 2 0.520911 0.596761 0.176717
420 2 0.0881843 0.36017 0.141637
421 2 0.932576 0.412411 0.795786
422 2 0.246722 0.131734 0.291053
423 2 0.364447 0.306696 0.173392
424 2 0.120431 0.553738 0.0687439
425 2 0.400903 0.0757626 0.29957
426 2 0.319248 0.216482 0.106422
427 2 0.586483 0.335797 0.841862
428 2 0.184007 0.195275 0.213443
429 2 0.430383 0.202606 0.438494
430 2 0.985592 0.125529 0.256464
431 2 0.369012 0.591943 0.0165878
432 2 0.963211 0.0407227 0.370221
433 2 0.540824 0.991548 0.15839
434 2 0.299933 0.986147 0.137216
435 2 0.465635 0.98028 0.194693
436 2 0.1707 0.258335 0.318965
437 2 0.218714 0.879213 0.583057
438 2 0.859495 0.49232 0.0449162
439 2 0.496531 0.0147565 0.232729
440 2 0.384009 0.997949 0.154871
441 2 0.205324 0.98844 0.236078
442 2 0.06177 0.0123339 0.196353
443 2 0.293651 0.90047 0.219962
444 2 0.800657 0.269677 0.512286
445 2 0.0158111 0.34891 0.108823
446 2 0.992983 0.519741 0.178663
447 2 0.42739 0.0298987 0.357004
448 2 0.416921 0.0473008 0.00223139
449 2 0.356105 0.306987 0.320672
450 2 0.101252 0.810197 0.309793
451 2 0.355249 0.168861 0.381006
452 2 0.0309108 0.496394 0.217628
453 2 0.0948431 0.199814 0.392744
454 2 0.853114 0.260398 0.655673
455 2 0.534366 0.348204 0.205557
456 2 0.723057 0.422104 0.926473
457 2 0.305128 0.238532 0.42919
458 2 0.110092 0.256827 0.0859021
459 2 0.591836 0.280565 0.547627
460 2 0.979697 0.314934 0.949403
461 2 0.884425 0.0858389 0.355164
462 2 0.437835 0.758862 0.0428308
463 2 0.300559 0.236869 0.0820721
464 2 0.466826 0.335027 0.17148
465 2 0.118336 0.247797 0.359522
466 2 0.509592 0.0142082 0.156909
467 2 0.893469 0.477834 0.244546
468 2 0.00783987 0.49543 0.116178
469 2 0.44066 0.351451 0.961342
470 2 0.26708 0.271956 0.232702
471 2 0.485365 0.478585 0.303879
472 2 0.261648 0.192393 0.438101
473 2 0.0554789 0.193834 0.128719
474 2 0.241409 0.649621 0.380922
475 2 0.314419 0.149698 0.103106
476 2 0.0812058 0.0947273 0.510586
477 2 0.462503 0.34578 0.203889
478 2 0.472114 0.938114 0.235293
479 2 0.130955 0.310301 0.439031
480 2 0.344503 0.563999 0.139122
481 2 0.315506 0.138375 0.205115
482 2 0.350734 0.267639 0.251267
483 2 0.370792 0.378792 0.056527
484 2 0.0827331 0.282927 0.322743
485 2 0.780918 0.548002 0.0382911
486 2 0.609321 0.881637 0.152869
487 2 0.252606 0.266832 0.0511816
488 2 0.131592 0.371566 0.445202
489 2 0.594953 0.175698 0.309757
490 2 0.339191 0.372092 0.16777
491 2 0.285894 0.370017 0.39607
492 2 0.0775381 0.311354 0.408845
493 2 0.121493 0.287645 0.908639
494 2 0.96981 0.1656 0.375839
495 2 0.336145 0.287696 0.522213
496 2 0.759078 0.558508 0.213492
497 2 0.277039 0.385473 0.124415
498 2 0.712528 0.976521 0.21171
499 2 0.916023 0.0221922 0.104554
500 2 0.205813 0.605071 0.828318
501 2 0.27806 0.290676 0.0660629
502 2 0.284627 0.312374 0.377971
503 2 0.288242 0.381003 0.626219
504 2 0.736376 0.0710908 0.0706047
505 2 0.0686309 0.236773 0.223721
506 2 0.58761 0.37085 0.1344
507 2 0.463275 0.887072 0.147923
508 2 0.268435 0.200236 0.296741
509 2 0.676455 0.702731 0.222048
510 2 0.190217 0.129724 0.453642
511 2 0.0870004 0.282609 0.928015
512 2 0.514396 0.160357 0.0978711
513 2 0.00849071 0.0597312 0.524341
514 2 0.119512 0.197872 0.225901
515 2 0.900323 0.880128 0.104433
516 2 0.424541 0.381675 0.34949
517 2 0.431663 0.255816 0.269228
518 2 0.529749 0.992073 0.227925
519 2 0.88984 0.655946 0.147644
520 2 0.182201 0.368988 0.292151
521 2 0.0948243 0.0829773 0.428885
522 2 0.0671751 0.305252 0.0645966
523 2 0.984282 0.257791 0.110795
524 2 0.285153 0.44469 0.835625
525 2 0.234568 0.841273 0.583917
526 2 0.204255 0.467873 0.228858
527 2 0.634071 0.104298 0.426416
528 2 0.238807 0.541896 0.912904
529 2 0.610218 0.357276 0.325586
530 2 0.51271 0.0377745 0.129921
531 2 0.124321 0.45 0.364323
532 2 0.702522 0.645917 0.27324
533 2 0.395269 0.54415 0.339
534 2 0.519664 0.214444 0.159955
535 2 0.283994 0.0947543 0.270005
536 2 0.146492 0.727321 0.481513
537 2 0.419941 0.425545 0.312989
538 2 0.972804 0.559797 0.960522
539 2 0.139765 0.549354 0.408365
540 2 0.252643 0.505533 0.270647
541 2 0.95763 0.416064 0.430067
542 2 0.345409 0.400584 0.388861
543 2 0.14541 0.145799 0.836739
544 2 0.0260335 0.399426 0.227771
545 2 0.591586 0.139891 0.325303
546 2 0.327225 0.886566 0.962239
547 2 0.505445 0.258369 0.277874
548 2 0.255272 0.290214 0.186127
549 2 0.189455 0.496514 0.248694
550 2 0.372674 0.936945 0.180366
551 2 0.643972 0.917966 0.358753
552 2 0.239262 0.334169 0.662117
553 2 0.617109 0.311852 0.931682
554 2 0.173501 0.280588 0.409367
555 2 0.139691 0.21875 0.131739
556 2 0.244379 0.562069 0.783509
557 2 0.442397 0.569668 0.0322696
558 2 0.2018 0.485848 0.347109
559 2 0.382391 0.364962 0.442526
560 2 0.259805 0.2619 0.976739
561 2 0.0745007 0.660838 0.275092
562 2 0.443203 0.113099 0.1497
563 2 0.567713 0.201497 0.196959
564 2 0.481761 0.975365 0.073668
565 2 0.686929 0.177845 0.0773099
566 2 0.261002 0.00038227 0.276968
567 2 0.00895828 0.1414 0.0674051
568 2 0.955133 0.864213 0.0759412
569 2 0.463102 0.525031 0.197113
570 2 0.301421 0.430964 0.160143
571 2 0.123283 0.378182 0.139153
572 2 0.235568 0.415958 0.198355
573 2 0.101415 0.0129425 0.201666
574 2 0.531706 0.987058 0.100344
575 2 0.319575 0.253378 0.234777
576 2 0.617947 0.500162 0.523093
577 2 0.255041 0.290438 0.45022
578 2 0.20046 0.29115 0.236184
579 2 0.262612 0.546514 0.466912
580 2 0.567784 0.108113 0.478781
581 2 0.96771 0.231206 0.382178
582 2 0.219329 0.560221 0.272631
583 2 0.371578 0.0104071 0.358928
584 2 0.423527 0.296467 0.182486
585 2 0.400115 0.0188246 0.0565924
586 2 0.996493 0.187304 0.973468
587 2 0.0917381 0.572503 0.531935
588 2 0.0412417 0.331679 0.287978
589 2 0.78808 0.363103 0.127705
590 2 0.0422006 0.501553 0.441452
591 2 0.477361 0.159531 0.45661
592 2 0.079907 0.838991 0.111971
593 2 0.825 0.322768 0.470802
594 2 0.254117 0.0729561 0.280999
595 2 0.626757 0.67042 0.226927
596 2 0.36094 0.130424 0.44713
597 2 0.425568 0.0875087 0.199371
598 2 0.244171 0.633095 0.482574
599 2 0.28476 0.987599 0.449861
600 2 0.136102 0.207661 0.761992
601 2 0.148685 0.318848 0.00481583
602 2 0.0675582 0.897766 0.533382
603 2 0.257891 0.393613 0.436396
604 2 0.404483 0.526335 0.286102
605 2 0.192955 0.0811299 0.382733
606 2 0.434702 0.483359 0.490446
607 2 0.113475 0.148402 0.0821303
608 2 0.307008 0.0228801 0.144909
609 2 0.138287 0.386828 0.108722
610 2 0.200467 0.475543 0.149991
611 2 0.450452 0.393838 0.16986
612 2 0.342543 0.962689 0.172502
613 2 0.561291 0.276872 0.0936361
614 2 0.127308 0.112804 0.143569
615 2 0.393659 0.78915 0.928383
616 2 0.392048 0.180487 0.304433
617 2 0.771708 0.701283 0.390704
618 2 0.891315 0.0803883 0.537043
619 2 0.126661 0.317384 0.12807
620 2 0.537419 0.182005 0.988309
621 2 0.288024 0.936883 0.296767
622 2 0.255514 0.579726 0.21912
623 2 0.419627 0.965092 0.110878
624 2 0.077289 0.0362195 0.986338
625 2 0.414518 0.224337 0.0893565
626 2 0.712259 0.19432 0.0993053
627 2 0.0179713 0.972138 0.294859
628 2 0.630382 0.188707 0.322473
629 2 0.400881 0.656484 0.266244
630 2 0.409831 0.145019 0.302266
631 2 0.242142 0.37441 0.0351093
632 2 0.313252 0.912363 0.383067
633 2 0.133277 0.684159 0.119704
634 2 0.0740467 0.443145 0.436985
635 2 0.306763 0.560978 0.741624
636 2 0.2746 0.386054 0.973534
637 2 0.47422 0.104994 0.941724
638 2 0.428132 0.937926 0.358084
639 2 0.462503 0.0381814 0.067211
640 2 0.303758 0.766329 0.231016
641 2 0.314133 0.952314 0.318014
642 2 0.807362 0.125298 0.44056
643 2 0.802149 0.442568 0.260076
644 2 0.0370625 0.164929 0.48668
645 2 0.384651 0.963034 0.30097
646 2 0.663651 0.21647 0.484048
647 2 0.162389 0.693625 0.307009
648 2 0.291052 0.326644 0.942903
649 2 0.833386 0.121397 0.166873
650 2 0.290441 0.447473 0.891041
651 2 0.365347 0.0722592 0.207578
652 2 0.511712 0.499575 0.979026
653 2 0.614416 0.312204 0.417114
654 2 0.98824 0.452113 0.709517
655 2 0.937749 0.502707 0.11733
656 2 0.363893 0.373045 0.882264
657 2 0.981098 0.127367 0.704634
658 2 0.239272 0.124327 0.350442
659 2 0.244696 0.803934 0.391037
660 2 0.770535 0.379332 0.442101
661 2 0.524835 0.776973 0.332811
662 2 0.0019644 0.906197 0.498281
663 2 0.0422344 0.061389 0.545702
664 2 0.213841 0.715186 0.385709
665 2 0.271 0.117861 0.720256
666 2 0.374502 0.33059 0.00105758
667 2 0.571521 0.146947 0.413411
668 2 0.506923 0.936214 0.0199386
669 2 0.940932 0.54951 0.562162
670 2 0.917949 0.389722 0.74581
671 2 0.77483 0.984066 0.241585
672 2 0.283048 0.526884 0.417854
673 2 0.216375 0.318994 0.0640481
674 2 0.241044 0.151949 0.262035
675 2 0.303577 0.216682 0.998956
676 2 0.32344 0.0223958 0.658514
677 2 0.0469734 0.127113 0.799492
678 2 0.467552 0.461687 0.154116
679 2 0.0536483 0.962129 0.306617
680 2 0.207736 0.484437 0.910558
681 2 0.361687 0.204786 0.0231343
682 2 0.327706 0.984051 0.0273408
683 2 0.0431793 0.2365 0.458807
684 2 0.756143 0.390671 0.34333
685 2 0.304154 0.583272 0.253593
686 2 0.276627 0.761832 0.0996077
687 2 0.526656 0.199235 0.322448
688 2 0.125273 0.460907 0.0305641
689 2 0.42963 0.224381 0.939782
690 2 0.313972 0.884511 0.432183
691 2 0.146114 0.365355 0.241382
692 2 0.186652 0.189235 0.995795
693 2 0.903584 0.165047 0.213633
694 2 0.137714 0.522695 0.270772
695 2 0.820709 0.954829 0.280493
696 2 0.0775834 0.233177 0.0376938
697 2 0.274914 0.533975 0.101921
698 2 0.492691 0.147529 0.124332
699 2 0.354802 0.279547 0.030487
700 2 0.0574579 0.988576 0.504125
701 2 0.509957 0.406421 0.193782
702 2 0.215378 0.779261 0.912019
703 2 0.115976 0.340297 0.194766
704 2 0.454078 0.135266 0.225012
705 2 0.269062 0.928938 0.156085
706 2 0.97758 0.566005 0.326168
707 2 0.114782 0.38653 0.0817794
708 2 0.35525 0.490853 0.339114
709 2 0.334732 0.355883 0.137584
710 2 0.304539 0.189711 0.305623
711 2 0.727928 0.711691 0.498126
712 2 0.0292999 0.523183 0.467555
713 2 0.122877 0.612271 0.00462428
714 2 0.48074 0.191845 0.852013
715 2 0.317408 0.174488 0.417305
716 2 0.400119 0.26377 0.315289
717 2 0.297444 0.716302 0.150703
718 2 0.0298774 0.386213 0.855892
719 2 0.458181 0.257221 0.0652451
720 2 0.538597 0.606493 0.00534189
721 2 0.705185 0.143124 0.848349
722 2 0.295395 0.234854 0.257844
723 2 0.237451 0.471916 0.163248
724 2 0.00532425 0.3932 0.064935
725 2 0.293355 0.662241 0.821979
726 2 0.917101 0.209633 0.487601
727 2 0.115371 0.432348 0.395202
728 2 0.159849 0.419431 0.107745
729 2 0.33296 0.298918 0.265777
730 2 0.101114 0.284512 0.0621765
731 2 0.23288 0.323637 0.494993
732 2 0.36748 0.712525 0.379792
733 2 0.440727 0.215464 0.469288
734 2 0.557248 0.455711 0.970605
735 2 0.15658 0.16407 0.15464
736 2 0.0866563 0.458708 0.220654
737 2 0.659565 0.0612823 0.887432
738 2 0.622616 0.201663 0.267172
739 2 0.283679 0.0839525 0.21368
740 2 0.122151 0.565414 0.961476
741 2 0.0723669 0.418206 0.987097
742 2 0.0133076 0.270646 0.0905025
743 2 0.322026 0.571273 0.0856213
744 2 0.151474 0.84322 0.380741
745 2 0.994148 0.160063 0.332258
746 2 0.329907 0.192699 0.240289
747 2 0.0617271 0.387008 0.132647
748 2 0.0928532 0.196053 0.4543
749 2 0.0590994 0.39258 0.0391308
750 2 0.549059 0.324953 0.345525
751 2 0.591337 0.129836 0.385143
752 2 0.239952 0.0630896 0.539256
753 2 0.305932 0.478028 0.196676
754 2 0.185004 0.809708 0.569071
755 2 0.645128 0.0115903 0.424252
756 2 0.10516 0.271376 0.775444
757 2 0.848929 0.273622 0.477119
758 2 0.40313 0.286282 0.965104
759 2 0.40315 0.240229 0.287944
760 2 0.357659 0.411164 0.305714
761 2 0.00756625 0.679546 0.330492
762 2 0.202312 0.439294 0.832541
763 2 0.387782 0.0924372 0.895923
764 2 0.517775 0.483664 0.0390377
765 2 0.256272 0.159541 0.344224
766 2 0.817125 0.199054 0.0027862
767 2 0.734723 0.467683 0.259434
768 2 0.294812 0.784244 0.541751
769 2 0.822472 0.223864 0.474701
770 2 0.91082 0.254615 0.0568453
771 2 0.204071 0.164984 0.258426
772 2 0.108645 0.426196 0.0348361
773 2 0.137524 0.353491 0.0186316
774 2 0.0825065 0.320254 0.241749
775 2 0.041513 0.469 0.778282
776 2 0.561462 0.0368665 0.977326
777 2 0.0895056 0.0438901 0.435985
778 2 0.806093 0.428468 0.448872
779 2 0.126559 0.282568 0.145843
780 2 0.128786 0.505802 0.790046
781 2 0.952635 0.635587 0.489485
782 2 0.928862 0.400581 0.448541
783 2 0.50837 0.0491382 0.217857
784 2 0.475422 0.171738 0.29644
785 2 0.636896 0.331169 0.073646
786 2 0.459595 0.313754 0.263589
787 2 0.975307 0.402904 0.193284
788 2 0.200592 0.584338 0.496462
789 2 0.289218 0.896877 0.0840949
790 2 0.353401 0.942744 0.990262
791 2 0.499766 0.438768 0.928333
792 2 0.369818 0.582024 0.161288
793 2 0.991667 0.953401 0.883943
794 2 0.440304 0.358579 0.154994
795 2 0.434152 0.417591 0.495368
796 2 0.852923 0.156447 0.497428
797 2 0.986253 0.443248 0.47271
798 2 0.106828 0.30985 0.215688
799 2 0.194053 0.140017 0.195866
800 2 0.137195 0.199875 0.102034
801 2 0.215916 0.222377 0.270728
802 2 0.418188 0.405404 0.284014
803 2 0.267036 0.188806 0.0829651
804 2 0.987542 0.334503 0.088886
805 2 0.572012 0.373979 0.891873
806 2 0.48332 0.558969 0.904576
807 2 0.285627 0.216255 0.0306728
808 2 0.0571985 0.325026 0.355101
809 2 0.972761 0.150362 0.167414
810 2 0.207324 0.145697 0.656954
811 2 0.184835 0.645174 0.266402
812 2 0.24005 0.124857 0.134137
813 2 0.417573 0.24432 0.341645
814 2 0.226598 0.419024 0.332606
815 2 0.167781 0.213169 0.369865
816 2 0.447701 0.453891 0.0906198
817 2 0.213068 0.319454 0.681898
818 2 0.302676 0.630745 0.0817503
819 2 0.0356295 0.123492 0.175745
820 2 0.137963 0.318329 0.813789
821 2 0.62576 0.29211 0.314749
822 2 0.389244 0.118899 0.0622013
823 2 0.540118 0.383268 0.0945844
824 2 0.516335 0.460348 0.168043
825 2 0.13223 0.481961 0.310685
826 2 0.987121 0.271501 0.742957
827 2 0.911476 0.624111 0.409121
828 2 0.239242 0.437647 0.276123
829 2 0.857096 0.397541 0.519084
830 2 0.641199 0.119393 0.29806
831 2 0.174675 0.403919 0.277712
832 2 0.434996 0.356727 0.508364
833 2 0.0785736 0.101765 0.108548
834 2 0.251888 0.0465325 0.947108
835 2 0.111999 0.10873 0.198317
836 2 0.546153 0.0279823 0.522365
837 2 0.610981 0.236631 0.28065
838 2 0.257983 0.125025 0.0315539
839 2 0.872823 0.484273 0.451074
840 2 0.304153 0.332737 0.0956565
841 2 0.688265 0.991841 0.109875
842 2 0.567361 0.430518 0.278192
843 2 0.156954 0.189793 0.544957
844 2 0.893325 0.45796 0.506107
845 2 0.274223 0.449628 0.262816
846 2 0.00785171 0.413977 0.415547
847 2 0.287554 0.0425283 0.316282
848 2 0.2085 0.263317 0.0910517
849 2 0.138513 0.122073 0.321415
850 2 0.296999 0.893075 0.0112057
851 2 0.297242 0.294696 0.280272
852 2 0.267503 0.44778 0.381144
853 2 0.127788 0.171266 0.529944
854 2 0.42081 0.207501 0.298997
855 2 0.413532 0.212072 0.0569115
856 2 0.24819 0.198331 0.140393
857 2 0.149586 0.0960336 0.192209
858 2 0.928571 0.161357 0.334196
859 2 0.252101 0.509983 0.40155
860 2 0.417889 0.650911 0.428249
861 2 0.334327 0.376472 0.226048
862 2 0.477623 0.859899 0.545465
863 2 0.905195 0.637075 0.323815
864 2 0.844019 0.111203 0.0267839
865 2 0.966053 0.9675 0.570853
866 2 0.586607 0.476171 0.527887
867 2 0.223259 0.207905 0.587655
868 2 0.425412 0.116716 0.981819
869 2 0.0373419 0.144641 0.435415
870 2 0.0414189 0.293484 0.280173
871 2 0.866587 0.413798 0.327955
872 2 0.404088 0.294286 0.248908
873 2 0.640186 0.190318 0.961699
874 2 0.246209 0.372519 0.387031
875 2 0.108109 0.215771 0.150537
876 2 0.0372981 0.0961615 0.560374
877 2 0.115711 0.275035 0.306837
878 2 0.505606 0.36086 0.55981
879 2 0.606092 0.362937 0.0387059
880 2 0.29538 0.406881 0.101766
881 2 0.353522 0.313245 0.372558
882 2 0.222164 0.0982384 0.283685
883 2 0.268371 0.793672 0.326767
884 2 0.296062 0.392451 0.0432061
885 2 0.241355 0.921203 0.985525
886 2 0.126758 0.432472 0.464027
887 2 0.294546 0.11647 0.159654
888 2 0.252595 0.9624 0.339354
889 2 0.130473 0.183262 0.403151
890 2 0.390158 0.131182 0.235465
891 2 0.372171 0.106103 0.356323
892 2 0.927214 0.0989554 0.693642
893 2 0.0581597 0.0888802 0.043374
894 2 0.35559 0.217849 0.0922147
895 2 0.89373 0.275594 0.276811
896 2 0.344035 0.340987 0.395988
897 2 0.892233 0.39131 0.439678
898 2 0.942687 0.0210793 0.327687
899 2 0.387409 0.113658 0.294829
900 2 0.99552 0.222795 0.31684
901 2 0.281673 0.601796 0.360998
902 2 0.443565 0.67772 0.438629
903 2 0.320985 0.45336 0.135864