 vasp.6.5.0 16Dec24 (build Jan 20 2025 08:32:48) complex                         
 executed on        HPECrayEX_GCC date 2025.07.28  14:35:36
 running  128 mpi-ranks, with    1 threads/rank, on    1 nodes
 distrk:  each k-point on  128 cores,    1 groups
 distr:  one band on NCORE=  16 cores,    8 groups


--------------------------------------------------------------------------------------------------------


 INCAR:
   SYSTEM = a-Si SPC
   NCORE = 16
   ISTART = 1
   ICHARG = 1
   ISPIN = 1
   ISYM = 1
   EDIFF = 1E-6
   NELM = 150
   EDIFFG = -0.01
   NSW = 0
   ISIF = 2
   IBRION = -1
   PREC = Accurate
   ENCUT = 1200
   KSPACING = 0.23
   KGAMMA = .TRUE.
   METAGGA = SCAN
   LASPH = .TRUE.
   LDIAG = .FALSE.
   LMIXTAU = .TRUE.
   ADDGRID = .TRUE.
   ALGO = Normal
   ISMEAR = 0
   SIGMA = 0.1
   LORBIT = 11
   NEDOS = 2000
   LWAVE = .FALSE.
   LCHARG = .FALSE.

 POTCAR:    PAW_PBE H 15Jun2001                   
 POTCAR:    PAW_PBE Si 05Jan2001                  
 POTCAR:    PAW_PBE H 15Jun2001                   
   SHA256 =  030f79b5d3ab3cf0e668861823c8fb652ff669f3e15e46930bd03bfd63a607b6 H/POTCAR              
   COPYR  = (c) Copyright 15Jun2001 Georg Kresse                                                    
   COPYR  = This file is part of the software VASP. Any use, copying, and all other rights are regul
   COPYR  = If you do not have a valid VASP license, you may not use, copy or distribute this file. 
   VRHFIN =H: ultrasoft test                                                                        
   LEXCH  = PE                                                                                      
   EATOM  =    12.4884 eV,    0.9179 Ry                                                             
                                                                                                    
   TITEL  = PAW_PBE H 15Jun2001                                                                     
   LULTRA =        F    use ultrasoft PP ?                                                          
   IUNSCR =        0    unscreen: 0-lin 1-nonlin 2-no                                               
   RPACOR =    0.000    partial core radius                                                         
   POMASS =    1.000; ZVAL   =    1.000    mass and valenz                                          
   RCORE  =    1.100    outmost cutoff radius                                                       
   RWIGS  =    0.700; RWIGS  =    0.370    wigner-seitz radius (au A)                               
   ENMAX  =  250.000; ENMIN  =  200.000 eV                                                          
   RCLOC  =    0.701    cutoff for local pot                                                        
   LCOR   =        T    correct aug charges                                                         
   LPAW   =        T    paw PP                                                                      
   EAUG   =  400.000                                                                                
   RMAX   =    1.123    core radius for proj-oper                                                   
   RAUG   =    1.200    factor for augmentation sphere                                              
   RDEP   =    1.112    radius for radial grids                                                     
   RDEPT  =    0.926    core radius for aug-charge                                                  
                                                                                                    
   Atomic configuration                                                                             
    2 entries                                                                                       
     n  l   j            E        occ.                                                              
     1  0  0.50        -6.4927   1.0000                                                             
     2  1  0.50        -3.4015   0.0000                                                             
   Description                                                                                      
     l       E           TYP  RCUT    TYP  RCUT                                                     
     0     -6.4927494     23  1.100                                                                 
     0      6.8029130     23  1.100                                                                 
     1     -4.0817478     23  1.100                                                                 
  local pseudopotential read in
  atomic valenz-charges read in
  non local Contribution for L=           0  read in
    real space projection operators read in
  non local Contribution for L=           0  read in
    real space projection operators read in
  non local Contribution for L=           1  read in
    real space projection operators read in
    PAW grid and wavefunctions read in

   number of l-projection  operators is LMAX  =           3
   number of lm-projection operators is LMMAX =           5

 POTCAR:    PAW_PBE Si 05Jan2001                  
   SHA256 =  79d9987ad8750f624c4d6acb2a16d13abf6a777132adc04dc6c8399be72b42bb Si/POTCAR             
   COPYR  = (c) Copyright 05Jan2001 Georg Kresse                                                    
   COPYR  = This file is part of the software VASP. Any use, copying, and all other rights are regul
   COPYR  = If you do not have a valid VASP license, you may not use, copy or distribute this file. 
   VRHFIN =Si: s2p2                                                                                 
   LEXCH  = PE                                                                                      
   EATOM  =   103.0669 eV,    7.5752 Ry                                                             
                                                                                                    
   TITEL  = PAW_PBE Si 05Jan2001                                                                    
   LULTRA =        F    use ultrasoft PP ?                                                          
   IUNSCR =        1    unscreen: 0-lin 1-nonlin 2-no                                               
   RPACOR =    1.500    partial core radius                                                         
   POMASS =   28.085; ZVAL   =    4.000    mass and valenz                                          
   RCORE  =    1.900    outmost cutoff radius                                                       
   RWIGS  =    2.480; RWIGS  =    1.312    wigner-seitz radius (au A)                               
   ENMAX  =  245.345; ENMIN  =  184.009 eV                                                          
   ICORE  =        2    local potential                                                             
   LCOR   =        T    correct aug charges                                                         
   LPAW   =        T    paw PP                                                                      
   EAUG   =  322.069                                                                                
   DEXC   =    0.000                                                                                
   RMAX   =    1.950    core radius for proj-oper                                                   
   RAUG   =    1.300    factor for augmentation sphere                                              
   RDEP   =    1.993    radius for radial grids                                                     
   RDEPT  =    1.837    core radius for aug-charge                                                  
                                                                                                    
   Atomic configuration                                                                             
    6 entries                                                                                       
     n  l   j            E        occ.                                                              
     1  0  0.50     -1785.8828   2.0000                                                             
     2  0  0.50      -139.4969   2.0000                                                             
     2  1  1.50       -95.5546   6.0000                                                             
     3  0  0.50       -10.8127   2.0000                                                             
     3  1  0.50        -4.0811   2.0000                                                             
     3  2  1.50        -4.0817   0.0000                                                             
   Description                                                                                      
     l       E           TYP  RCUT    TYP  RCUT                                                     
     0    -10.8127223     23  1.900                                                                 
     0     -7.6451159     23  1.900                                                                 
     1     -4.0811372     23  1.900                                                                 
     1      2.4879257     23  1.900                                                                 
     2     -4.0817478      7  1.900                                                                 
  local pseudopotential read in
  partial core-charges read in
  partial kinetic energy density read in
  atomic valenz-charges read in
  non local Contribution for L=           0  read in
    real space projection operators read in
  non local Contribution for L=           0  read in
    real space projection operators read in
  non local Contribution for L=           1  read in
    real space projection operators read in
  non local Contribution for L=           1  read in
    real space projection operators read in
    PAW grid and wavefunctions read in

   number of l-projection  operators is LMAX  =           4
   number of lm-projection operators is LMMAX =           8

 -----------------------------------------------------------------------------
|                                                                             |
|               ----> ADVICE to this user running VASP <----                  |
|                                                                             |
|     You have a (more or less) 'large supercell' and for larger cells it     |
|     might be more efficient to use real-space projection operators.         |
|     Therefore, try LREAL= Auto in the INCAR file.                           |
|     Mind: For very accurate calculation, you might also keep the            |
|     reciprocal projection scheme (i.e. LREAL=.FALSE.).                      |
|                                                                             |
 -----------------------------------------------------------------------------

 -----------------------------------------------------------------------------
|                                                                             |
|               ----> ADVICE to this user running VASP <----                  |
|                                                                             |
|     You enforced a specific xc type in the INCAR file but a different       |
|     type was found in the POTCAR file.                                      |
|     I HOPE YOU KNOW WHAT YOU ARE DOING!                                     |
|                                                                             |
 -----------------------------------------------------------------------------

  PAW_PBE H 15Jun2001                   :
 energy of atom  1       EATOM=  -12.4884
 kinetic energy error for atom=    0.0000 (will be added to EATOM!!)
  PAW_PBE Si 05Jan2001                  :
 energy of atom  2       EATOM= -103.0669
 kinetic energy error for atom=    0.0001 (will be added to EATOM!!)


 POSCAR:  H Si
  positions in cartesian coordinates
  No initial velocities read in


 exchange-correlation table for SCAN
   RHO(1)=    0.500       N(1)  =     2000
   RHO(2)=  100.500       N(2)  =     4000



--------------------------------------------------------------------------------------------------------


 ion  position               nearest neighbor table
   1  0.835  0.310  0.360-   7 1.48
   2  0.170  0.559  0.420-  56 1.50
   3  0.084  0.787  0.419-  59 1.61  31 1.94
   4  0.817  0.662  0.497-  35 1.62  45 1.67
   5  0.661  0.570  0.556-  43 2.36  67 2.36  57 2.39  21 2.41  44 3.13
   6  0.829  0.930  0.603-  70 2.32  33 2.35  71 2.41
   7  0.825  0.301  0.417-   1 1.48   8 2.31  34 2.32
   8  0.965  0.304  0.459-   7 2.31  10 2.34  32 2.37  20 2.41
   9  0.979  0.777  0.531-  35 2.28  60 2.33  59 2.35  71 2.36
  10  0.107  0.280  0.419-  52 2.29  16 2.34   8 2.34  65 2.96
  11  0.816  0.020  0.431-  53 2.33  64 2.37  34 2.49
  12  0.759  0.338  0.563-  25 2.26  49 2.26  58 2.31
  13  0.669  0.108  0.507-  34 2.34  29 2.39  70 2.42  63 2.42  49 2.53  24 2.75  19 3.13
  14  0.468  0.457  0.485-  51 2.34  36 2.35  42 2.36  43 2.37
  15  0.457  0.722  0.461-  46 2.28  44 2.33  42 2.41  61 2.42
  16  0.250  0.354  0.421-  10 2.34  36 2.36  56 2.37  65 2.46
  17  0.254  0.338  0.555-  37 2.33  66 2.33  36 2.35  68 2.44
  18  0.499  0.984  0.398-  63 2.33  46 2.36  62 2.38
  19  0.601  0.266  0.434-  51 2.31  48 2.34  34 2.39  13 3.13
  20  0.946  0.181  0.520-  30 2.29  49 2.31  53 2.35   8 2.41
  21  0.680  0.540  0.466-  51 2.32  45 2.35  44 2.37   5 2.41
  22  0.349  0.007  0.510-  62 2.35  55 2.38  38 2.40  26 2.41
  23  0.168  0.580  0.578-  60 2.26  68 2.29  50 2.29
  24  0.574  0.059  0.594-  29 2.35  70 2.37  38 2.41  13 2.75
  25  0.610  0.336  0.588-  12 2.26  43 2.30  29 2.33
  26  0.283  0.884  0.461-  46 2.29  31 2.35  47 2.35  22 2.41
  27  0.102  0.009  0.464-  31 2.32  53 2.33  52 2.37  40 2.43
  28  0.728  0.755  0.409-  44 2.32  64 2.38  45 2.42
  29  0.559  0.200  0.551-  48 2.32  25 2.33  24 2.35  13 2.39
  30  0.041  0.214  0.587-  20 2.29  54 2.30  66 2.33
  31  0.154  0.899  0.407-   3 1.94  27 2.32  26 2.35
  32  0.984  0.451  0.497-   8 2.37  58 2.40  41 2.42  68 2.44  54 3.08
  33  0.751  0.827  0.549-  35 2.33   6 2.35  57 2.36  64 2.44
  34  0.736  0.172  0.433-   7 2.32  13 2.34  19 2.39  11 2.49
  35  0.848  0.700  0.553-   4 1.62   9 2.28  33 2.33  67 2.33
  36  0.359  0.338  0.487-  17 2.35  14 2.35  48 2.35  16 2.36
  37  0.366  0.349  0.619-  39 2.28  17 2.33
  38  0.496  0.951  0.538-  63 2.35  61 2.35  22 2.40  24 2.41
  39  0.403  0.501  0.614-  37 2.28  43 2.30  50 2.33
  40  0.134  0.956  0.550-  55 2.35  47 2.39  71 2.43  27 2.43
  41  0.964  0.570  0.433-  45 2.35  59 2.35  32 2.42
  42  0.369  0.584  0.475-  14 2.36  56 2.38  15 2.41  50 2.43
  43  0.535  0.470  0.568-  39 2.30  25 2.30   5 2.36  14 2.37
  44  0.614  0.688  0.459-  28 2.32  15 2.33  21 2.37  57 2.42  45 3.08   5 3.13
  45  0.811  0.620  0.437-   4 1.67  41 2.35  21 2.35  28 2.42  44 3.08
  46  0.414  0.849  0.416-  15 2.28  26 2.29  18 2.36
  47  0.225  0.820  0.538-  60 2.30  26 2.35  69 2.36  40 2.39
  48  0.469  0.219  0.478-  62 2.30  29 2.32  19 2.34  36 2.35
  49  0.799  0.189  0.553-  12 2.26  70 2.31  20 2.31  13 2.53
  50  0.321  0.606  0.564-  23 2.29  39 2.33  69 2.35  42 2.43
  51  0.590  0.424  0.430-  19 2.31  21 2.32  14 2.34
  52  0.169  0.157  0.460-  10 2.29  65 2.34  27 2.37  66 2.40
  53  0.946  0.034  0.482-  11 2.33  27 2.33  20 2.35  71 2.38
  54  0.011  0.367  0.604-  30 2.30  68 2.32  58 2.36  32 3.08
  55  0.251  0.057  0.578-  66 2.33  40 2.35  22 2.38
  56  0.263  0.517  0.416-   2 1.50  16 2.37  42 2.38
  57  0.622  0.729  0.549-  61 2.33  33 2.36   5 2.39  44 2.42
  58  0.881  0.440  0.568-  12 2.31  67 2.35  54 2.36  32 2.40
  59  0.036  0.710  0.455-   3 1.61  60 2.32  41 2.35   9 2.35
  60  0.120  0.702  0.530-  23 2.26  47 2.30  59 2.32   9 2.33
  61  0.474  0.791  0.545-  69 2.31  57 2.33  38 2.35  15 2.42
  62  0.402  0.093  0.440-  48 2.30  22 2.35  18 2.38  65 2.38
  63  0.597  0.973  0.469-  18 2.33  38 2.35  64 2.36  13 2.42
  64  0.735  0.888  0.462-  63 2.36  11 2.37  28 2.38  33 2.44
  65  0.289  0.193  0.404-  52 2.34  62 2.38  16 2.46  10 2.96
  66  0.185  0.194  0.550-  30 2.33  55 2.33  17 2.33  52 2.40
  67  0.804  0.571  0.599-  35 2.33  58 2.35   5 2.36
  68  0.119  0.438  0.552-  23 2.29  54 2.32  17 2.44  32 2.44
  69  0.341  0.759  0.591-  61 2.31  50 2.35  47 2.36
  70  0.736  0.057  0.587-  49 2.31   6 2.32  24 2.37  13 2.42
  71  0.969  0.934  0.553-   9 2.36  53 2.38   6 2.41  40 2.43

  LATTYP: Found a simple tetragonal cell.
 ALAT       =    14.5365156675
 C/A-ratio  =     1.7892927298
  
  Lattice vectors:
  
 A1 = (  14.5365156675,   0.0000000000,   0.0000000000)
 A2 = (   0.0000000000,  14.5365156675,   0.0000000000)
 A3 = (   0.0000000000,   0.0000000000,  26.0100818000)


Analysis of symmetry for initial positions (statically):
=====================================================================
 Subroutine PRICEL returns:
 Original cell was already a primitive cell.
 

 Routine SETGRP: Setting up the symmetry group for a 
 simple tetragonal supercell.


 Subroutine GETGRP returns: Found  1 space group operations
 (whereof  1 operations were pure point group operations)
 out of a pool of 16 trial point group operations.


The static configuration has the point symmetry C_1 .


Analysis of symmetry for dynamics (positions and initial velocities):
=====================================================================
 Subroutine PRICEL returns:
 Original cell was already a primitive cell.
 

 Routine SETGRP: Setting up the symmetry group for a 
 simple tetragonal supercell.


 Subroutine GETGRP returns: Found  1 space group operations
 (whereof  1 operations were pure point group operations)
 out of a pool of 16 trial point group operations.


The dynamic configuration has the point symmetry C_1 .


 Subroutine INISYM returns: Found  1 space group operations
 (whereof  1 operations are pure point group operations),
 and found     1 'primitive' translations


----------------------------------------------------------------------------------------

                                     Primitive cell                                     

  volume of cell :    5496.1979

  direct lattice vectors                    reciprocal lattice vectors
    14.536515667  0.000000000  0.000000000     0.068792276  0.000000000  0.000000000
     0.000000000 14.536515667  0.000000000     0.000000000  0.068792276  0.000000000
     0.000000000  0.000000000 26.010081800     0.000000000  0.000000000  0.038446630

  length of vectors
    14.536515667 14.536515667 26.010081800     0.068792276  0.068792276  0.038446630

  position of ions in fractional coordinates (direct lattice)
     0.835396121  0.310441635  0.360323393
     0.169586840  0.559042990  0.420147172
     0.083944248  0.787094319  0.419290608
     0.817291835  0.662038409  0.496691368
     0.660842073  0.570208400  0.556144799
     0.828994789  0.930362103  0.602904675
     0.824691113  0.301118351  0.416604139
     0.964654950  0.304183846  0.458542258
     0.979013037  0.777448030  0.530709906
     0.107023791  0.280186624  0.418789055
     0.815538754  0.019584283  0.431260688
     0.758776889  0.338067635  0.563034332
     0.669241857  0.107659383  0.506521733
     0.468107901  0.457392113  0.485025926
     0.457246439  0.721813582  0.461142557
     0.249633755  0.354484364  0.420613740
     0.253967604  0.337903252  0.555234386
     0.498554289  0.983663067  0.398458456
     0.601489144  0.266037038  0.434259424
     0.945595710  0.181297057  0.519561535
     0.680161523  0.539529535  0.465861320
     0.348906061  0.007270022  0.510095684
     0.167508326  0.580349750  0.578101157
     0.573516718  0.058845474  0.593564730
     0.610386880  0.336292000  0.588499100
     0.282643612  0.883753689  0.460941369
     0.101512279  0.008700574  0.463812094
     0.728268864  0.755009723  0.408966093
     0.558562712  0.200108033  0.550797947
     0.040816023  0.214386032  0.587423323
     0.154284327  0.898509994  0.406592058
     0.984039906  0.451002062  0.496669413
     0.750971188  0.827147121  0.548557369
     0.736423432  0.171783311  0.432893554
     0.848004821  0.700085203  0.552582734
     0.359374625  0.337712098  0.486778881
     0.365582563  0.348759607  0.619154460
     0.495708831  0.950899216  0.538018671
     0.402756545  0.500592265  0.613556880
     0.134401766  0.956151409  0.550472225
     0.964268871  0.570453400  0.432976989
     0.368522141  0.584289418  0.475215126
     0.534713222  0.470434450  0.568039251
     0.613655618  0.687942615  0.458737947
     0.810763428  0.619829535  0.437136764
     0.413709087  0.849141280  0.416159043
     0.224836748  0.820409168  0.537660154
     0.468612242  0.219157515  0.478042521
     0.798724283  0.189108181  0.552986156
     0.321178726  0.606088907  0.564071265
     0.590309548  0.424236422  0.429635362
     0.169371078  0.156561070  0.460477719
     0.946497980  0.033987517  0.482014946
     0.011305461  0.366913900  0.604147786
     0.251268425  0.056858855  0.578078600
     0.263227655  0.516850613  0.415936644
     0.621699732  0.729031492  0.548939299
     0.880933888  0.439520972  0.568300540
     0.035822346  0.709886040  0.454844039
     0.120450353  0.701935368  0.530484407
     0.473944275  0.791269210  0.545324342
     0.402025656  0.093228441  0.439759342
     0.597284840  0.973306935  0.469000884
     0.735219125  0.888413889  0.461822930
     0.289112295  0.192716167  0.403746106
     0.184707127  0.193517609  0.549922644
     0.803820365  0.570573512  0.599165593
     0.119310110  0.437776152  0.551828802
     0.341277143  0.759191819  0.590571113
     0.735979335  0.056560974  0.586752317
     0.968963258  0.934282683  0.553425290

  ion indices of the primitive-cell ions
   primitive index   ion index
                 1           1
                 2           2
                 3           3
                 4           4
                 5           5
                 6           6
                 7           7
                 8           8
                 9           9
                10          10
                11          11
                12          12
                13          13
                14          14
                15          15
                16          16
                17          17
                18          18
                19          19
                20          20
                21          21
                22          22
                23          23
                24          24
                25          25
                26          26
                27          27
                28          28
                29          29
                30          30
                31          31
                32          32
                33          33
                34          34
                35          35
                36          36
                37          37
                38          38
                39          39
                40          40
                41          41
                42          42
                43          43
                44          44
                45          45
                46          46
                47          47
                48          48
                49          49
                50          50
                51          51
                52          52
                53          53
                54          54
                55          55
                56          56
                57          57
                58          58
                59          59
                60          60
                61          61
                62          62
                63          63
                64          64
                65          65
                66          66
                67          67
                68          68
                69          69
                70          70
                71          71

----------------------------------------------------------------------------------------


 -----------------------------------------------------------------------------
|                                                                             |
|           W    W    AA    RRRRR   N    N  II  N    N   GGGG   !!!           |
|           W    W   A  A   R    R  NN   N  II  NN   N  G    G  !!!           |
|           W    W  A    A  R    R  N N  N  II  N N  N  G       !!!           |
|           W WW W  AAAAAA  RRRRR   N  N N  II  N  N N  G  GGG   !            |
|           WW  WW  A    A  R   R   N   NN  II  N   NN  G    G                |
|           W    W  A    A  R    R  N    N  II  N    N   GGGG   !!!           |
|                                                                             |
|     The requested file  could not be found or opened for reading            |
|     k-point information. Automatic k-point generation is used as a          |
|     fallback, which may lead to unwanted results.                           |
|                                                                             |
 -----------------------------------------------------------------------------



Automatic generation of k-mesh.
 Grid dimensions derived from KSPACING:
 generate k-points for:    2    2    2

 Generating k-lattice:

  Cartesian coordinates                     Fractional coordinates (reciprocal lattice)
     0.034396138  0.000000000  0.000000000     0.500000000  0.000000000  0.000000000
     0.000000000  0.034396138  0.000000000     0.000000000  0.500000000  0.000000000
     0.000000000  0.000000000  0.019223315     0.000000000  0.000000000  0.500000000

  Length of vectors
     0.034396138  0.034396138  0.019223315

  Shift w.r.t. Gamma in fractional coordinates (k-lattice)
     0.000000000  0.000000000  0.000000000

 
 Subroutine IBZKPT returns following result:
 ===========================================
 
 Found      8 irreducible k-points:
 
 Following reciprocal coordinates:
            Coordinates               Weight
  0.000000  0.000000  0.000000      1.000000
  0.500000  0.000000  0.000000      1.000000
  0.000000  0.500000  0.000000      1.000000
  0.500000  0.500000  0.000000      1.000000
  0.000000  0.000000  0.500000      1.000000
  0.500000  0.000000  0.500000      1.000000
  0.000000  0.500000  0.500000      1.000000
  0.500000  0.500000  0.500000      1.000000
 
 Following cartesian coordinates:
            Coordinates               Weight
  0.000000  0.000000  0.000000      1.000000
  0.034396  0.000000  0.000000      1.000000
  0.000000  0.034396  0.000000      1.000000
  0.034396  0.034396  0.000000      1.000000
  0.000000  0.000000  0.019223      1.000000
  0.034396  0.000000  0.019223      1.000000
  0.000000  0.034396  0.019223      1.000000
  0.034396  0.034396  0.019223      1.000000
 


--------------------------------------------------------------------------------------------------------




 Dimension of arrays:
   k-points           NKPTS =      8   k-points in BZ     NKDIM =      8   number of bands    NBANDS=    176
   number of dos      NEDOS =   2000   number of ions     NIONS =     71
   non local maximal  LDIM  =      4   non local SUM 2l+1 LMDIM =      8
   total plane-waves  NPLWV = ******
   max r-space proj   IRMAX =      1   max aug-charges    IRDMAX= 403978
   dimension x,y,z NGX =   168 NGY =  168 NGZ =  294
   dimension x,y,z NGXF=   336 NGYF=  336 NGZF=  588
   support grid    NGXF=   672 NGYF=  672 NGZF= 1176
   ions per type =               4  67
   NGX,Y,Z   is equivalent  to a cutoff of  19.21, 19.21, 18.79 a.u.
   NGXF,Y,Z  is equivalent  to a cutoff of  38.43, 38.43, 37.58 a.u.

 SYSTEM =  a-Si SPC                                
 POSCAR =   H Si                                   

 Startparameter for this run:
   NWRITE =      2    write-flag & timer
   PREC   = accura    normal or accurate (medium, high low for compatibility)
   ISTART =      1    job   : 0-new  1-cont  2-samecut
   ICHARG =      1    charge: 1-file 2-atom 10-const
   ISPIN  =      1    spin polarized calculation?
   LNONCOLLINEAR =      F non collinear calculations
   LSORBIT =      F    spin-orbit coupling
   INIWAV =      1    electr: 0-lowe 1-rand  2-diag
   LASPH  =      T    aspherical Exc in radial PAW
 Electronic Relaxation 1
   ENCUT  = 1200.0 eV  88.20 Ry    9.39 a.u.  41.06 41.06 73.47*2*pi/ulx,y,z
   ENINI  = 1200.0     initial cutoff
   ENAUG  =  400.0 eV  augmentation charge cutoff
   NELM   =    150;   NELMIN=  2; NELMDL=  0     # of ELM steps 
   EDIFF  = 0.1E-05   stopping-criterion for ELM
   LREAL  =      F    real-space projection
   NLSPLINE    = F    spline interpolate recip. space projectors
   LCOMPAT=      F    compatible to vasp.4.4
   GGA_COMPAT  = T    GGA compatible to vasp.4.4-vasp.4.6
   LMAXPAW     = -100 max onsite density
   LMAXMIX     =    2 max onsite mixed and CHGCAR
   VOSKOWN=      0    Vosko Wilk Nusair interpolation
   ROPT   =    0.00000   0.00000
 Ionic relaxation
   EDIFFG = -.1E-01   stopping-criterion for IOM
   NSW    =      0    number of steps for IOM
   NBLOCK =      1;   KBLOCK =      1    inner block; outer block 
   IBRION =     -1    ionic relax: 0-MD 1-quasi-New 2-CG
   NFREE  =      0    steps in history (QN), initial steepest desc. (CG)
   ISIF   =      2    stress and relaxation
   IWAVPR =     10    prediction:  0-non 1-charg 2-wave 3-comb
   ISYM   =      1    0-nonsym 1-usesym 2-fastsym
   LCORR  =      T    Harris-Foulkes like correction to forces

   POTIM  = 0.5000    time-step for ionic-motion
   TEIN   =    0.0    initial temperature
   TEBEG  =    0.0;   TEEND  =   0.0 temperature during run
   SMASS  =  -3.00    Nose mass-parameter (am)
   estimated Nose-frequenzy (Omega)   =  0.10E-29 period in steps = 0.13E+47 mass=  -0.483E-26a.u.
   SCALEE = 1.0000    scale energy and forces
   NPACO  =    256;   APACO  = 10.0  distance and # of slots for P.C.
   PSTRESS=    0.0 pullay stress

  Mass of Ions in am
   POMASS =   1.00 28.09
  Ionic Valenz
   ZVAL   =   1.00  4.00
  Atomic Wigner-Seitz radii
   RWIGS  =  -1.00 -1.00
  virtual crystal weights 
   VCA    =   1.00  1.00
   NELECT =     272.0000    total number of electrons
   NUPDOWN=      -1.0000    fix difference up-down

 DOS related values:
   EMIN   =  10.00;   EMAX   =-10.00  energy-range for DOS
   EFERMI =   0.00;   METHOD = LEGACY      
   ISMEAR =     0;   SIGMA  =   0.10  broadening in eV -4-tet -1-fermi 0-gaus
   EFERMI_NEDOS =   21; number of points for ismear=-14 and -15

 Electronic relaxation 2 (details)
   IALGO  =     38    algorithm
   LDIAG  =      F    sub-space diagonalisation (order eigenvalues)
   LSUBROT=      F    optimize rotation matrix (better conditioning)
   TURBO    =      0    0=normal 1=particle mesh
   IRESTART =      0    0=no restart 2=restart with 2 vectors
   NREBOOT  =      0    no. of reboots
   NMIN     =      0    reboot dimension
   EREF     =   0.00    reference energy to select bands
   IMIX   =      4    mixing-type and parameters
     AMIX     =   0.40;   BMIX     =  1.00
     AMIX_MAG =   1.60;   BMIX_MAG =  1.00
     AMIN     =   0.10
     WC   =   100.;   INIMIX=   1;  MIXPRE=   1;  MAXMIX= -45

 Intra band minimization:
   WEIMIN = 0.0000     energy-eigenvalue tresh-hold
   EBREAK =  0.14E-08  absolut break condition
   DEPER  =   0.30     relativ break condition  

   TIME   =   0.40     timestep for ELM

  volume/ion in A,a.u.               =      77.41       522.40
  Fermi-wavevector in a.u.,A,eV,Ry     =   0.601050  1.135819  4.915250  0.361261
  Thomas-Fermi vector in A             =   1.653138

 Write flags
   LWAVE        =      F    write WAVECAR
   LDOWNSAMPLE  =      F    k-point downsampling of WAVECAR
   LCHARG       =      F    write CHGCAR
   LVTOT        =      F    write LOCPOT, total local potential
   LVHAR        =      F    write LOCPOT, Hartree potential only
   WRT_POTENTIAL= false  ! write potential to hdf5 file
   LELF         =      F    write electronic localiz. function (ELF)
   LORBIT       =     11    0 simple, 1 ext, 2 COOP (PROOUT), +10 PAW based schemes


 Python interface
   PLUGINS active      =      F    recompile with -DPLUGINS to activate

 Dipole corrections
   LMONO      =      F    monopole corrections only (constant potential shift)
   LDIPOL     =      F    correct potential (dipole corrections)
   IDIPOL     =      0    1-x, 2-y, 3-z, 4-all directions 
   EPSILON    =  1.0000000 bulk dielectric constant
   LVACPOTAV  =      F  vacuum potentials using an averaging scheme for the charge density
   VACPOTFLAT =  0.1000000 required flatness to determine vacuum potential

Coulomb truncation method
  LTRUNCATE          =      F  Coulomb kernel truncation to be used
  IDIMENSIONALITY    =      3  Dimensionality of cutoff (0 molecules / 2 surfaces)
  ISURFACE           =     -1  Direction of surface normal
  LCOARSEN           =      F  Coarsen the charge grid before padding, preferred


 Exchange correlation treatment:
   METAGGA = SCAN    functional components
   XC_C    = 1    coefficients multiplying the functional components
   LIBXC   =     F    Libxc                    
   VOSKOWN =     0    Vosko Wilk Nusair interpolation
   LHFCALC =     F    Hartree Fock is set to
   LHFONE  =     F    Hartree Fock one center treatment
   AEXX    =    0.0000 exact exchange contribution

 Parameters of functionals:
   SCAN:
     P1 =  0.000000E+00
     P2 =  0.000000E+00
     P3 =  0.000000E+00

 Accuracy and mixing parameters for tau-dependent meta-GGA functionals:
   LMAXTAU = 6
   LMIXTAU = T

 Van der Waals corrections
   IVDW    =     0    specifies the selected vdW correction

 Linear response parameters
   LEPSILON=     F    determine dielectric tensor
   LRPA    =     F    only Hartree local field effects (RPA)
   LNABLA  =     F    use nabla operator in PAW spheres
   LVEL    =     F    velocity operator in full k-point grid
   CSHIFT  =0.1000    complex shift for real part using Kramers Kronig
   OMEGAMAX=  -1.0    maximum frequency
   DEG_THRESHOLD= 0.2000000E-02 threshold for treating states as degnerate
   RTIME   =   -0.100 relaxation time in fs
  (WPLASMAI=    0.000 imaginary part of plasma frequency in eV, 0.658/RTIME)
   DFIELD  = 0.0000000 0.0000000 0.0000000 field for delta impulse in time

  Optional k-point grid parameters
   LKPOINTS_OPT  =     F    use optional k-point grid
   KPOINTS_OPT_MODE=     1    mode for optional k-point grid

 Orbital magnetization related:
   ORBITALMAG=     F  switch on orbital magnetization
   LCHIMAG   =     F  perturbation theory with respect to B field
   DQ        =  0.001000  dq finite difference perturbation B field
   LLRAUG    =     F  two centre corrections for induced B field
   LBONE     =     F  B-component reconstruction in AE one-centre
   LVGVCALC  =     T  calculate vGv susceptibility
   LVGVAPPL  =     F  apply vGv susceptibility instead of pGv for G=0

 Random number generation:
   RANDOM_GENERATOR = DEFAULT
   PCG_SEED         = not used


--------------------------------------------------------------------------------------------------------


 Static calculation
 charge density and potential will be updated during run
 non-spin polarized calculation
 Variant of blocked Davidson
 perform Loewdin sub-space diagonalisation
    ordering is kept fixed
    before iterative eigenvector-optimisation
 modified Broyden-mixing scheme, WC =      100.0
 initial mixing is a Kerker type mixing with AMIX =  0.4000 and BMIX =      1.0000
 Hartree-type preconditioning will be used
 using additional bands           40
 reciprocal scheme for non local part
 use partial core corrections
 calculate Harris-corrections to forces   (improved forces if not selfconsistent)
 use gradient corrections 
 use of overlap-Matrix (Vanderbilt PP)
 Gauss-broadening in eV      SIGMA  =   0.10


--------------------------------------------------------------------------------------------------------


  energy-cutoff  :     1200.00
  volume of cell :     5496.20
      direct lattice vectors                 reciprocal lattice vectors
    14.536515667  0.000000000  0.000000000     0.068792276  0.000000000  0.000000000
     0.000000000 14.536515667  0.000000000     0.000000000  0.068792276  0.000000000
     0.000000000  0.000000000 26.010081800     0.000000000  0.000000000  0.038446630

  length of vectors
    14.536515667 14.536515667 26.010081800     0.068792276  0.068792276  0.038446630



 old parameters found on file WAVECAR:
  energy-cutoff  :     1200.00
  volume of cell :     5496.20
      direct lattice vectors                 reciprocal lattice vectors
    14.536515667  0.000000000  0.000000000     0.068792276  0.000000000  0.000000000
     0.000000000 14.536515667  0.000000000     0.000000000  0.068792276  0.000000000
     0.000000000  0.000000000 26.010081800     0.000000000  0.000000000  0.038446630

  length of vectors


 k-points in units of 2pi/SCALE and weight: read from INCAR                         
   0.00000000  0.00000000  0.00000000       0.125
   0.03439614  0.00000000  0.00000000       0.125
   0.00000000  0.03439614  0.00000000       0.125
   0.03439614  0.03439614  0.00000000       0.125
   0.00000000  0.00000000  0.01922332       0.125
   0.03439614  0.00000000  0.01922332       0.125
   0.00000000  0.03439614  0.01922332       0.125
   0.03439614  0.03439614  0.01922332       0.125

 k-points in reciprocal lattice and weights: read from INCAR                         
   0.00000000  0.00000000  0.00000000       0.125
   0.50000000  0.00000000  0.00000000       0.125
   0.00000000  0.50000000  0.00000000       0.125
   0.50000000  0.50000000  0.00000000       0.125
   0.00000000  0.00000000  0.50000000       0.125
   0.50000000  0.00000000  0.50000000       0.125
   0.00000000  0.50000000  0.50000000       0.125
   0.50000000  0.50000000  0.50000000       0.125

 position of ions in fractional coordinates (direct lattice) 
   0.83539612  0.31044163  0.36032339
   0.16958684  0.55904299  0.42014717
   0.08394425  0.78709432  0.41929061
   0.81729184  0.66203841  0.49669137
   0.66084207  0.57020840  0.55614480
   0.82899479  0.93036210  0.60290467
   0.82469111  0.30111835  0.41660414
   0.96465495  0.30418385  0.45854226
   0.97901304  0.77744803  0.53070991
   0.10702379  0.28018662  0.41878906
   0.81553875  0.01958428  0.43126069
   0.75877689  0.33806764  0.56303433
   0.66924186  0.10765938  0.50652173
   0.46810790  0.45739211  0.48502593
   0.45724644  0.72181358  0.46114256
   0.24963375  0.35448436  0.42061374
   0.25396760  0.33790325  0.55523439
   0.49855429  0.98366307  0.39845846
   0.60148914  0.26603704  0.43425942
   0.94559571  0.18129706  0.51956153
   0.68016152  0.53952954  0.46586132
   0.34890606  0.00727002  0.51009568
   0.16750833  0.58034975  0.57810116
   0.57351672  0.05884547  0.59356473
   0.61038688  0.33629200  0.58849910
   0.28264361  0.88375369  0.46094137
   0.10151228  0.00870057  0.46381209
   0.72826886  0.75500972  0.40896609
   0.55856271  0.20010803  0.55079795
   0.04081602  0.21438603  0.58742332
   0.15428433  0.89850999  0.40659206
   0.98403991  0.45100206  0.49666941
   0.75097119  0.82714712  0.54855737
   0.73642343  0.17178331  0.43289355
   0.84800482  0.70008520  0.55258273
   0.35937463  0.33771210  0.48677888
   0.36558256  0.34875961  0.61915446
   0.49570883  0.95089922  0.53801867
   0.40275654  0.50059226  0.61355688
   0.13440177  0.95615141  0.55047222
   0.96426887  0.57045340  0.43297699
   0.36852214  0.58428942  0.47521513
   0.53471322  0.47043445  0.56803925
   0.61365562  0.68794261  0.45873795
   0.81076343  0.61982954  0.43713676
   0.41370909  0.84914128  0.41615904
   0.22483675  0.82040917  0.53766015
   0.46861224  0.21915751  0.47804252
   0.79872428  0.18910818  0.55298616
   0.32117873  0.60608891  0.56407126
   0.59030955  0.42423642  0.42963536
   0.16937108  0.15656107  0.46047772
   0.94649798  0.03398752  0.48201495
   0.01130546  0.36691390  0.60414779
   0.25126842  0.05685885  0.57807860
   0.26322765  0.51685061  0.41593664
   0.62169973  0.72903149  0.54893930
   0.88093389  0.43952097  0.56830054
   0.03582235  0.70988604  0.45484404
   0.12045035  0.70193537  0.53048441
   0.47394428  0.79126921  0.54532434
   0.40202566  0.09322844  0.43975934
   0.59728484  0.97330693  0.46900088
   0.73521913  0.88841389  0.46182293
   0.28911229  0.19271617  0.40374611
   0.18470713  0.19351761  0.54992264
   0.80382037  0.57057351  0.59916559
   0.11931011  0.43777615  0.55182880
   0.34127714  0.75919182  0.59057111
   0.73597934  0.05656097  0.58675232
   0.96896326  0.93428268  0.55342529

 position of ions in cartesian coordinates  (Angst):
  12.14374880  4.51273969  9.37204092
   2.46520176  8.12653719 10.92806231
   1.22025688 11.44160890 10.90578302
  11.88057557  9.62373170 12.91898310
   9.60634115  8.28884334 14.46537171
  12.05069574 13.52422329 15.68159991
  11.98813528  4.37721162 10.83590773
  14.02272180  4.42177325 11.92672165
  14.23143835 11.30138547 13.80380806
   1.55575301  4.07293725 10.89273758
  11.85509188  0.28468723 11.21712577
  11.02997213  4.91432548 14.64456903
   9.72844474  1.56499231 13.17467171
   6.80465784  6.64888762 12.61556402
   6.64677002 10.49265445 11.99435563
   3.62880499  5.15296751 10.94019778
   3.69180405  4.91193591 14.44169179
   7.24724224 14.29903359 10.36393704
   8.74355637  3.86725157 11.29512313
  13.74566685  2.63542751 13.51383802
   9.88717863  7.84287954 12.11709104
   5.07187842  0.10568079 13.26763047
   2.43498740  8.43626323 15.03645838
   8.33693475  0.85540815 15.43866718
   8.87289844  4.88851392 15.30690974
   4.10865329 12.84669934 11.98912271
   1.47563484  0.12647603 12.06379050
  10.58649175 10.97521067 10.63724153
   8.11955562  2.90887355 14.32629966
   0.59332276  3.11642592 15.27892867
   2.24275654 13.06120461 10.57549270
  14.30451151  6.55599854 12.91841207
  10.91650444 12.02383709 14.26802205
  10.70503075  2.49713079 11.25959676
  12.32703537 10.17679952 14.37272212
   5.22405487  4.90915720 12.66115851
   5.31429665  5.06974949 16.10425816
   7.20587919 13.82276135 13.99390965
   5.85467682  7.27686730 15.95866463
   1.95373337 13.89910994 14.31782760
  14.01710955  8.29240479 11.26176689
   5.35702787  8.49353228 12.36038431
   7.77286713  6.83847776 14.77474739
   8.92041451 10.00028860 11.93181152
  11.78567527  9.01016175 11.36996299
   6.01388862 12.34355552 10.82433075
   3.26834291 11.92589072 13.98458459
   6.81198920  3.18578665 12.43392507
  11.61066806  2.74897404 14.38321516
   4.66881958  8.81042089 14.67153974
   8.58104399  6.16691939 11.17485091
   2.46206533  2.27585245 11.97706315
  13.75878271  0.49406008 12.53724817
   0.16434201  5.33364965 15.71393333
   3.65256739  0.82652963 15.03587167
   3.82641293  7.51320703 10.81854613
   9.03734789 10.59757770 14.27795608
  12.80570927  6.38910350 14.78154353
   0.52073209 10.31926954 11.83053065
   1.75092844 10.20369447 13.79794283
   6.88949838 11.50229727 14.18393073
   5.84405225  1.35521670 11.43817645
   8.68244044 14.14849151 12.19875135
  10.68752433 12.91444241 12.01205218
   4.20268540  2.80142158 10.50146925
   2.68499805  2.81307175 14.30353295
  11.68474733  8.29415080 15.58434608
   1.73435328  6.36373989 14.35311229
   4.96098053 11.03600377 15.36080296
  10.69857514  0.82219949 15.26147577
  14.08534958 13.58121486 14.39463707



--------------------------------------------------------------------------------------------------------


 k-point     1 :   0.0000 0.0000 0.0000  plane waves:  518635
 k-point     2 :   0.5000 0.0000 0.0000  plane waves:  518730
 k-point     3 :   0.0000 0.5000 0.0000  plane waves:  518730
 k-point     4 :   0.5000 0.5000 0.0000  plane waves:  518956
 k-point     5 :   0.0000 0.0000 0.5000  plane waves:  518602
 k-point     6 :   0.5000 0.0000 0.5000  plane waves:  518904
 k-point     7 :   0.0000 0.5000 0.5000  plane waves:  518904
 k-point     8 :   0.5000 0.5000 0.5000  plane waves:  518840

 maximum and minimum number of plane-waves per node :     32498    32336

 maximum number of plane-waves:    518956
 maximum index in each direction: 
   IXMAX=   41   IYMAX=   41   IZMAX=   73
   IXMIN=  -41   IYMIN=  -41   IZMIN=  -73


 parallel 3D FFT for wavefunctions:
    minimum data exchange during FFTs selected (reduces bandwidth)
 parallel 3D FFT for charge:
    minimum data exchange during FFTs selected (reduces bandwidth)


 total amount of memory used by VASP MPI-rank0   368719. kBytes
=======================================================================

   base                                    :      30000. kBytes
   nonl-proj                               :      70053. kBytes
   fftplans                                :     100033. kBytes
   grid                                    :      77177. kBytes
   one-center                              :         15. kBytes
   wavefun                                 :      91441. kBytes

     INWAV:  cpu time     27.7184: real time     27.7371
 Broyden mixing: mesh for mixing (old mesh)
   NGX = 83   NGY = 83   NGZ =147
  (NGX  =336   NGY  =336   NGZ  =588)
  gives a total of ****** points

 initial charge density was supplied:
 number of electron     271.9999999 magnetization 
 keeping initial charge density in first step


--------------------------------------------------------------------------------------------------------


 Maximum index for augmentation-charges        11261 (set IRDMAX)


--------------------------------------------------------------------------------------------------------


 First call to EWALD:  gamma=   0.100
 Maximum number of real-space cells   3x   3x   2
 Maximum number of reciprocal cells   2x   2x   4

    FEWALD:  cpu time      0.0104: real time      0.0104


--------------------------------------- Ionic step        1  -------------------------------------------




--------------------------------------- Iteration      1(   1)  ---------------------------------------


    POTLOK:  cpu time      2.0421: real time      2.0430
    SETDIJ:  cpu time      1.3907: real time      1.3925
    EDDIAG:  cpu time     53.6875: real time     53.7167
     EDDAV:  cpu time    235.8662: real time    236.0071
       DOS:  cpu time      0.0105: real time      0.0107
    CHARGE:  cpu time     30.1902: real time     30.2185
    MIXING:  cpu time      0.0463: real time      0.0471
    --------------------------------------------
      LOOP:  cpu time    323.2336: real time    323.4357

 eigenvalue-minimisations  :  2816
 total energy-change (2. order) :-0.6845054E+03  (-0.7722398E+00)
 number of electron     271.9999999 magnetization 
 augmentation part      -15.2183713 magnetization 

 Broyden mixing:
  rms(total) = 0.99523E+00    rms(broyden)= 0.24498E+02
  rms(prec ) = 0.10264E+01
  weight for this iteration     100.00
  WARNING: grid for Broyden might be to small

 Free energy of the ion-electron system (eV)
  ---------------------------------------------------
  alpha Z        PSCENC =        28.38685540
  Ewald energy   TEWEN  =     33758.03661970
  -Hartree energ DENC   =    -39747.29604138
  -exchange      EXHF   =         0.00000000
  -V(xc)+E(xc)   XCENC  =      -321.40564303
  PAW double counting   =     24613.29365412   -23945.26485262
  entropy T*S    EENTRO =        -0.16394956
  eigenvalues    EBANDS =     -2025.52344141
  atomic energy  EATOM  =      6955.43144537
  Solvation  Ediel_sol  =         0.00000000
  ---------------------------------------------------
  free energy    TOTEN  =      -684.50535342 eV

  energy without entropy =     -684.34140385  energy(sigma->0) =     -684.42337863


--------------------------------------------------------------------------------------------------------




--------------------------------------- Iteration      1(   2)  ---------------------------------------


    POTLOK:  cpu time      1.9499: real time      1.9517
    SETDIJ:  cpu time      1.3828: real time      1.3835
    EDDIAG:  cpu time     53.6193: real time     53.6507
     EDDAV:  cpu time    237.6782: real time    237.8145
       DOS:  cpu time      0.0028: real time      0.0028
    CHARGE:  cpu time     30.1516: real time     30.1797
    MIXING:  cpu time      0.0395: real time      0.0398
    --------------------------------------------
      LOOP:  cpu time    324.8239: real time    325.0228

 eigenvalue-minimisations  :  2856
 total energy-change (2. order) : 0.4799523E+02  (-0.7242717E+00)
 number of electron     271.9999999 magnetization 
 augmentation part      -15.1641995 magnetization 

 Broyden mixing:
  rms(total) = 0.67662E+00    rms(broyden)= 0.14101E+02
  rms(prec ) = 0.69231E+00
  weight for this iteration     100.00
  WARNING: grid for Broyden might be to small

 eigenvalues of (default mixing * dielectric matrix)
  average eigenvalue GAMMA=   0.6348
  0.6348

 Free energy of the ion-electron system (eV)
  ---------------------------------------------------
  alpha Z        PSCENC =        28.38685540
  Ewald energy   TEWEN  =     33758.03661970
  -Hartree energ DENC   =    -39736.99239626
  -exchange      EXHF   =         0.00000000
  -V(xc)+E(xc)   XCENC  =      -314.44141066
  PAW double counting   =     29380.32636614   -28712.13257125
  entropy T*S    EENTRO =        -0.15586213
  eigenvalues    EBANDS =     -1994.96917286
  atomic energy  EATOM  =      6955.43144537
  Solvation  Ediel_sol  =         0.00000000
  ---------------------------------------------------
  free energy    TOTEN  =      -636.51012656 eV

  energy without entropy =     -636.35426442  energy(sigma->0) =     -636.43219549


--------------------------------------------------------------------------------------------------------




--------------------------------------- Iteration      1(   3)  ---------------------------------------


    POTLOK:  cpu time      1.9342: real time      1.9562
    SETDIJ:  cpu time      1.3915: real time      1.3922
    EDDIAG:  cpu time     53.6876: real time     53.7177
     EDDAV:  cpu time    236.1712: real time    236.3175
       DOS:  cpu time      0.0039: real time      0.0039
    CHARGE:  cpu time     30.0749: real time     30.1052
    MIXING:  cpu time      0.0380: real time      0.0380
    --------------------------------------------
      LOOP:  cpu time    323.3014: real time    323.5307

 eigenvalue-minimisations  :  2824
 total energy-change (2. order) :-0.2562052E+01  (-0.5873516E+00)
 number of electron     271.9999999 magnetization 
 augmentation part      -15.1146090 magnetization 

 Broyden mixing:
  rms(total) = 0.28457E+00    rms(broyden)= 0.20441E+02
  rms(prec ) = 0.35300E+00
  weight for this iteration     100.00
  WARNING: grid for Broyden might be to small

 eigenvalues of (default mixing * dielectric matrix)
  average eigenvalue GAMMA=   0.7585
  0.8909  0.6261

 Free energy of the ion-electron system (eV)
  ---------------------------------------------------
  alpha Z        PSCENC =        28.38685540
  Ewald energy   TEWEN  =     33758.03661970
  -Hartree energ DENC   =    -39736.74640499
  -exchange      EXHF   =         0.00000000
  -V(xc)+E(xc)   XCENC  =      -317.11465910
  PAW double counting   =     34970.64341342   -34302.55891816
  entropy T*S    EENTRO =        -0.16081937
  eigenvalues    EBANDS =     -1994.98971126
  atomic energy  EATOM  =      6955.43144537
  Solvation  Ediel_sol  =         0.00000000
  ---------------------------------------------------
  free energy    TOTEN  =      -639.07217901 eV

  energy without entropy =     -638.91135964  energy(sigma->0) =     -638.99176932


--------------------------------------------------------------------------------------------------------




--------------------------------------- Iteration      1(   4)  ---------------------------------------


    POTLOK:  cpu time      1.9311: real time      1.9474
    SETDIJ:  cpu time      1.3870: real time      1.3884
    EDDIAG:  cpu time     53.6786: real time     53.7070
     EDDAV:  cpu time    239.2078: real time    239.3553
       DOS:  cpu time      0.0027: real time      0.0027
    CHARGE:  cpu time     30.1314: real time     30.1610
    MIXING:  cpu time      0.0384: real time      0.0385
    --------------------------------------------
      LOOP:  cpu time    326.3770: real time    326.6003

 eigenvalue-minimisations  :  2888
 total energy-change (2. order) : 0.3059900E+00  (-0.6418384E-01)
 number of electron     271.9999999 magnetization 
 augmentation part      -15.1071150 magnetization 

 Broyden mixing:
  rms(total) = 0.47014E-01    rms(broyden)= 0.18047E+01
  rms(prec ) = 0.55612E-01
  weight for this iteration     100.00
  WARNING: grid for Broyden might be to small

 eigenvalues of (default mixing * dielectric matrix)
  average eigenvalue GAMMA=   1.1301
  2.0514  0.7185  0.6203

 Free energy of the ion-electron system (eV)
  ---------------------------------------------------
  alpha Z        PSCENC =        28.38685540
  Ewald energy   TEWEN  =     33758.03661970
  -Hartree energ DENC   =    -39738.06663642
  -exchange      EXHF   =         0.00000000
  -V(xc)+E(xc)   XCENC  =      -317.57941194
  PAW double counting   =     39407.76381471   -38739.72130760
  entropy T*S    EENTRO =        -0.15754315
  eigenvalues    EBANDS =     -1992.86002506
  atomic energy  EATOM  =      6955.43144537
  Solvation  Ediel_sol  =         0.00000000
  ---------------------------------------------------
  free energy    TOTEN  =      -638.76618900 eV

  energy without entropy =     -638.60864585  energy(sigma->0) =     -638.68741743


--------------------------------------------------------------------------------------------------------




--------------------------------------- Iteration      1(   5)  ---------------------------------------


    POTLOK:  cpu time      1.9299: real time      1.9512
    SETDIJ:  cpu time      1.3961: real time      1.3969
    EDDIAG:  cpu time     53.7073: real time     53.7369
     EDDAV:  cpu time    265.1077: real time    265.2651
       DOS:  cpu time      0.0028: real time      0.0028
    CHARGE:  cpu time     30.1041: real time     30.1322
    MIXING:  cpu time      0.0375: real time      0.0386
    --------------------------------------------
      LOOP:  cpu time    352.2855: real time    352.5237

 eigenvalue-minimisations  :  3448
 total energy-change (2. order) :-0.2579178E-01  (-0.6287326E-02)
 number of electron     271.9999999 magnetization 
 augmentation part      -15.1088834 magnetization 

 Broyden mixing:
  rms(total) = 0.31666E-01    rms(broyden)= 0.26790E+00
  rms(prec ) = 0.36272E-01
  weight for this iteration     100.00
  WARNING: grid for Broyden might be to small

 eigenvalues of (default mixing * dielectric matrix)
  average eigenvalue GAMMA=   1.1632
  2.5225  0.8669  0.6342  0.6292

 Free energy of the ion-electron system (eV)
  ---------------------------------------------------
  alpha Z        PSCENC =        28.38685540
  Ewald energy   TEWEN  =     33758.03661970
  -Hartree energ DENC   =    -39738.09920334
  -exchange      EXHF   =         0.00000000
  -V(xc)+E(xc)   XCENC  =      -318.36145210
  PAW double counting   =     38976.88534880   -38308.81744639
  entropy T*S    EENTRO =        -0.15984703
  eigenvalues    EBANDS =     -1992.09430119
  atomic energy  EATOM  =      6955.43144537
  Solvation  Ediel_sol  =         0.00000000
  ---------------------------------------------------
  free energy    TOTEN  =      -638.79198078 eV

  energy without entropy =     -638.63213375  energy(sigma->0) =     -638.71205727


--------------------------------------------------------------------------------------------------------




--------------------------------------- Iteration      1(   6)  ---------------------------------------


    POTLOK:  cpu time      1.9366: real time      1.9542
    SETDIJ:  cpu time      1.3840: real time      1.3853
    EDDIAG:  cpu time     53.6549: real time     53.6865
     EDDAV:  cpu time    251.8034: real time    251.9609
       DOS:  cpu time      0.0027: real time      0.0030
    CHARGE:  cpu time     30.1141: real time     30.1433
    MIXING:  cpu time      0.0389: real time      0.0389
    --------------------------------------------
      LOOP:  cpu time    338.9346: real time    339.1722

 eigenvalue-minimisations  :  3160
 total energy-change (2. order) :-0.2989424E-02  (-0.1420387E-02)
 number of electron     271.9999999 magnetization 
 augmentation part      -15.1084913 magnetization 

 Broyden mixing:
  rms(total) = 0.20719E-01    rms(broyden)= 0.17398E+00
  rms(prec ) = 0.22514E-01
  weight for this iteration     100.00
  WARNING: grid for Broyden might be to small

 eigenvalues of (default mixing * dielectric matrix)
  average eigenvalue GAMMA=   1.1071
  2.5756  1.0494  0.7047  0.5789  0.6269

 Free energy of the ion-electron system (eV)
  ---------------------------------------------------
  alpha Z        PSCENC =        28.38685540
  Ewald energy   TEWEN  =     33758.03661970
  -Hartree energ DENC   =    -39738.25845418
  -exchange      EXHF   =         0.00000000
  -V(xc)+E(xc)   XCENC  =      -318.49714203
  PAW double counting   =     38888.38790474   -38220.30802304
  entropy T*S    EENTRO =        -0.15840986
  eigenvalues    EBANDS =     -1991.81576631
  atomic energy  EATOM  =      6955.43144537
  Solvation  Ediel_sol  =         0.00000000
  ---------------------------------------------------
  free energy    TOTEN  =      -638.79497021 eV

  energy without entropy =     -638.63656035  energy(sigma->0) =     -638.71576528


--------------------------------------------------------------------------------------------------------




--------------------------------------- Iteration      1(   7)  ---------------------------------------


    POTLOK:  cpu time      1.9591: real time      1.9741
    SETDIJ:  cpu time      1.3909: real time      1.3914
    EDDIAG:  cpu time     53.6952: real time     53.7259
     EDDAV:  cpu time    242.9380: real time    243.0830
       DOS:  cpu time      0.0056: real time      0.0056
    CHARGE:  cpu time     30.0885: real time     30.1183
    MIXING:  cpu time      0.0397: real time      0.0397
    --------------------------------------------
      LOOP:  cpu time    330.1168: real time    330.3379

 eigenvalue-minimisations  :  2968
 total energy-change (2. order) :-0.1156821E-02  (-0.8964719E-03)
 number of electron     271.9999999 magnetization 
 augmentation part      -15.1063208 magnetization 

 Broyden mixing:
  rms(total) = 0.63325E-02    rms(broyden)= 0.11065E+00
  rms(prec ) = 0.74644E-02
  weight for this iteration     100.00
  WARNING: grid for Broyden might be to small

 eigenvalues of (default mixing * dielectric matrix)
  average eigenvalue GAMMA=   1.0968
  2.5656  1.3587  0.8370  0.6426  0.6426  0.5341

 Free energy of the ion-electron system (eV)
  ---------------------------------------------------
  alpha Z        PSCENC =        28.38685540
  Ewald energy   TEWEN  =     33758.03661970
  -Hartree energ DENC   =    -39738.16554158
  -exchange      EXHF   =         0.00000000
  -V(xc)+E(xc)   XCENC  =      -318.30688881
  PAW double counting   =     38886.56146960   -38218.46551868
  entropy T*S    EENTRO =        -0.15851742
  eigenvalues    EBANDS =     -1992.11605060
  atomic energy  EATOM  =      6955.43144537
  Solvation  Ediel_sol  =         0.00000000
  ---------------------------------------------------
  free energy    TOTEN  =      -638.79612703 eV

  energy without entropy =     -638.63760961  energy(sigma->0) =     -638.71686832


--------------------------------------------------------------------------------------------------------




--------------------------------------- Iteration      1(   8)  ---------------------------------------


    POTLOK:  cpu time      1.9342: real time      1.9541
    SETDIJ:  cpu time      1.3933: real time      1.3942
    EDDIAG:  cpu time     53.6614: real time     53.6896
     EDDAV:  cpu time    244.8489: real time    244.9990
       DOS:  cpu time      0.0043: real time      0.0044
    CHARGE:  cpu time     30.1111: real time     30.1402
    MIXING:  cpu time      0.0402: real time      0.0402
    --------------------------------------------
      LOOP:  cpu time    331.9933: real time    332.2217

 eigenvalue-minimisations  :  3008
 total energy-change (2. order) :-0.2130195E-03  (-0.1435491E-03)
 number of electron     271.9999999 magnetization 
 augmentation part      -15.1065414 magnetization 

 Broyden mixing:
  rms(total) = 0.29255E-02    rms(broyden)= 0.46397E-01
  rms(prec ) = 0.39174E-02
  weight for this iteration     100.00
  WARNING: grid for Broyden might be to small

 eigenvalues of (default mixing * dielectric matrix)
  average eigenvalue GAMMA=   1.1770
  2.5848  2.1260  1.0197  0.7445  0.6447  0.6246  0.4946

 Free energy of the ion-electron system (eV)
  ---------------------------------------------------
  alpha Z        PSCENC =        28.38685540
  Ewald energy   TEWEN  =     33758.03661970
  -Hartree energ DENC   =    -39737.88629432
  -exchange      EXHF   =         0.00000000
  -V(xc)+E(xc)   XCENC  =      -318.31725791
  PAW double counting   =     38919.58588866   -38251.48541886
  entropy T*S    EENTRO =        -0.15878444
  eigenvalues    EBANDS =     -1992.38939365
  atomic energy  EATOM  =      6955.43144537
  Solvation  Ediel_sol  =         0.00000000
  ---------------------------------------------------
  free energy    TOTEN  =      -638.79634005 eV

  energy without entropy =     -638.63755561  energy(sigma->0) =     -638.71694783


--------------------------------------------------------------------------------------------------------




--------------------------------------- Iteration      1(   9)  ---------------------------------------


    POTLOK:  cpu time      1.9301: real time      1.9504
    SETDIJ:  cpu time      1.3922: real time      1.3933
    EDDIAG:  cpu time     53.6552: real time     53.6896
     EDDAV:  cpu time    247.0076: real time    247.1660
       DOS:  cpu time      0.0030: real time      0.0030
    CHARGE:  cpu time     30.0948: real time     30.1249
    MIXING:  cpu time      0.0412: real time      0.0413
    --------------------------------------------
      LOOP:  cpu time    334.1244: real time    334.3686

 eigenvalue-minimisations  :  3048
 total energy-change (2. order) : 0.3995208E-04  (-0.5026931E-04)
 number of electron     271.9999999 magnetization 
 augmentation part      -15.1066824 magnetization 

 Broyden mixing:
  rms(total) = 0.22123E-02    rms(broyden)= 0.28423E-01
  rms(prec ) = 0.28195E-02
  weight for this iteration     100.00
  WARNING: grid for Broyden might be to small

 eigenvalues of (default mixing * dielectric matrix)
  average eigenvalue GAMMA=   1.2474
  3.1214  2.5695  1.0883  0.8427  0.6743  0.6400  0.4790  0.5637

 Free energy of the ion-electron system (eV)
  ---------------------------------------------------
  alpha Z        PSCENC =        28.38685540
  Ewald energy   TEWEN  =     33758.03661970
  -Hartree energ DENC   =    -39737.69757498
  -exchange      EXHF   =         0.00000000
  -V(xc)+E(xc)   XCENC  =      -318.34524157
  PAW double counting   =     38922.41280326   -38254.31178234
  entropy T*S    EENTRO =        -0.15876606
  eigenvalues    EBANDS =     -1992.55065887
  atomic energy  EATOM  =      6955.43144537
  Solvation  Ediel_sol  =         0.00000000
  ---------------------------------------------------
  free energy    TOTEN  =      -638.79630010 eV

  energy without entropy =     -638.63753404  energy(sigma->0) =     -638.71691707


--------------------------------------------------------------------------------------------------------




--------------------------------------- Iteration      1(  10)  ---------------------------------------


    POTLOK:  cpu time      1.9308: real time      1.9518
    SETDIJ:  cpu time      1.3908: real time      1.3918
    EDDIAG:  cpu time     53.6974: real time     53.7278
     EDDAV:  cpu time    247.0420: real time    247.2015
       DOS:  cpu time      0.0098: real time      0.0101
    CHARGE:  cpu time     30.0620: real time     30.0924
    MIXING:  cpu time      0.0556: real time      0.0562
    --------------------------------------------
      LOOP:  cpu time    334.1887: real time    334.4320

 eigenvalue-minimisations  :  3056
 total energy-change (2. order) :-0.3518755E-04  (-0.3081662E-04)
 number of electron     271.9999999 magnetization 
 augmentation part      -15.1067522 magnetization 

 Broyden mixing:
  rms(total) = 0.11859E-02    rms(broyden)= 0.24655E-01
  rms(prec ) = 0.14557E-02
  weight for this iteration     100.00
  WARNING: grid for Broyden might be to small

 eigenvalues of (default mixing * dielectric matrix)
  average eigenvalue GAMMA=   1.3114
  3.9783  2.5785  1.3532  0.9228  0.7374  0.6719  0.6256  0.4857  0.4488

 Free energy of the ion-electron system (eV)
  ---------------------------------------------------
  alpha Z        PSCENC =        28.38685540
  Ewald energy   TEWEN  =     33758.03661970
  -Hartree energ DENC   =    -39737.48665494
  -exchange      EXHF   =         0.00000000
  -V(xc)+E(xc)   XCENC  =      -318.35667692
  PAW double counting   =     38920.14885689   -38252.04717590
  entropy T*S    EENTRO =        -0.15874521
  eigenvalues    EBANDS =     -1992.75085968
  atomic energy  EATOM  =      6955.43144537
  Solvation  Ediel_sol  =         0.00000000
  ---------------------------------------------------
  free energy    TOTEN  =      -638.79633528 eV

  energy without entropy =     -638.63759007  energy(sigma->0) =     -638.71696268


--------------------------------------------------------------------------------------------------------




--------------------------------------- Iteration      1(  11)  ---------------------------------------


    POTLOK:  cpu time      1.9330: real time      1.9494
    SETDIJ:  cpu time      1.4000: real time      1.4009
    EDDIAG:  cpu time     53.6721: real time     53.7037
     EDDAV:  cpu time    242.1263: real time    242.2745
       DOS:  cpu time      0.0037: real time      0.0037
    CHARGE:  cpu time     30.0942: real time     30.1227
    MIXING:  cpu time      0.0425: real time      0.0430
    --------------------------------------------
      LOOP:  cpu time    329.2713: real time    329.4974

 eigenvalue-minimisations  :  2952
 total energy-change (2. order) :-0.7853093E-04  (-0.2394042E-04)
 number of electron     271.9999999 magnetization 
 augmentation part      -15.1067819 magnetization 

 Broyden mixing:
  rms(total) = 0.58920E-03    rms(broyden)= 0.20293E-01
  rms(prec ) = 0.85711E-03
  weight for this iteration     100.00
  WARNING: grid for Broyden might be to small

 eigenvalues of (default mixing * dielectric matrix)
  average eigenvalue GAMMA=   1.4966
  5.5764  2.6027  1.9790  1.0996  0.8579  0.6617  0.6617  0.6154  0.4824  0.4287

 Free energy of the ion-electron system (eV)
  ---------------------------------------------------
  alpha Z        PSCENC =        28.38685540
  Ewald energy   TEWEN  =     33758.03661970
  -Hartree energ DENC   =    -39737.24079073
  -exchange      EXHF   =         0.00000000
  -V(xc)+E(xc)   XCENC  =      -318.35882263
  PAW double counting   =     38917.55995445   -38249.45743727
  entropy T*S    EENTRO =        -0.15877693
  eigenvalues    EBANDS =     -1992.99546118
  atomic energy  EATOM  =      6955.43144537
  Solvation  Ediel_sol  =         0.00000000
  ---------------------------------------------------
  free energy    TOTEN  =      -638.79641381 eV

  energy without entropy =     -638.63763689  energy(sigma->0) =     -638.71702535


--------------------------------------------------------------------------------------------------------




--------------------------------------- Iteration      1(  12)  ---------------------------------------


    POTLOK:  cpu time      1.9298: real time      1.9492
    SETDIJ:  cpu time      1.3888: real time      1.3899
    EDDIAG:  cpu time     53.6322: real time     53.6643
     EDDAV:  cpu time    242.6319: real time    242.7898
       DOS:  cpu time      0.0095: real time      0.0096
    CHARGE:  cpu time     30.0288: real time     30.0777
    MIXING:  cpu time      0.0581: real time      0.0584
    --------------------------------------------
      LOOP:  cpu time    329.6795: real time    329.9393

 eigenvalue-minimisations  :  2960
 total energy-change (2. order) :-0.1032345E-03  (-0.1894662E-04)
 number of electron     271.9999999 magnetization 
 augmentation part      -15.1068427 magnetization 

 Broyden mixing:
  rms(total) = 0.35963E-03    rms(broyden)= 0.16517E-01
  rms(prec ) = 0.57530E-03
  weight for this iteration     100.00
  WARNING: grid for Broyden might be to small

 eigenvalues of (default mixing * dielectric matrix)
  average eigenvalue GAMMA=   1.6765
  7.6489  2.5234  2.5234  1.1493  0.9983  0.8015  0.6542  0.6261  0.6015  0.4871
  0.4280

 Free energy of the ion-electron system (eV)
  ---------------------------------------------------
  alpha Z        PSCENC =        28.38685540
  Ewald energy   TEWEN  =     33758.03661970
  -Hartree energ DENC   =    -39737.02523707
  -exchange      EXHF   =         0.00000000
  -V(xc)+E(xc)   XCENC  =      -318.36563715
  PAW double counting   =     38917.53049873   -38249.42786048
  entropy T*S    EENTRO =        -0.15877422
  eigenvalues    EBANDS =     -1993.20442732
  atomic energy  EATOM  =      6955.43144537
  Solvation  Ediel_sol  =         0.00000000
  ---------------------------------------------------
  free energy    TOTEN  =      -638.79651705 eV

  energy without entropy =     -638.63774283  energy(sigma->0) =     -638.71712994


--------------------------------------------------------------------------------------------------------




--------------------------------------- Iteration      1(  13)  ---------------------------------------


    POTLOK:  cpu time      1.9363: real time      1.9527
    SETDIJ:  cpu time      1.4001: real time      1.4014
    EDDIAG:  cpu time     53.6438: real time     53.6742
     EDDAV:  cpu time    241.8809: real time    242.0326
       DOS:  cpu time      0.0053: real time      0.0053
    CHARGE:  cpu time     30.0510: real time     30.0793
    MIXING:  cpu time      0.0443: real time      0.0444
    --------------------------------------------
      LOOP:  cpu time    328.9614: real time    329.1893

 eigenvalue-minimisations  :  2944
 total energy-change (2. order) :-0.1293769E-03  (-0.2083765E-04)
 number of electron     271.9999999 magnetization 
 augmentation part      -15.1069037 magnetization 

 Broyden mixing:
  rms(total) = 0.21543E-03    rms(broyden)= 0.13585E-01
  rms(prec ) = 0.41044E-03
  weight for this iteration     100.00
  WARNING: grid for Broyden might be to small

 eigenvalues of (default mixing * dielectric matrix)
  average eigenvalue GAMMA=   1.7939
  9.2909  2.7016  2.7016  1.3633  1.0693  0.8997  0.7362  0.4243  0.4939  0.6492
  0.6232  0.5731

 Free energy of the ion-electron system (eV)
  ---------------------------------------------------
  alpha Z        PSCENC =        28.38685540
  Ewald energy   TEWEN  =     33758.03661970
  -Hartree energ DENC   =    -39736.85022214
  -exchange      EXHF   =         0.00000000
  -V(xc)+E(xc)   XCENC  =      -318.37263417
  PAW double counting   =     38917.80493484   -38249.70261338
  entropy T*S    EENTRO =        -0.15876930
  eigenvalues    EBANDS =     -1993.37226273
  atomic energy  EATOM  =      6955.43144537
  Solvation  Ediel_sol  =         0.00000000
  ---------------------------------------------------
  free energy    TOTEN  =      -638.79664643 eV

  energy without entropy =     -638.63787712  energy(sigma->0) =     -638.71726177


--------------------------------------------------------------------------------------------------------




--------------------------------------- Iteration      1(  14)  ---------------------------------------


    POTLOK:  cpu time      1.9246: real time      1.9449
    SETDIJ:  cpu time      1.3974: real time      1.3982
    EDDIAG:  cpu time     53.6491: real time     53.6785
     EDDAV:  cpu time    241.7710: real time    241.9159
       DOS:  cpu time      0.0029: real time      0.0030
    CHARGE:  cpu time     30.0533: real time     30.0840
    MIXING:  cpu time      0.0456: real time      0.0456
    --------------------------------------------
      LOOP:  cpu time    328.8439: real time    329.0701

 eigenvalue-minimisations  :  2944
 total energy-change (2. order) :-0.1340371E-03  (-0.2627043E-04)
 number of electron     271.9999999 magnetization 
 augmentation part      -15.1069473 magnetization 

 Broyden mixing:
  rms(total) = 0.15876E-03    rms(broyden)= 0.10195E-01
  rms(prec ) = 0.29196E-03
  weight for this iteration     100.00
  WARNING: grid for Broyden might be to small

 eigenvalues of (default mixing * dielectric matrix)
  average eigenvalue GAMMA=   1.7862
  9.7334  2.7758  2.7758  1.5487  1.0409  1.0409  0.8349  0.4255  0.4918  0.7009
  0.6309  0.6309  0.5906

 Free energy of the ion-electron system (eV)
  ---------------------------------------------------
  alpha Z        PSCENC =        28.38685540
  Ewald energy   TEWEN  =     33758.03661970
  -Hartree energ DENC   =    -39736.65926264
  -exchange      EXHF   =         0.00000000
  -V(xc)+E(xc)   XCENC  =      -318.37673067
  PAW double counting   =     38918.11615123   -38250.01416086
  entropy T*S    EENTRO =        -0.15877239
  eigenvalues    EBANDS =     -1993.55892559
  atomic energy  EATOM  =      6955.43144537
  Solvation  Ediel_sol  =         0.00000000
  ---------------------------------------------------
  free energy    TOTEN  =      -638.79678046 eV

  energy without entropy =     -638.63800807  energy(sigma->0) =     -638.71739427


--------------------------------------------------------------------------------------------------------




--------------------------------------- Iteration      1(  15)  ---------------------------------------


    POTLOK:  cpu time      1.9457: real time      1.9636
    SETDIJ:  cpu time      1.4014: real time      1.4021
    EDDIAG:  cpu time     53.6518: real time     53.6790
     EDDAV:  cpu time    242.5553: real time    242.7070
       DOS:  cpu time      0.0027: real time      0.0028
    CHARGE:  cpu time     30.1104: real time     30.1385
    MIXING:  cpu time      0.0453: real time      0.0453
    --------------------------------------------
      LOOP:  cpu time    329.7127: real time    329.9383

 eigenvalue-minimisations  :  2960
 total energy-change (2. order) :-0.1232604E-03  (-0.2073038E-04)
 number of electron     271.9999999 magnetization 
 augmentation part      -15.1069801 magnetization 

 Broyden mixing:
  rms(total) = 0.11440E-03    rms(broyden)= 0.67295E-02
  rms(prec ) = 0.18817E-03
  weight for this iteration     100.00
  WARNING: grid for Broyden might be to small

 eigenvalues of (default mixing * dielectric matrix)
  average eigenvalue GAMMA=   1.7647
  9.8819  2.9340  2.7319  1.7627  1.2674  0.9669  0.9669  0.7834  0.4265  0.4892
  0.6688  0.6250  0.6006  0.6006

 Free energy of the ion-electron system (eV)
  ---------------------------------------------------
  alpha Z        PSCENC =        28.38685540
  Ewald energy   TEWEN  =     33758.03661970
  -Hartree energ DENC   =    -39736.48652441
  -exchange      EXHF   =         0.00000000
  -V(xc)+E(xc)   XCENC  =      -318.37893863
  PAW double counting   =     38917.93167513   -38249.82990277
  entropy T*S    EENTRO =        -0.15877121
  eigenvalues    EBANDS =     -1993.72936230
  atomic energy  EATOM  =      6955.43144537
  Solvation  Ediel_sol  =         0.00000000
  ---------------------------------------------------
  free energy    TOTEN  =      -638.79690372 eV

  energy without entropy =     -638.63813252  energy(sigma->0) =     -638.71751812


--------------------------------------------------------------------------------------------------------




--------------------------------------- Iteration      1(  16)  ---------------------------------------


    POTLOK:  cpu time      1.9476: real time      1.9487
    SETDIJ:  cpu time      1.3992: real time      1.3999
    EDDIAG:  cpu time     53.6549: real time     53.6855
     EDDAV:  cpu time    243.2539: real time    243.4068
       DOS:  cpu time      0.0031: real time      0.0031
    CHARGE:  cpu time     30.0576: real time     30.0855
    MIXING:  cpu time      0.0460: real time      0.0460
    --------------------------------------------
      LOOP:  cpu time    330.3624: real time    330.5755

 eigenvalue-minimisations  :  2976
 total energy-change (2. order) :-0.6142636E-04  (-0.9502127E-05)
 number of electron     271.9999999 magnetization 
 augmentation part      -15.1069951 magnetization 

 Broyden mixing:
  rms(total) = 0.80979E-04    rms(broyden)= 0.44608E-02
  rms(prec ) = 0.12588E-03
  weight for this iteration     100.00
  WARNING: grid for Broyden might be to small

 eigenvalues of (default mixing * dielectric matrix)
  average eigenvalue GAMMA=   1.7514
  9.9693  3.1407  2.6757  2.2371  1.3771  1.0546  0.8459  0.8459  0.7328  0.4266
  0.4888  0.6596  0.6149  0.6009  0.6009

 Free energy of the ion-electron system (eV)
  ---------------------------------------------------
  alpha Z        PSCENC =        28.38685540
  Ewald energy   TEWEN  =     33758.03661970
  -Hartree energ DENC   =    -39736.38798071
  -exchange      EXHF   =         0.00000000
  -V(xc)+E(xc)   XCENC  =      -318.37948942
  PAW double counting   =     38918.05126635   -38249.94957970
  entropy T*S    EENTRO =        -0.15877706
  eigenvalues    EBANDS =     -1993.82732508
  atomic energy  EATOM  =      6955.43144537
  Solvation  Ediel_sol  =         0.00000000
  ---------------------------------------------------
  free energy    TOTEN  =      -638.79696515 eV

  energy without entropy =     -638.63818809  energy(sigma->0) =     -638.71757662


--------------------------------------------------------------------------------------------------------




--------------------------------------- Iteration      1(  17)  ---------------------------------------


    POTLOK:  cpu time      1.9503: real time      1.9641
    SETDIJ:  cpu time      1.3883: real time      1.3895
    EDDIAG:  cpu time     53.6749: real time     53.7047
     EDDAV:  cpu time    238.6428: real time    238.7863
       DOS:  cpu time      0.0029: real time      0.0029
    CHARGE:  cpu time     30.1028: real time     30.1284
    MIXING:  cpu time      0.0473: real time      0.0473
    --------------------------------------------
      LOOP:  cpu time    325.8094: real time    326.0231

 eigenvalue-minimisations  :  2872
 total energy-change (2. order) :-0.3671713E-04  (-0.4675043E-05)
 number of electron     271.9999999 magnetization 
 augmentation part      -15.1070066 magnetization 

 Broyden mixing:
  rms(total) = 0.52068E-04    rms(broyden)= 0.28670E-02
  rms(prec ) = 0.78810E-04
  weight for this iteration     100.00
  WARNING: grid for Broyden might be to small

 eigenvalues of (default mixing * dielectric matrix)
  average eigenvalue GAMMA=   1.7339
  9.9974  3.3218  2.6310  2.4869  1.4314  1.1100  1.0159  0.9091  0.7891  0.4265
  0.4892  0.6826  0.6225  0.6225  0.6301  0.5771

 Free energy of the ion-electron system (eV)
  ---------------------------------------------------
  alpha Z        PSCENC =        28.38685540
  Ewald energy   TEWEN  =     33758.03661970
  -Hartree energ DENC   =    -39736.32847256
  -exchange      EXHF   =         0.00000000
  -V(xc)+E(xc)   XCENC  =      -318.37988418
  PAW double counting   =     38918.02878790   -38249.92709941
  entropy T*S    EENTRO =        -0.15877240
  eigenvalues    EBANDS =     -1993.88648168
[...]
   -.159E+01 -.328E+01 -.777E+02   0.171E+01 0.198E+01 0.773E+02   -.184E+00 0.139E+01 0.275E+00   -.628E-04 0.201E-04 -.315E-04
   0.312E+02 -.203E+02 0.246E+03   -.309E+02 0.179E+02 -.245E+03   -.687E+00 0.213E+01 -.980E+00   -.308E-04 -.126E-04 -.520E-04
   -.237E+02 0.148E+02 0.230E+03   0.248E+02 -.166E+02 -.231E+03   -.127E+01 0.156E+01 0.117E+01   -.254E-04 -.693E-04 -.472E-04
   -.853E+01 -.184E+02 -.145E+03   0.638E+01 0.170E+02 0.144E+03   0.137E+01 0.138E+01 0.297E+00   -.273E-05 0.341E-04 0.547E-05
   -.659E+01 0.560E+01 0.984E+01   0.485E+01 -.562E+01 -.104E+02   0.164E+01 -.311E+00 0.392E+00   0.600E-05 -.194E-04 -.396E-04
   0.204E+00 -.117E+02 0.781E+02   -.435E+00 0.112E+02 -.778E+02   0.431E-01 0.544E+00 -.296E+00   0.589E-04 0.415E-05 -.886E-04
   0.201E+02 0.218E+02 0.144E+03   -.182E+02 -.203E+02 -.144E+03   -.183E+01 -.180E+01 -.430E+00   0.579E-04 0.381E-04 -.930E-04
   0.502E+01 -.324E+02 0.233E+03   -.614E+01 0.331E+02 -.230E+03   0.125E+01 -.154E+00 -.297E+01   0.122E-04 0.101E-05 -.727E-04
   0.919E+01 -.696E+01 -.136E+03   -.773E+01 0.492E+01 0.138E+03   -.174E+01 0.208E+01 -.164E+01   -.137E-04 -.246E-04 0.528E-05
   -.162E+02 -.469E+00 0.294E+03   0.180E+02 0.924E+00 -.295E+03   -.162E+01 -.393E+00 0.151E+00   0.360E-04 -.327E-04 -.912E-04
   -.573E+01 -.967E+01 0.215E+03   0.410E+01 0.112E+02 -.213E+03   0.173E+01 -.115E+01 -.186E+01   0.113E-04 0.245E-04 -.576E-04
   -.553E+01 0.687E+01 -.337E+02   0.527E+01 -.706E+01 0.349E+02   0.601E-01 0.149E+00 -.139E+01   -.267E-04 -.255E-04 -.180E-04
   -.180E+02 0.324E+02 0.128E+03   0.170E+02 -.301E+02 -.127E+03   0.992E+00 -.234E+01 -.105E+01   0.402E-04 0.405E-04 -.647E-04
   0.554E+01 -.570E+01 -.447E+02   -.569E+01 0.630E+01 0.434E+02   -.230E-01 -.475E+00 0.126E+01   0.167E-04 -.154E-04 -.431E-04
   0.286E+02 -.101E+02 -.210E+03   -.274E+02 0.993E+01 0.208E+03   -.124E+01 0.106E+00 0.175E+01   -.293E-04 0.184E-04 0.299E-04
   0.331E+02 0.199E+02 -.273E+03   -.336E+02 -.186E+02 0.273E+03   0.193E+00 -.131E+01 0.132E+00   0.156E-05 -.105E-04 0.938E-06
   0.230E+01 0.275E+01 -.238E+03   -.301E+00 -.169E+01 0.237E+03   -.151E+01 -.115E+01 0.723E+00   0.511E-04 0.623E-05 0.655E-05
   0.143E+02 0.257E+02 0.131E+03   -.143E+02 -.259E+02 -.131E+03   -.204E+00 0.259E+00 0.468E+00   0.223E-04 0.670E-06 -.608E-04
   0.173E+02 0.728E+01 0.136E+03   -.171E+02 -.862E+01 -.136E+03   -.119E-01 0.129E+01 -.994E-01   -.900E-05 -.211E-04 -.392E-04
   -.226E+02 -.122E+02 0.279E+03   0.200E+02 0.120E+02 -.280E+03   0.234E+01 0.312E+00 0.794E+00   -.132E-05 0.160E-04 -.133E-03
   0.296E+02 -.105E+02 -.147E+03   -.290E+02 0.104E+02 0.146E+03   -.680E+00 0.154E+00 0.151E+01   0.836E-05 -.107E-04 -.103E-04
   0.302E+01 0.302E+02 -.245E+03   -.282E+01 -.295E+02 0.243E+03   -.277E+00 -.811E+00 0.209E+01   -.120E-04 -.272E-04 0.171E-04
   0.214E+02 0.204E+02 0.273E+03   -.208E+02 -.197E+02 -.277E+03   -.527E+00 -.750E+00 0.359E+01   -.190E-04 -.166E-04 -.773E-04
   -.446E+01 -.288E+02 0.468E+02   0.372E+01 0.279E+02 -.468E+02   0.947E+00 0.968E+00 0.552E-01   -.667E-04 0.503E-04 -.548E-04
   0.227E+01 -.920E+01 -.131E+03   -.752E+00 0.813E+01 0.131E+03   -.148E+01 0.108E+01 -.377E+00   -.311E-05 -.184E-04 -.662E-04
   -.103E+02 0.512E+01 0.220E+03   0.119E+02 -.333E+01 -.219E+03   -.109E+01 -.164E+01 -.135E+01   0.404E-05 0.313E-05 -.678E-04
   -.310E+02 0.553E+01 -.149E+03   0.302E+02 -.417E+01 0.149E+03   0.597E+00 -.152E+01 0.585E+00   -.411E-04 -.235E-04 -.297E-04
   0.101E+01 -.402E+01 0.494E+02   -.467E+00 0.528E+01 -.492E+02   -.100E+00 -.106E+01 -.111E-01   0.293E-04 -.224E-04 -.462E-04
   0.126E+01 0.387E+02 -.282E+03   0.895E+00 -.408E+02 0.283E+03   -.172E+01 0.168E+01 -.703E+00   -.855E-06 -.645E-04 0.513E-04
   0.104E+02 0.795E+01 -.130E+03   -.100E+02 -.843E+01 0.128E+03   -.414E+00 0.474E+00 0.271E+01   0.133E-04 -.135E-04 -.316E-04
   0.194E+01 -.285E+02 -.282E+03   -.217E+01 0.261E+02 0.280E+03   0.220E+00 0.239E+01 0.187E+01   0.165E-04 0.214E-04 0.217E-04
   0.141E+02 0.112E+02 -.163E+03   -.117E+02 -.105E+02 0.161E+03   -.215E+01 -.609E+00 0.214E+01   -.183E-04 -.477E-05 -.162E-04
   -.178E+02 0.101E+02 0.211E+03   0.179E+02 -.111E+02 -.215E+03   -.245E-03 0.719E+00 0.252E+01   -.663E-04 0.361E-04 -.686E-04
   0.195E+02 -.183E+02 0.109E+03   -.192E+02 0.164E+02 -.107E+03   -.390E+00 0.167E+01 -.180E+01   0.283E-04 0.249E-04 -.863E-04
   -.102E+02 -.124E+02 -.170E+03   0.898E+01 0.120E+02 0.169E+03   0.102E+01 0.390E+00 0.697E+00   0.841E-04 0.151E-04 -.844E-05
   0.160E+02 0.428E+01 0.154E+03   -.149E+02 -.401E+01 -.154E+03   -.871E+00 -.451E+00 -.666E-01   0.934E-04 0.607E-04 -.117E-03
   -.250E+02 0.149E+02 0.211E+03   0.251E+02 -.147E+02 -.210E+03   0.369E-01 0.479E-01 -.117E+01   -.317E-04 0.870E-04 -.789E-04
   0.781E+01 0.299E+02 0.258E+03   -.857E+01 -.297E+02 -.256E+03   0.975E+00 -.591E-01 -.257E+01   0.474E-04 0.139E-04 -.646E-04
   0.714E+01 0.769E+01 -.104E+03   -.748E+01 -.897E+01 0.104E+03   0.266E+00 0.108E+01 0.444E+00   0.339E-05 0.201E-04 -.104E-04
   0.915E+01 -.503E+01 0.703E+02   -.907E+01 0.450E+01 -.705E+02   -.328E+00 0.574E+00 0.124E+00   0.238E-04 -.278E-04 -.561E-04
   -.178E+02 -.525E+01 -.143E+03   0.195E+02 0.722E+01 0.143E+03   -.158E+01 -.183E+01 -.472E+00   -.103E-05 0.280E-05 -.530E-05
   0.651E+01 -.817E+01 -.145E+03   -.748E+01 0.877E+01 0.146E+03   0.925E+00 -.376E+00 -.977E+00   -.225E-04 0.391E-04 0.111E-04
   -.985E+01 -.122E+02 0.236E+03   0.830E+01 0.119E+02 -.234E+03   0.163E+01 0.104E+00 -.112E+01   0.279E-04 0.126E-04 -.693E-04
   0.127E+02 0.182E+02 0.120E+03   -.129E+02 -.161E+02 -.121E+03   0.296E+00 -.213E+01 0.985E+00   0.370E-05 -.409E-04 -.245E-04
   0.383E+01 0.155E+02 0.885E+02   -.297E+01 -.155E+02 -.877E+02   -.860E+00 0.214E+00 -.720E+00   -.292E-04 -.404E-04 -.284E-04
   0.393E+01 -.102E+02 -.277E+03   -.276E+01 0.108E+02 0.275E+03   -.118E+01 -.526E+00 0.208E+01   -.314E-04 0.132E-04 0.524E-04
   -.202E+02 0.498E+01 -.242E+03   0.196E+02 -.426E+01 0.242E+03   0.520E+00 -.523E+00 0.134E+00   -.642E-05 -.588E-05 -.114E-06
   0.404E+01 -.272E+02 0.242E+03   -.499E+01 0.284E+02 -.242E+03   0.135E+01 -.132E+01 0.984E-02   -.797E-05 0.450E-04 -.818E-04
   0.661E+01 -.919E+01 -.160E+03   -.700E+01 0.857E+01 0.158E+03   0.322E+00 0.516E+00 0.220E+01   0.606E-04 0.673E-05 -.340E-04
   0.477E+00 -.175E+02 -.162E+03   -.459E+00 0.179E+02 0.161E+03   -.905E-01 -.937E-01 0.817E+00   -.715E-04 0.543E-04 0.185E-04
   -.219E+01 0.289E+01 0.173E+03   0.167E+01 -.403E+01 -.169E+03   0.335E+00 0.100E+01 -.341E+01   -.655E-04 0.201E-05 -.904E-04
   0.308E+01 0.153E+02 -.701E+02   -.190E+01 -.146E+02 0.701E+02   -.960E+00 -.668E+00 0.508E-01   -.105E-04 0.876E-05 -.102E-04
   0.840E+00 -.140E+01 -.137E+03   -.192E+01 0.862E+00 0.138E+03   0.100E+01 0.773E+00 -.398E-01   0.300E-04 0.241E-04 -.156E-04
   0.545E+01 -.412E+00 0.186E+03   -.452E+01 0.384E+00 -.184E+03   -.841E+00 -.241E+00 -.228E+01   0.313E-04 -.297E-04 -.623E-04
   -.980E+01 0.132E+02 0.111E+03   0.901E+01 -.135E+02 -.110E+03   0.852E+00 0.257E+00 -.846E+00   0.158E-04 -.458E-04 -.837E-04
   -.275E+02 0.818E+01 0.132E+03   0.274E+02 -.828E+01 -.132E+03   0.447E+00 0.163E-01 -.360E+00   0.607E-05 -.920E-04 -.108E-03
   -.841E+01 0.491E+01 0.281E+03   0.663E+01 -.636E+01 -.281E+03   0.153E+01 0.144E+01 -.167E+00   0.270E-04 -.475E-04 -.510E-04
   -.866E+01 0.644E+01 -.138E+03   0.851E+01 -.627E+01 0.138E+03   0.223E+00 0.472E-01 0.166E+00   0.475E-05 -.299E-04 -.606E-05
   -.171E+02 -.745E+01 -.264E+03   0.163E+02 0.728E+01 0.265E+03   0.774E+00 0.208E+00 -.866E+00   -.178E-04 0.977E-05 0.535E-04
   -.683E+01 -.187E+02 -.103E+03   0.612E+01 0.199E+02 0.105E+03   0.108E+01 -.115E+01 -.197E+01   -.616E-05 0.231E-04 0.138E-04
   0.521E+01 -.198E+02 -.257E+03   -.460E+01 0.194E+02 0.258E+03   -.662E+00 0.472E+00 -.231E+00   0.949E-05 0.414E-04 0.498E-04
   -.145E+02 0.132E+02 -.244E+03   0.159E+02 -.144E+02 0.242E+03   -.105E+01 0.984E+00 0.202E+01   0.177E-04 -.302E-04 0.212E-05
   -.712E+01 0.365E+01 -.154E+03   0.661E+01 -.381E+01 0.151E+03   0.400E+00 0.113E+00 0.216E+01   -.313E-04 -.824E-05 -.110E-04
 -----------------------------------------------------------------------------------------------
   0.842E+00 -.380E+01 -.920E+01   -.524E-13 0.488E-14 -.824E-12   -.834E+00 0.381E+01 0.920E+01   0.110E-03 0.568E-04 -.235E-02


 POSITION                                       TOTAL-FORCE (eV/Angst)
 -----------------------------------------------------------------------------------
     12.14375      4.51274      9.37204        -0.185116      0.068559     -0.255331
      2.46520      8.12654     10.92806        -0.020870     -0.090660     -0.148664
      1.22026     11.44161     10.90578        -0.005806     -0.180140      0.027595
     11.88058      9.62373     12.91898         0.104680     -0.030632     -0.091415
      9.60634      8.28884     14.46537         0.260015      0.240562      0.164996
     12.05070     13.52422     15.68160        -0.155070     -0.128086      0.078585
     11.98814      4.37721     10.83591         0.136238     -0.045093      0.486394
     14.02272      4.42177     11.92672        -0.257725      0.053165      0.141715
     14.23144     11.30139     13.80381        -0.062513      0.111605     -0.117830
      1.55575      4.07294     10.89274        -0.331556     -0.212706     -0.020023
     11.85509      0.28469     11.21713        -0.222670     -0.144162     -0.102234
     11.02997      4.91433     14.64457        -0.686680     -0.068293     -0.054869
      9.72844      1.56499     13.17467         0.018547     -0.311241     -0.117479
      6.80466      6.64889     12.61556        -0.195722      0.064630     -0.021629
      6.64677     10.49265     11.99436         0.017364     -0.356285     -0.305963
      3.62880      5.15297     10.94020         0.196981      0.530890      0.104252
      3.69180      4.91194     14.44169        -0.361342      0.125178      0.104747
      7.24724     14.29903     10.36394        -0.051473     -0.023474     -0.193729
      8.74356      3.86725     11.29512         0.209304      0.339907      0.024494
     13.74567      2.63543     13.51384        -0.239940     -0.021266     -0.211139
      9.88718      7.84288     12.11709        -0.018102     -0.085702     -0.441041
      5.07188      0.10568     13.26763        -0.163000      0.059792     -0.041311
      2.43499      8.43626     15.03646        -0.046973     -0.051249     -0.294069
      8.33693      0.85541     15.43867        -0.210210     -0.054697     -0.079392
      8.87290      4.88851     15.30691         0.446354     -0.155881     -0.097739
      4.10865     12.84670     11.98912        -0.195441      0.121366      0.015056
      1.47563      0.12648     12.06379         0.179740      0.034908      0.017041
     10.58649     10.97521     10.63724        -0.124597      0.000379     -0.069853
      8.11956      2.90887     14.32630        -0.096057      0.009172      0.334144
      0.59332      3.11643     15.27893        -0.084666      0.045112     -0.068041
      2.24276     13.06120     10.57549         0.046369     -0.041583     -0.287884
     14.30451      6.55600     12.91841         0.256378      0.072541      0.088777
     10.91650     12.02384     14.26802        -0.009336      0.005690      0.060004
     10.70503      2.49713     11.25960         0.421818      0.113267     -0.325295
     12.32704     10.17680     14.37272        -0.181161     -0.226919     -0.008646
      5.22405      4.90916     12.66116         0.442551      0.148106      0.135116
      5.31430      5.06975     16.10426         0.256877     -0.127282      0.111182
      7.20588     13.82276     13.99391        -0.066012      0.046624      0.112669
      5.85468      7.27687     15.95866         0.025766      0.017202     -0.144159
      1.95373     13.89911     14.31783         0.136017      0.053122      0.083684
     14.01711      8.29240     11.26177        -0.012484     -0.098924     -0.351871
      5.35703      8.49353     12.36038        -0.110667     -0.205902     -0.256746
      7.77287      6.83848     14.77475        -0.167050     -0.008190      0.111869
      8.92041     10.00029     11.93181         0.165548     -0.225446     -0.151411
     11.78568      9.01016     11.36996         0.103961      0.347463      0.387886
      6.01389     12.34356     10.82433         0.266420      0.240725      0.265671
      3.26834     11.92589     13.98458        -0.084847     -0.140182      0.079701
      6.81199      3.18579     12.43393        -0.236301      0.079402     -0.114516
     11.61067      2.74897     14.38322        -0.006444      0.032424      0.106315
      4.66882      8.81042     14.67154        -0.025408      0.188357      0.154596
      8.58104      6.16692     11.17485         0.175125     -0.202349      0.245546
      2.46207      2.27585     11.97706         0.102000     -0.164164     -0.136739
     13.75878      0.49406     12.53725        -0.034960      0.190026      0.018282
      0.16434      5.33365     15.71393        -0.052503     -0.064186     -0.279660
      3.65257      0.82653     15.03587        -0.207847      0.152536     -0.319550
      3.82641      7.51321     10.81855         0.345311     -0.288027      0.214014
      9.03735     10.59758     14.27796        -0.039370     -0.069353     -0.028855
     12.80571      6.38910     14.78154        -0.086612      0.174476      0.322970
      0.52073     10.31927     11.83053        -0.119123     -0.041157      0.343132
      1.75093     10.20369     13.79794         0.126771      0.010175      0.010101
      6.88950     11.50230     14.18393         0.014129      0.288699      0.338310
      5.84405      1.35522     11.43818         0.035519     -0.243093     -0.055874
      8.68244     14.14849     12.19875         0.093262      0.046330     -0.157719
     10.68752     12.91444     12.01205         0.303974     -0.038045     -0.126826
      4.20269      2.80142     10.50147        -0.234737      0.082967      0.281881
      2.68500      2.81307     14.30353         0.063844      0.229889      0.268951
     11.68475      8.29415     15.58435         0.007292      0.058934      0.087169
      1.73435      6.36374     14.35311         0.399577      0.008870      0.000550
      4.96098     11.03600     15.36080        -0.082674     -0.035167      0.059240
     10.69858      0.82220     15.26148         0.194181     -0.123780      0.098004
     14.08535     13.58121     14.39464        -0.078845     -0.089733     -0.007134
 -----------------------------------------------------------------------------------
    total drift:                                0.007516      0.009158     -0.004404


--------------------------------------------------------------------------------------------------------



  FREE ENERGIE OF THE ION-ELECTRON SYSTEM (eV)
  ---------------------------------------------------
  free  energy   TOTEN  =      -638.79702051 eV

  energy  without entropy=     -638.63824779  energy(sigma->0) =     -638.71763415



--------------------------------------------------------------------------------------------------------


    POTLOK:  cpu time      3.3144: real time      3.3175


--------------------------------------------------------------------------------------------------------


     LOOP+:  cpu time   7097.3742: real time   7102.4132
    4ORBIT:  cpu time      0.0000: real time      0.0000



 total charge

# of ion       s       p       d       tot
------------------------------------------
    1        0.564   0.016   0.000   0.580
    2        0.555   0.016   0.000   0.572
    3        0.526   0.016   0.000   0.542
    4        0.580   0.019   0.000   0.599
    5        0.766   0.893   0.000   1.658
    6        0.804   0.842   0.000   1.646
    7        0.774   0.915   0.000   1.689
    8        0.759   0.924   0.000   1.683
    9        0.759   0.953   0.000   1.712
   10        0.809   0.854   0.000   1.662
   11        0.806   0.824   0.000   1.630
   12        0.782   0.912   0.000   1.694
   13        0.761   0.902   0.000   1.663
   14        0.761   0.935   0.000   1.696
   15        0.765   0.911   0.000   1.675
   16        0.756   0.882   0.000   1.638
   17        0.763   0.922   0.000   1.684
   18        0.808   0.845   0.000   1.653
   19        0.791   0.833   0.000   1.625
   20        0.756   0.940   0.000   1.696
   21        0.760   0.925   0.000   1.685
   22        0.764   0.904   0.000   1.669
   23        0.791   0.909   0.000   1.700
   24        0.803   0.825   0.000   1.628
   25        0.780   0.897   0.000   1.677
   26        0.763   0.943   0.000   1.706
   27        0.764   0.927   0.000   1.691
   28        0.806   0.836   0.000   1.643
   29        0.764   0.917   0.000   1.681
   30        0.784   0.902   0.000   1.686
   31        0.866   0.753   0.000   1.620
   32        0.769   0.862   0.000   1.631
   33        0.758   0.918   0.000   1.676
   34        0.772   0.868   0.000   1.640
   35        0.772   0.927   0.000   1.699
   36        0.758   0.930   0.000   1.689
   37        0.866   0.757   0.000   1.624
   38        0.761   0.916   0.000   1.677
   39        0.792   0.898   0.000   1.690
   40        0.766   0.889   0.000   1.655
   41        0.795   0.849   0.000   1.644
   42        0.759   0.895   0.000   1.654
   43        0.756   0.941   0.000   1.696
   44        0.766   0.930   0.000   1.695
   45        0.784   0.857   0.000   1.641
   46        0.793   0.878   0.000   1.670
   47        0.758   0.931   0.000   1.688
   48        0.758   0.949   0.000   1.707
   49        0.769   0.925   0.000   1.694
   50        0.763   0.931   0.000   1.694
   51        0.783   0.871   0.000   1.655
   52        0.761   0.929   0.000   1.690
   53        0.758   0.943   0.000   1.701
   54        0.799   0.866   0.000   1.665
   55        0.810   0.840   0.000   1.650
   56        0.773   0.873   0.000   1.646
   57        0.760   0.922   0.000   1.683
   58        0.756   0.915   0.000   1.671
   59        0.767   0.899   0.000   1.667
   60        0.757   0.975   0.000   1.732
   61        0.764   0.921   0.000   1.685
   62        0.765   0.925   0.000   1.690
   63        0.774   0.899   0.000   1.673
   64        0.763   0.896   0.000   1.659
   65        0.820   0.795   0.000   1.615
   66        0.766   0.930   0.000   1.695
   67        0.797   0.862   0.000   1.658
   68        0.758   0.907   0.000   1.665
   69        0.804   0.866   0.000   1.671
   70        0.770   0.905   0.000   1.675
   71        0.760   0.886   0.000   1.646
--------------------------------------------------
tot         54.268  59.968   0.000 114.236


 total amount of memory used by VASP MPI-rank0   368719. kBytes
=======================================================================

   base                                    :      30000. kBytes
   nonl-proj                               :      70053. kBytes
   fftplans                                :     100033. kBytes
   grid                                    :      77177. kBytes
   one-center                              :         15. kBytes
   wavefun                                 :      91441. kBytes

  
  
 General timing and accounting informations for this job:
 ========================================================
  
                  Total CPU time used (sec):     7241.700
                            User time (sec):     6383.475
                          System time (sec):      858.225
                         Elapsed time (sec):     7246.839
  
                   Maximum memory used (kb):      620472.
                   Average memory used (kb):          N/A
  
                          Minor page faults:     11344608
                          Major page faults:         1179
                 Voluntary context switches:         3188
