 vasp.6.5.0 16Dec24 (build Jan 20 2025 08:32:48) complex                         
 executed on        HPECrayEX_GCC date 2025.07.22  01:50:41
 running  128 mpi-ranks, with    1 threads/rank, on    1 nodes
 distrk:  each k-point on  128 cores,    1 groups
 distr:  one band on NCORE=  16 cores,    8 groups


--------------------------------------------------------------------------------------------------------


 INCAR:
   SYSTEM = a-Si SPC
   NCORE = 16
   ISTART = 1
   ICHARG = 1
   ISPIN = 1
   ISYM = 1
   EDIFF = 1E-6
   NELM = 150
   EDIFFG = -0.01
   NSW = 0
   ISIF = 2
   IBRION = -1
   PREC = Accurate
   ENCUT = 1200
   KSPACING = 0.23
   KGAMMA = .TRUE.
   METAGGA = SCAN
   LASPH = .TRUE.
   LDIAG = .FALSE.
   LMIXTAU = .TRUE.
   ADDGRID = .TRUE.
   ALGO = Normal
   ISMEAR = 0
   SIGMA = 0.1
   LORBIT = 11
   NEDOS = 2000
   LWAVE = .FALSE.
   LCHARG = .FALSE.

 POTCAR:    PAW_PBE H 15Jun2001                   
 POTCAR:    PAW_PBE Si 05Jan2001                  
 POTCAR:    PAW_PBE H 15Jun2001                   
   SHA256 =  030f79b5d3ab3cf0e668861823c8fb652ff669f3e15e46930bd03bfd63a607b6 H/POTCAR              
   COPYR  = (c) Copyright 15Jun2001 Georg Kresse                                                    
   COPYR  = This file is part of the software VASP. Any use, copying, and all other rights are regul
   COPYR  = If you do not have a valid VASP license, you may not use, copy or distribute this file. 
   VRHFIN =H: ultrasoft test                                                                        
   LEXCH  = PE                                                                                      
   EATOM  =    12.4884 eV,    0.9179 Ry                                                             
                                                                                                    
   TITEL  = PAW_PBE H 15Jun2001                                                                     
   LULTRA =        F    use ultrasoft PP ?                                                          
   IUNSCR =        0    unscreen: 0-lin 1-nonlin 2-no                                               
   RPACOR =    0.000    partial core radius                                                         
   POMASS =    1.000; ZVAL   =    1.000    mass and valenz                                          
   RCORE  =    1.100    outmost cutoff radius                                                       
   RWIGS  =    0.700; RWIGS  =    0.370    wigner-seitz radius (au A)                               
   ENMAX  =  250.000; ENMIN  =  200.000 eV                                                          
   RCLOC  =    0.701    cutoff for local pot                                                        
   LCOR   =        T    correct aug charges                                                         
   LPAW   =        T    paw PP                                                                      
   EAUG   =  400.000                                                                                
   RMAX   =    1.123    core radius for proj-oper                                                   
   RAUG   =    1.200    factor for augmentation sphere                                              
   RDEP   =    1.112    radius for radial grids                                                     
   RDEPT  =    0.926    core radius for aug-charge                                                  
                                                                                                    
   Atomic configuration                                                                             
    2 entries                                                                                       
     n  l   j            E        occ.                                                              
     1  0  0.50        -6.4927   1.0000                                                             
     2  1  0.50        -3.4015   0.0000                                                             
   Description                                                                                      
     l       E           TYP  RCUT    TYP  RCUT                                                     
     0     -6.4927494     23  1.100                                                                 
     0      6.8029130     23  1.100                                                                 
     1     -4.0817478     23  1.100                                                                 
  local pseudopotential read in
  atomic valenz-charges read in
  non local Contribution for L=           0  read in
    real space projection operators read in
  non local Contribution for L=           0  read in
    real space projection operators read in
  non local Contribution for L=           1  read in
    real space projection operators read in
    PAW grid and wavefunctions read in

   number of l-projection  operators is LMAX  =           3
   number of lm-projection operators is LMMAX =           5

 POTCAR:    PAW_PBE Si 05Jan2001                  
   SHA256 =  79d9987ad8750f624c4d6acb2a16d13abf6a777132adc04dc6c8399be72b42bb Si/POTCAR             
   COPYR  = (c) Copyright 05Jan2001 Georg Kresse                                                    
   COPYR  = This file is part of the software VASP. Any use, copying, and all other rights are regul
   COPYR  = If you do not have a valid VASP license, you may not use, copy or distribute this file. 
   VRHFIN =Si: s2p2                                                                                 
   LEXCH  = PE                                                                                      
   EATOM  =   103.0669 eV,    7.5752 Ry                                                             
                                                                                                    
   TITEL  = PAW_PBE Si 05Jan2001                                                                    
   LULTRA =        F    use ultrasoft PP ?                                                          
   IUNSCR =        1    unscreen: 0-lin 1-nonlin 2-no                                               
   RPACOR =    1.500    partial core radius                                                         
   POMASS =   28.085; ZVAL   =    4.000    mass and valenz                                          
   RCORE  =    1.900    outmost cutoff radius                                                       
   RWIGS  =    2.480; RWIGS  =    1.312    wigner-seitz radius (au A)                               
   ENMAX  =  245.345; ENMIN  =  184.009 eV                                                          
   ICORE  =        2    local potential                                                             
   LCOR   =        T    correct aug charges                                                         
   LPAW   =        T    paw PP                                                                      
   EAUG   =  322.069                                                                                
   DEXC   =    0.000                                                                                
   RMAX   =    1.950    core radius for proj-oper                                                   
   RAUG   =    1.300    factor for augmentation sphere                                              
   RDEP   =    1.993    radius for radial grids                                                     
   RDEPT  =    1.837    core radius for aug-charge                                                  
                                                                                                    
   Atomic configuration                                                                             
    6 entries                                                                                       
     n  l   j            E        occ.                                                              
     1  0  0.50     -1785.8828   2.0000                                                             
     2  0  0.50      -139.4969   2.0000                                                             
     2  1  1.50       -95.5546   6.0000                                                             
     3  0  0.50       -10.8127   2.0000                                                             
     3  1  0.50        -4.0811   2.0000                                                             
     3  2  1.50        -4.0817   0.0000                                                             
   Description                                                                                      
     l       E           TYP  RCUT    TYP  RCUT                                                     
     0    -10.8127223     23  1.900                                                                 
     0     -7.6451159     23  1.900                                                                 
     1     -4.0811372     23  1.900                                                                 
     1      2.4879257     23  1.900                                                                 
     2     -4.0817478      7  1.900                                                                 
  local pseudopotential read in
  partial core-charges read in
  partial kinetic energy density read in
  atomic valenz-charges read in
  non local Contribution for L=           0  read in
    real space projection operators read in
  non local Contribution for L=           0  read in
    real space projection operators read in
  non local Contribution for L=           1  read in
    real space projection operators read in
  non local Contribution for L=           1  read in
    real space projection operators read in
    PAW grid and wavefunctions read in

   number of l-projection  operators is LMAX  =           4
   number of lm-projection operators is LMMAX =           8

 -----------------------------------------------------------------------------
|                                                                             |
|               ----> ADVICE to this user running VASP <----                  |
|                                                                             |
|     You have a (more or less) 'large supercell' and for larger cells it     |
|     might be more efficient to use real-space projection operators.         |
|     Therefore, try LREAL= Auto in the INCAR file.                           |
|     Mind: For very accurate calculation, you might also keep the            |
|     reciprocal projection scheme (i.e. LREAL=.FALSE.).                      |
|                                                                             |
 -----------------------------------------------------------------------------

 -----------------------------------------------------------------------------
|                                                                             |
|               ----> ADVICE to this user running VASP <----                  |
|                                                                             |
|     You enforced a specific xc type in the INCAR file but a different       |
|     type was found in the POTCAR file.                                      |
|     I HOPE YOU KNOW WHAT YOU ARE DOING!                                     |
|                                                                             |
 -----------------------------------------------------------------------------

  PAW_PBE H 15Jun2001                   :
 energy of atom  1       EATOM=  -12.4884
 kinetic energy error for atom=    0.0000 (will be added to EATOM!!)
  PAW_PBE Si 05Jan2001                  :
 energy of atom  2       EATOM= -103.0669
 kinetic energy error for atom=    0.0001 (will be added to EATOM!!)


 POSCAR:  H Si
  positions in cartesian coordinates
  No initial velocities read in


 exchange-correlation table for SCAN
   RHO(1)=    0.500       N(1)  =     2000
   RHO(2)=  100.500       N(2)  =     4000



--------------------------------------------------------------------------------------------------------


 ion  position               nearest neighbor table
   1  0.085  0.002  0.297-  29 1.48
   2  0.539  0.914  0.909-  21 2.32  44 2.32  48 2.38
   3  0.382  0.316  0.065-  47 2.33  15 2.37  40 2.38  18 2.56  36 2.97
   4  0.865  0.814  0.047-  12 2.36   6 2.39  31 2.43  38 2.44
   5  0.957  0.113  0.039-  20 2.37  27 2.38  29 2.41  12 2.48
   6  0.900  0.727  0.799-  23 2.27  11 2.33   4 2.39
   7  0.660  0.870  0.274-  21 2.35  31 2.36  39 2.43  50 2.46
   8  0.705  0.400  0.275-  54 2.29  45 2.35  22 2.37  13 2.60
   9  0.988  0.361  0.053-  20 2.27  25 2.36  16 2.44  26 2.47  36 3.12
  10  0.359  0.465  0.470-  34 2.26  18 2.28  53 2.45  57 2.48
  11  0.984  0.591  0.780-   6 2.33  16 2.39  55 2.42  61 2.46
  12  0.857  0.976  0.029-   4 2.36  39 2.36  52 2.38   5 2.48
  13  0.739  0.499  0.542-  61 2.39  19 2.43  51 2.43   8 2.60
  14  0.248  0.227  0.565-  28 2.30  53 2.31  60 2.33  46 2.41
  15  0.465  0.297  0.810-  41 2.31   3 2.37  53 2.40  33 2.40
  16  0.915  0.510  0.011-  11 2.39  22 2.43   9 2.44  59 2.47
  17  0.853  0.966  0.549-  52 2.41  39 2.41  62 2.43  23 2.58
  18  0.352  0.477  0.183-  10 2.28  43 2.29  35 2.49   3 2.56
  19  0.705  0.416  0.801-  41 2.30  22 2.35  13 2.43  42 2.45
  20  0.874  0.254  0.037-   9 2.27  45 2.36   5 2.37  42 2.46
  21  0.526  0.950  0.193-   2 2.32   7 2.35  58 2.38
  22  0.749  0.496  0.047-  19 2.35   8 2.37  56 2.38  16 2.43
  23  0.854  0.788  0.549-   6 2.27  38 2.28  17 2.58  50 2.59
  24  0.119  0.506  0.308-  57 2.34  43 2.35  59 2.43  25 2.49
  25  0.055  0.347  0.323-   9 2.36  46 2.37  24 2.49  30 2.51
  26  0.046  0.312  0.774-  60 2.28  27 2.37  30 2.46   9 2.47  36 2.72
  27  0.045  0.149  0.793-  26 2.37   5 2.38  62 2.48  28 2.56
  28  0.222  0.140  0.804-  14 2.30  47 2.43  27 2.56
  29  0.050  0.098  0.290-   1 1.48  46 2.39  62 2.40   5 2.41
  30  0.938  0.363  0.554-  32 2.28  61 2.36  26 2.46  25 2.51
  31  0.703  0.770  0.053-  44 2.28   7 2.36   4 2.43  56 2.50
  32  0.853  0.231  0.535-  30 2.28  42 2.34  45 2.38  62 2.50
  33  0.530  0.149  0.875-  48 2.33  58 2.40  15 2.40  49 2.42
  34  0.505  0.508  0.537-  10 2.26  51 2.47  54 2.49  41 2.50
  35  0.511  0.509  0.081-  54 2.37  41 2.48  18 2.49  56 2.51
  36  0.195  0.373  0.950-  60 2.23  43 2.25  47 2.27  26 2.72   3 2.97   9 3.12
  37  0.691  0.125  0.190-  58 2.30  45 2.33  39 2.40  49 2.45
  38  0.921  0.741  0.304-  23 2.28  59 2.40   4 2.44
  39  0.775  0.992  0.285-  12 2.36  37 2.40  17 2.41   7 2.43
  40  0.471  0.259  0.295-  54 2.38   3 2.38  53 2.40  58 2.51
  41  0.548  0.433  0.809-  19 2.30  15 2.31  35 2.48  34 2.50
  42  0.775  0.262  0.786-  32 2.34  49 2.35  19 2.45  20 2.46
  43  0.212  0.513  0.065-  36 2.25  18 2.29  24 2.35  55 2.49
  44  0.674  0.848  0.808-  31 2.28   2 2.32  52 2.42  50 2.53
  45  0.775  0.254  0.274-  37 2.33   8 2.35  20 2.36  32 2.38
  46  0.159  0.221  0.308-  47 2.37  25 2.37  29 2.39  14 2.41
  47  0.243  0.235  0.053-  36 2.27   3 2.33  46 2.37  28 2.43
  48  0.461  0.025  0.740-  33 2.33   2 2.38
  49  0.696  0.131  0.881-  52 2.29  42 2.35  33 2.42  37 2.45
  50  0.677  0.770  0.523-  51 2.42   7 2.46  44 2.53  23 2.59
  51  0.629  0.615  0.454-  50 2.42  13 2.43  34 2.47  56 2.56
  52  0.757  0.993  0.793-  49 2.29  12 2.38  17 2.41  44 2.42
  53  0.387  0.304  0.544-  14 2.31  15 2.40  40 2.40  10 2.45
  54  0.548  0.404  0.299-   8 2.29  35 2.37  40 2.38  34 2.49
  55  0.150  0.590  0.809-  57 2.41  11 2.42  43 2.49
  56  0.645  0.613  0.132-  22 2.38  31 2.50  35 2.51  51 2.56
  57  0.202  0.508  0.562-  60 2.30  24 2.34  55 2.41  10 2.48
  58  0.534  0.113  0.171-  37 2.30  21 2.38  33 2.40  40 2.51
  59  0.974  0.585  0.269-  38 2.40  24 2.43  16 2.47  61 2.55
  60  0.183  0.362  0.670-  36 2.23  26 2.28  57 2.30  14 2.33
  61  0.903  0.521  0.539-  30 2.36  13 2.39  11 2.46  59 2.55
  62  0.959  0.094  0.542-  29 2.40  17 2.43  27 2.48  32 2.50

  LATTYP: Found a simple tetragonal cell.
 ALAT       =    14.5237936979
 C/A-ratio  =     0.5448953831
  
  Lattice vectors:
  
 A1 = (  14.5237936979,   0.0000000000,   0.0000000000)
 A2 = (   0.0000000000,  14.5237936979,   0.0000000000)
 A3 = (   0.0000000000,   0.0000000000,   7.9139481305)


Analysis of symmetry for initial positions (statically):
=====================================================================
 Subroutine PRICEL returns:
 Original cell was already a primitive cell.
 

 Routine SETGRP: Setting up the symmetry group for a 
 simple tetragonal supercell.


 Subroutine GETGRP returns: Found  1 space group operations
 (whereof  1 operations were pure point group operations)
 out of a pool of 16 trial point group operations.


The static configuration has the point symmetry C_1 .


Analysis of symmetry for dynamics (positions and initial velocities):
=====================================================================
 Subroutine PRICEL returns:
 Original cell was already a primitive cell.
 

 Routine SETGRP: Setting up the symmetry group for a 
 simple tetragonal supercell.


 Subroutine GETGRP returns: Found  1 space group operations
 (whereof  1 operations were pure point group operations)
 out of a pool of 16 trial point group operations.


The dynamic configuration has the point symmetry C_1 .


 Subroutine INISYM returns: Found  1 space group operations
 (whereof  1 operations are pure point group operations),
 and found     1 'primitive' translations


----------------------------------------------------------------------------------------

                                     Primitive cell                                     

  volume of cell :    1669.3728

  direct lattice vectors                    reciprocal lattice vectors
    14.523793698  0.000000000  0.000000000     0.068852534  0.000000000  0.000000000
     0.000000000 14.523793698  0.000000000     0.000000000  0.068852534  0.000000000
     0.000000000  0.000000000  7.913948131     0.000000000  0.000000000  0.126359180

  length of vectors
    14.523793698 14.523793698  7.913948131     0.068852534  0.068852534  0.126359180

  position of ions in fractional coordinates (direct lattice)
     0.084813240  0.002340780  0.297273872
     0.539195210  0.914106898  0.908862414
     0.381575924  0.315542901  0.065093174
     0.865008156  0.813747444  0.046529746
     0.957353174  0.113496517  0.038752592
     0.900143604  0.726676530  0.798739124
     0.660059637  0.869979309  0.273820344
     0.705456179  0.399868665  0.275073827
     0.988364356  0.360865770  0.053197215
     0.359415736  0.465124343  0.470377104
     0.984178122  0.590546807  0.779759975
     0.856704540  0.975723030  0.029288794
     0.739476216  0.498560510  0.541738451
     0.248006139  0.227043985  0.565304438
     0.465273753  0.296787471  0.810457675
     0.915070833  0.510200720  0.010906326
     0.852890110  0.965594823  0.549218914
     0.352065039  0.476947012  0.182965566
     0.705125686  0.416015273  0.801191756
     0.874275707  0.253954998  0.037170069
     0.526415492  0.950295790  0.193091991
     0.749205079  0.495628770  0.046614154
     0.854129455  0.788079219  0.548770339
     0.119136917  0.506015174  0.307602471
     0.055208096  0.347276346  0.323478238
     0.045854066  0.312014209  0.774107929
     0.045440607  0.149265409  0.793079497
     0.221659717  0.140063956  0.803674714
     0.050174150  0.098288369  0.290006955
     0.937737087  0.362738559  0.554447657
     0.703252897  0.769950347  0.052538378
     0.853392733  0.230552022  0.534915055
     0.530423398  0.148901867  0.874936237
     0.504810944  0.508170259  0.536555197
     0.510731573  0.509214752  0.080819837
     0.195174213  0.372504603  0.949925357
     0.691072884  0.125088530  0.189721992
     0.921446578  0.740612282  0.303906465
     0.774570352  0.992047966  0.284803484
     0.470876972  0.259224282  0.295193999
     0.547519482  0.432603225  0.809153648
     0.774969697  0.262320581  0.786366033
     0.212468592  0.512846723  0.065148898
     0.674259095  0.848097973  0.808304514
     0.775176255  0.254125064  0.273537299
     0.159287583  0.221465553  0.308298710
     0.242890396  0.234984748  0.052967241
     0.461126076  0.024565276  0.739806466
     0.696092234  0.130543716  0.880756341
     0.677345754  0.770232643  0.522811109
     0.629064981  0.614963982  0.454285262
     0.756737546  0.992908623  0.792651139
     0.387077930  0.303647249  0.543992699
     0.548115745  0.403702374  0.299416923
     0.150021409  0.590426315  0.809378567
     0.645446375  0.613447160  0.132068088
     0.201929335  0.508470456  0.561794180
     0.533704221  0.113347107  0.170708726
     0.973767618  0.585384933  0.268549903
     0.183257905  0.362490690  0.670110533
     0.902601639  0.520811584  0.538789228
     0.959067602  0.094480824  0.542470070

  ion indices of the primitive-cell ions
   primitive index   ion index
                 1           1
                 2           2
                 3           3
                 4           4
                 5           5
                 6           6
                 7           7
                 8           8
                 9           9
                10          10
                11          11
                12          12
                13          13
                14          14
                15          15
                16          16
                17          17
                18          18
                19          19
                20          20
                21          21
                22          22
                23          23
                24          24
                25          25
                26          26
                27          27
                28          28
                29          29
                30          30
                31          31
                32          32
                33          33
                34          34
                35          35
                36          36
                37          37
                38          38
                39          39
                40          40
                41          41
                42          42
                43          43
                44          44
                45          45
                46          46
                47          47
                48          48
                49          49
                50          50
                51          51
                52          52
                53          53
                54          54
                55          55
                56          56
                57          57
                58          58
                59          59
                60          60
                61          61
                62          62

----------------------------------------------------------------------------------------


 -----------------------------------------------------------------------------
|                                                                             |
|           W    W    AA    RRRRR   N    N  II  N    N   GGGG   !!!           |
|           W    W   A  A   R    R  NN   N  II  NN   N  G    G  !!!           |
|           W    W  A    A  R    R  N N  N  II  N N  N  G       !!!           |
|           W WW W  AAAAAA  RRRRR   N  N N  II  N  N N  G  GGG   !            |
|           WW  WW  A    A  R   R   N   NN  II  N   NN  G    G                |
|           W    W  A    A  R    R  N    N  II  N    N   GGGG   !!!           |
|                                                                             |
|     The requested file  could not be found or opened for reading            |
|     k-point information. Automatic k-point generation is used as a          |
|     fallback, which may lead to unwanted results.                           |
|                                                                             |
 -----------------------------------------------------------------------------



Automatic generation of k-mesh.
 Grid dimensions derived from KSPACING:
 generate k-points for:    2    2    4

 Generating k-lattice:

  Cartesian coordinates                     Fractional coordinates (reciprocal lattice)
     0.034426267  0.000000000  0.000000000     0.500000000  0.000000000  0.000000000
     0.000000000  0.034426267  0.000000000     0.000000000  0.500000000  0.000000000
     0.000000000  0.000000000  0.031589795     0.000000000  0.000000000  0.250000000

  Length of vectors
     0.034426267  0.034426267  0.031589795

  Shift w.r.t. Gamma in fractional coordinates (k-lattice)
     0.000000000  0.000000000  0.000000000

 
 Subroutine IBZKPT returns following result:
 ===========================================
 
 Found     12 irreducible k-points:
 
 Following reciprocal coordinates:
            Coordinates               Weight
  0.000000  0.000000  0.000000      1.000000
  0.500000  0.000000  0.000000      1.000000
  0.000000  0.500000  0.000000      1.000000
  0.500000  0.500000  0.000000      1.000000
  0.000000  0.000000  0.250000      2.000000
  0.500000  0.000000  0.250000      2.000000
  0.000000  0.500000  0.250000      2.000000
  0.500000  0.500000  0.250000      2.000000
  0.000000  0.000000  0.500000      1.000000
  0.500000  0.000000  0.500000      1.000000
  0.000000  0.500000  0.500000      1.000000
  0.500000  0.500000  0.500000      1.000000
 
 Following cartesian coordinates:
            Coordinates               Weight
  0.000000  0.000000  0.000000      1.000000
  0.034426  0.000000  0.000000      1.000000
  0.000000  0.034426  0.000000      1.000000
  0.034426  0.034426  0.000000      1.000000
  0.000000  0.000000  0.031590      2.000000
  0.034426  0.000000  0.031590      2.000000
  0.000000  0.034426  0.031590      2.000000
  0.034426  0.034426  0.031590      2.000000
  0.000000  0.000000  0.063180      1.000000
  0.034426  0.000000  0.063180      1.000000
  0.000000  0.034426  0.063180      1.000000
  0.034426  0.034426  0.063180      1.000000
 


--------------------------------------------------------------------------------------------------------




 Dimension of arrays:
   k-points           NKPTS =     12   k-points in BZ     NKDIM =     12   number of bands    NBANDS=    160
   number of dos      NEDOS =   2000   number of ions     NIONS =     62
   non local maximal  LDIM  =      4   non local SUM 2l+1 LMDIM =      8
   total plane-waves  NPLWV = ******
   max r-space proj   IRMAX =      1   max aug-charges    IRDMAX= 407155
   dimension x,y,z NGX =   168 NGY =  168 NGZ =   90
   dimension x,y,z NGXF=   336 NGYF=  336 NGZF=  180
   support grid    NGXF=   672 NGYF=  672 NGZF=  360
   ions per type =               1  61
   NGX,Y,Z   is equivalent  to a cutoff of  19.23, 19.23, 18.91 a.u.
   NGXF,Y,Z  is equivalent  to a cutoff of  38.46, 38.46, 37.81 a.u.

 SYSTEM =  a-Si SPC                                
 POSCAR =   H Si                                   

 Startparameter for this run:
   NWRITE =      2    write-flag & timer
   PREC   = accura    normal or accurate (medium, high low for compatibility)
   ISTART =      1    job   : 0-new  1-cont  2-samecut
   ICHARG =      1    charge: 1-file 2-atom 10-const
   ISPIN  =      1    spin polarized calculation?
   LNONCOLLINEAR =      F non collinear calculations
   LSORBIT =      F    spin-orbit coupling
   INIWAV =      1    electr: 0-lowe 1-rand  2-diag
   LASPH  =      T    aspherical Exc in radial PAW
 Electronic Relaxation 1
   ENCUT  = 1200.0 eV  88.20 Ry    9.39 a.u.  41.02 41.02 22.35*2*pi/ulx,y,z
   ENINI  = 1200.0     initial cutoff
   ENAUG  =  400.0 eV  augmentation charge cutoff
   NELM   =    150;   NELMIN=  2; NELMDL=  0     # of ELM steps 
   EDIFF  = 0.1E-05   stopping-criterion for ELM
   LREAL  =      F    real-space projection
   NLSPLINE    = F    spline interpolate recip. space projectors
   LCOMPAT=      F    compatible to vasp.4.4
   GGA_COMPAT  = T    GGA compatible to vasp.4.4-vasp.4.6
   LMAXPAW     = -100 max onsite density
   LMAXMIX     =    2 max onsite mixed and CHGCAR
   VOSKOWN=      0    Vosko Wilk Nusair interpolation
   ROPT   =    0.00000   0.00000
 Ionic relaxation
   EDIFFG = -.1E-01   stopping-criterion for IOM
   NSW    =      0    number of steps for IOM
   NBLOCK =      1;   KBLOCK =      1    inner block; outer block 
   IBRION =     -1    ionic relax: 0-MD 1-quasi-New 2-CG
   NFREE  =      0    steps in history (QN), initial steepest desc. (CG)
   ISIF   =      2    stress and relaxation
   IWAVPR =     10    prediction:  0-non 1-charg 2-wave 3-comb
   ISYM   =      1    0-nonsym 1-usesym 2-fastsym
   LCORR  =      T    Harris-Foulkes like correction to forces

   POTIM  = 0.5000    time-step for ionic-motion
   TEIN   =    0.0    initial temperature
   TEBEG  =    0.0;   TEEND  =   0.0 temperature during run
   SMASS  =  -3.00    Nose mass-parameter (am)
   estimated Nose-frequenzy (Omega)   =  0.10E-29 period in steps = 0.13E+47 mass=  -0.482E-26a.u.
   SCALEE = 1.0000    scale energy and forces
   NPACO  =    256;   APACO  = 10.0  distance and # of slots for P.C.
   PSTRESS=    0.0 pullay stress

  Mass of Ions in am
   POMASS =   1.00 28.09
  Ionic Valenz
   ZVAL   =   1.00  4.00
  Atomic Wigner-Seitz radii
   RWIGS  =  -1.00 -1.00
  virtual crystal weights 
   VCA    =   1.00  1.00
   NELECT =     245.0000    total number of electrons
   NUPDOWN=      -1.0000    fix difference up-down

 DOS related values:
   EMIN   =  10.00;   EMAX   =-10.00  energy-range for DOS
   EFERMI =   0.00;   METHOD = LEGACY      
   ISMEAR =     0;   SIGMA  =   0.10  broadening in eV -4-tet -1-fermi 0-gaus
   EFERMI_NEDOS =   21; number of points for ismear=-14 and -15

 Electronic relaxation 2 (details)
   IALGO  =     38    algorithm
   LDIAG  =      F    sub-space diagonalisation (order eigenvalues)
   LSUBROT=      F    optimize rotation matrix (better conditioning)
   TURBO    =      0    0=normal 1=particle mesh
   IRESTART =      0    0=no restart 2=restart with 2 vectors
   NREBOOT  =      0    no. of reboots
   NMIN     =      0    reboot dimension
   EREF     =   0.00    reference energy to select bands
   IMIX   =      4    mixing-type and parameters
     AMIX     =   0.40;   BMIX     =  1.00
     AMIX_MAG =   1.60;   BMIX_MAG =  1.00
     AMIN     =   0.10
     WC   =   100.;   INIMIX=   1;  MIXPRE=   1;  MAXMIX= -45

 Intra band minimization:
   WEIMIN = 0.0000     energy-eigenvalue tresh-hold
   EBREAK =  0.16E-08  absolut break condition
   DEPER  =   0.30     relativ break condition  

   TIME   =   0.40     timestep for ELM

  volume/ion in A,a.u.               =      26.93       181.70
  Fermi-wavevector in a.u.,A,eV,Ry     =   0.863533  1.631841 10.145725  0.745690
  Thomas-Fermi vector in A             =   1.981497

 Write flags
   LWAVE        =      F    write WAVECAR
   LDOWNSAMPLE  =      F    k-point downsampling of WAVECAR
   LCHARG       =      F    write CHGCAR
   LVTOT        =      F    write LOCPOT, total local potential
   LVHAR        =      F    write LOCPOT, Hartree potential only
   WRT_POTENTIAL= false  ! write potential to hdf5 file
   LELF         =      F    write electronic localiz. function (ELF)
   LORBIT       =     11    0 simple, 1 ext, 2 COOP (PROOUT), +10 PAW based schemes


 Python interface
   PLUGINS active      =      F    recompile with -DPLUGINS to activate

 Dipole corrections
   LMONO      =      F    monopole corrections only (constant potential shift)
   LDIPOL     =      F    correct potential (dipole corrections)
   IDIPOL     =      0    1-x, 2-y, 3-z, 4-all directions 
   EPSILON    =  1.0000000 bulk dielectric constant
   LVACPOTAV  =      F  vacuum potentials using an averaging scheme for the charge density
   VACPOTFLAT =  0.1000000 required flatness to determine vacuum potential

Coulomb truncation method
  LTRUNCATE          =      F  Coulomb kernel truncation to be used
  IDIMENSIONALITY    =      3  Dimensionality of cutoff (0 molecules / 2 surfaces)
  ISURFACE           =     -1  Direction of surface normal
  LCOARSEN           =      F  Coarsen the charge grid before padding, preferred


 Exchange correlation treatment:
   METAGGA = SCAN    functional components
   XC_C    = 1    coefficients multiplying the functional components
   LIBXC   =     F    Libxc                    
   VOSKOWN =     0    Vosko Wilk Nusair interpolation
   LHFCALC =     F    Hartree Fock is set to
   LHFONE  =     F    Hartree Fock one center treatment
   AEXX    =    0.0000 exact exchange contribution

 Parameters of functionals:
   SCAN:
     P1 =  0.000000E+00
     P2 =  0.000000E+00
     P3 =  0.000000E+00

 Accuracy and mixing parameters for tau-dependent meta-GGA functionals:
   LMAXTAU = 6
   LMIXTAU = T

 Van der Waals corrections
   IVDW    =     0    specifies the selected vdW correction

 Linear response parameters
   LEPSILON=     F    determine dielectric tensor
   LRPA    =     F    only Hartree local field effects (RPA)
   LNABLA  =     F    use nabla operator in PAW spheres
   LVEL    =     F    velocity operator in full k-point grid
   CSHIFT  =0.1000    complex shift for real part using Kramers Kronig
   OMEGAMAX=  -1.0    maximum frequency
   DEG_THRESHOLD= 0.2000000E-02 threshold for treating states as degnerate
   RTIME   =   -0.100 relaxation time in fs
  (WPLASMAI=    0.000 imaginary part of plasma frequency in eV, 0.658/RTIME)
   DFIELD  = 0.0000000 0.0000000 0.0000000 field for delta impulse in time

  Optional k-point grid parameters
   LKPOINTS_OPT  =     F    use optional k-point grid
   KPOINTS_OPT_MODE=     1    mode for optional k-point grid

 Orbital magnetization related:
   ORBITALMAG=     F  switch on orbital magnetization
   LCHIMAG   =     F  perturbation theory with respect to B field
   DQ        =  0.001000  dq finite difference perturbation B field
   LLRAUG    =     F  two centre corrections for induced B field
   LBONE     =     F  B-component reconstruction in AE one-centre
   LVGVCALC  =     T  calculate vGv susceptibility
   LVGVAPPL  =     F  apply vGv susceptibility instead of pGv for G=0

 Random number generation:
   RANDOM_GENERATOR = DEFAULT
   PCG_SEED         = not used


--------------------------------------------------------------------------------------------------------


 Static calculation
 charge density and potential will be updated during run
 non-spin polarized calculation
 Variant of blocked Davidson
 perform Loewdin sub-space diagonalisation
    ordering is kept fixed
    before iterative eigenvector-optimisation
 modified Broyden-mixing scheme, WC =      100.0
 initial mixing is a Kerker type mixing with AMIX =  0.4000 and BMIX =      1.0000
 Hartree-type preconditioning will be used
 using additional bands           37
 reciprocal scheme for non local part
 use partial core corrections
 calculate Harris-corrections to forces   (improved forces if not selfconsistent)
 use gradient corrections 
 use of overlap-Matrix (Vanderbilt PP)
 Gauss-broadening in eV      SIGMA  =   0.10


--------------------------------------------------------------------------------------------------------


  energy-cutoff  :     1200.00
  volume of cell :     1669.37
      direct lattice vectors                 reciprocal lattice vectors
    14.523793698  0.000000000  0.000000000     0.068852534  0.000000000  0.000000000
     0.000000000 14.523793698  0.000000000     0.000000000  0.068852534  0.000000000
     0.000000000  0.000000000  7.913948131     0.000000000  0.000000000  0.126359180

  length of vectors
    14.523793698 14.523793698  7.913948131     0.068852534  0.068852534  0.126359180



 old parameters found on file WAVECAR:
  energy-cutoff  :     1200.00
  volume of cell :     1669.37
      direct lattice vectors                 reciprocal lattice vectors
    14.523793698  0.000000000  0.000000000     0.068852534  0.000000000  0.000000000
     0.000000000 14.523793698  0.000000000     0.000000000  0.068852534  0.000000000
     0.000000000  0.000000000  7.913948131     0.000000000  0.000000000  0.126359180

  length of vectors


 k-points in units of 2pi/SCALE and weight: read from INCAR                         
   0.00000000  0.00000000  0.00000000       0.062
   0.03442627  0.00000000  0.00000000       0.062
   0.00000000  0.03442627  0.00000000       0.062
   0.03442627  0.03442627  0.00000000       0.062
   0.00000000  0.00000000  0.03158980       0.125
   0.03442627  0.00000000  0.03158980       0.125
   0.00000000  0.03442627  0.03158980       0.125
   0.03442627  0.03442627  0.03158980       0.125
   0.00000000  0.00000000  0.06317959       0.062
   0.03442627  0.00000000  0.06317959       0.062
   0.00000000  0.03442627  0.06317959       0.062
   0.03442627  0.03442627  0.06317959       0.062

 k-points in reciprocal lattice and weights: read from INCAR                         
   0.00000000  0.00000000  0.00000000       0.062
   0.50000000  0.00000000  0.00000000       0.062
   0.00000000  0.50000000  0.00000000       0.062
   0.50000000  0.50000000  0.00000000       0.062
   0.00000000  0.00000000  0.25000000       0.125
   0.50000000  0.00000000  0.25000000       0.125
   0.00000000  0.50000000  0.25000000       0.125
   0.50000000  0.50000000  0.25000000       0.125
   0.00000000  0.00000000  0.50000000       0.062
   0.50000000  0.00000000  0.50000000       0.062
   0.00000000  0.50000000  0.50000000       0.062
   0.50000000  0.50000000  0.50000000       0.062

 position of ions in fractional coordinates (direct lattice) 
   0.08481324  0.00234078  0.29727387
   0.53919521  0.91410690  0.90886241
   0.38157592  0.31554290  0.06509317
   0.86500816  0.81374744  0.04652975
   0.95735317  0.11349652  0.03875259
   0.90014360  0.72667653  0.79873912
   0.66005964  0.86997931  0.27382034
   0.70545618  0.39986867  0.27507383
   0.98836436  0.36086577  0.05319721
   0.35941574  0.46512434  0.47037710
   0.98417812  0.59054681  0.77975998
   0.85670454  0.97572303  0.02928879
   0.73947622  0.49856051  0.54173845
   0.24800614  0.22704399  0.56530444
   0.46527375  0.29678747  0.81045767
   0.91507083  0.51020072  0.01090633
   0.85289011  0.96559482  0.54921891
   0.35206504  0.47694701  0.18296557
   0.70512569  0.41601527  0.80119176
   0.87427571  0.25395500  0.03717007
   0.52641549  0.95029579  0.19309199
   0.74920508  0.49562877  0.04661415
   0.85412946  0.78807922  0.54877034
   0.11913692  0.50601517  0.30760247
   0.05520810  0.34727635  0.32347824
   0.04585407  0.31201421  0.77410793
   0.04544061  0.14926541  0.79307950
   0.22165972  0.14006396  0.80367471
   0.05017415  0.09828837  0.29000696
   0.93773709  0.36273856  0.55444766
   0.70325290  0.76995035  0.05253838
   0.85339273  0.23055202  0.53491506
   0.53042340  0.14890187  0.87493624
   0.50481094  0.50817026  0.53655520
   0.51073157  0.50921475  0.08081984
   0.19517421  0.37250460  0.94992536
   0.69107288  0.12508853  0.18972199
   0.92144658  0.74061228  0.30390646
   0.77457035  0.99204797  0.28480348
   0.47087697  0.25922428  0.29519400
   0.54751948  0.43260323  0.80915365
   0.77496970  0.26232058  0.78636603
   0.21246859  0.51284672  0.06514890
   0.67425910  0.84809797  0.80830451
   0.77517625  0.25412506  0.27353730
   0.15928758  0.22146555  0.30829871
   0.24289040  0.23498475  0.05296724
   0.46112608  0.02456528  0.73980647
   0.69609223  0.13054372  0.88075634
   0.67734575  0.77023264  0.52281111
   0.62906498  0.61496398  0.45428526
   0.75673755  0.99290862  0.79265114
   0.38707793  0.30364725  0.54399270
   0.54811574  0.40370237  0.29941692
   0.15002141  0.59042632  0.80937857
   0.64544638  0.61344716  0.13206809
   0.20192933  0.50847046  0.56179418
   0.53370422  0.11334711  0.17070873
   0.97376762  0.58538493  0.26854990
   0.18325790  0.36249069  0.67011053
   0.90260164  0.52081158  0.53878923
   0.95906760  0.09448082  0.54247007

 position of ions in cartesian coordinates  (Angst):
   1.23181000  0.03399700  2.35261000
   7.83116000 13.27630000  7.19269000
   5.54193000  4.58288000  0.51514400
  12.56320000 11.81870000  0.36823400
  13.90440000  1.64840000  0.30668600
  13.07350000 10.55410000  6.32118000
   9.58657000 12.63540000  2.16700000
  10.24590000  5.80761000  2.17692000
  14.35480000  5.24114000  0.42100000
   5.22008000  6.75537000  3.72254000
  14.29400000  8.57698000  6.17098000
  12.44260000 14.17120000  0.23179000
  10.74000000  7.24099000  4.28729000
   3.60199000  3.29754000  4.47379000
   6.75754000  4.31048000  6.41392000
  13.29030000  7.41005000  0.08631210
  12.38720000 14.02410000  4.34649000
   5.11332000  6.92708000  1.44798000
  10.24110000  6.04212000  6.34059000
  12.69780000  3.68839000  0.29416200
   7.64555000 13.80190000  1.52812000
  10.88130000  7.19841000  0.36890200
  12.40520000 11.44590000  4.34294000
   1.73032000  7.34926000  2.43435000
   0.80183100  5.04377000  2.55999000
   0.66597500  4.53163000  6.12625000
   0.65997000  2.16790000  6.27639000
   3.21934000  2.03426000  6.36024000
   0.72871900  1.42752000  2.29510000
  13.61950000  5.26834000  4.38787000
  10.21390000 11.18260000  0.41578600
  12.39450000  3.34849000  4.23329000
   7.70376000  2.16262000  6.92420000
   7.33177000  7.38056000  4.24627000
   7.41776000  7.39573000  0.63960400
   2.83467000  5.41018000  7.51766000
  10.03700000  1.81676000  1.50145000
  13.38290000 10.75650000  2.40510000
  11.24970000 14.40830000  2.25392000
   6.83892000  3.76492000  2.33615000
   7.95206000  6.28304000  6.40360000
  11.25550000  3.80989000  6.22326000
   3.08585000  7.44848000  0.51558500
   9.79280000 12.31760000  6.39688000
  11.25850000  3.69086000  2.16476000
   2.31346000  3.21652000  2.43986000
   3.52769000  3.41287000  0.41918000
   6.69730000  0.35678100  5.85479000
  10.10990000  1.89599000  6.97026000
   9.83763000 11.18670000  4.13750000
   9.13641000  8.93161000  3.59519000
  10.99070000 14.42080000  6.27300000
   5.62184000  4.41011000  4.30513000
   7.96072000  5.86329000  2.36957000
   2.17888000  8.57523000  6.40538000
   9.37433000  8.90958000  1.04518000
   2.93278000  7.38492000  4.44601000
   7.75141000  1.64623000  1.35098000
  14.14280000  8.50201000  2.12529000
   2.66160000  5.26474000  5.30322000
  13.10920000  7.56416000  4.26395000
  13.92930000  1.37222000  4.29308000



--------------------------------------------------------------------------------------------------------


 k-point     1 :   0.0000 0.0000 0.0000  plane waves:  157597
 k-point     2 :   0.5000 0.0000 0.0000  plane waves:  157554
 k-point     3 :   0.0000 0.5000 0.0000  plane waves:  157554
 k-point     4 :   0.5000 0.5000 0.0000  plane waves:  157596
 k-point     5 :   0.0000 0.0000 0.2500  plane waves:  157481
 k-point     6 :   0.5000 0.0000 0.2500  plane waves:  157570
 k-point     7 :   0.0000 0.5000 0.2500  plane waves:  157570
 k-point     8 :   0.5000 0.5000 0.2500  plane waves:  157608
 k-point     9 :   0.0000 0.0000 0.5000  plane waves:  157548
 k-point    10 :   0.5000 0.0000 0.5000  plane waves:  157576
 k-point    11 :   0.0000 0.5000 0.5000  plane waves:  157576
 k-point    12 :   0.5000 0.5000 0.5000  plane waves:  157752

 maximum and minimum number of plane-waves per node :      9914     9783

 maximum number of plane-waves:    157752
 maximum index in each direction: 
   IXMAX=   41   IYMAX=   41   IZMAX=   22
   IXMIN=  -41   IYMIN=  -41   IZMIN=  -22


 parallel 3D FFT for wavefunctions:
    minimum data exchange during FFTs selected (reduces bandwidth)
 parallel 3D FFT for charge:
    minimum data exchange during FFTs selected (reduces bandwidth)


 total amount of memory used by VASP MPI-rank0   147423. kBytes
=======================================================================

   base                                    :      30000. kBytes
   nonl-proj                               :      24936. kBytes
   fftplans                                :      30763. kBytes
   grid                                    :      23712. kBytes
   one-center                              :         12. kBytes
   wavefun                                 :      38000. kBytes

     INWAV:  cpu time      6.6413: real time      6.6431
 Broyden mixing: mesh for mixing (old mesh)
   NGX = 83   NGY = 83   NGZ = 45
  (NGX  =336   NGY  =336   NGZ  =180)
  gives a total of 310005 points

 initial charge density was supplied:
 number of electron     244.9999999 magnetization 
 keeping initial charge density in first step


--------------------------------------------------------------------------------------------------------


 Maximum index for augmentation-charges        11338 (set IRDMAX)


--------------------------------------------------------------------------------------------------------


 First call to EWALD:  gamma=   0.149
 Maximum number of real-space cells   2x   2x   4
 Maximum number of reciprocal cells   3x   3x   2

    FEWALD:  cpu time      0.0113: real time      0.0117


--------------------------------------- Ionic step        1  -------------------------------------------




--------------------------------------- Iteration      1(   1)  ---------------------------------------


    POTLOK:  cpu time      0.5385: real time      0.5392
    SETDIJ:  cpu time      0.9417: real time      0.9426
    EDDIAG:  cpu time     13.6624: real time     13.6721
     EDDAV:  cpu time     62.2633: real time     62.3182
       DOS:  cpu time      0.0117: real time      0.0121
    CHARGE:  cpu time      4.9615: real time      4.9653
    MIXING:  cpu time      0.0209: real time      0.0213
    --------------------------------------------
      LOOP:  cpu time     82.4001: real time     82.4708

 eigenvalue-minimisations  :  3840
 total energy-change (2. order) :-0.6308320E+03  (-0.6981784E+00)
 number of electron     244.9999999 magnetization 
 augmentation part      -13.6500296 magnetization 

 Broyden mixing:
  rms(total) = 0.97015E+00    rms(broyden)= 0.42639E+02
  rms(prec ) = 0.10634E+01
  weight for this iteration     100.00
  WARNING: grid for Broyden might be to small

 Free energy of the ion-electron system (eV)
  ---------------------------------------------------
  alpha Z        PSCENC =        75.69952667
  Ewald energy   TEWEN  =     -2635.69697917
  -Hartree energ DENC   =     -4120.17060531
  -exchange      EXHF   =         0.00000000
  -V(xc)+E(xc)   XCENC  =      -299.14478683
  PAW double counting   =     21825.70915100   -21217.13815137
  entropy T*S    EENTRO =        -0.10389612
  eigenvalues    EBANDS =      -559.55157783
  atomic energy  EATOM  =      6299.56534444
  Solvation  Ediel_sol  =         0.00000000
  ---------------------------------------------------
  free energy    TOTEN  =      -630.83197453 eV

  energy without entropy =     -630.72807841  energy(sigma->0) =     -630.78002647


--------------------------------------------------------------------------------------------------------




--------------------------------------- Iteration      1(   2)  ---------------------------------------


    POTLOK:  cpu time      0.5315: real time      0.5515
    SETDIJ:  cpu time      0.9327: real time      0.9340
    EDDIAG:  cpu time     13.7700: real time     13.7812
     EDDAV:  cpu time     62.3182: real time     62.3704
       DOS:  cpu time      0.0037: real time      0.0038
    CHARGE:  cpu time      4.9269: real time      4.9309
    MIXING:  cpu time      0.0131: real time      0.0133
    --------------------------------------------
      LOOP:  cpu time     82.4962: real time     82.5850

 eigenvalue-minimisations  :  3848
 total energy-change (2. order) : 0.4385736E+02  (-0.6263524E+00)
 number of electron     244.9999999 magnetization 
 augmentation part      -13.5935307 magnetization 

 Broyden mixing:
  rms(total) = 0.65005E+00    rms(broyden)= 0.24626E+02
  rms(prec ) = 0.69798E+00
  weight for this iteration     100.00
  WARNING: grid for Broyden might be to small

 eigenvalues of (default mixing * dielectric matrix)
  average eigenvalue GAMMA=   0.6339
  0.6339

 Free energy of the ion-electron system (eV)
  ---------------------------------------------------
  alpha Z        PSCENC =        75.69952667
  Ewald energy   TEWEN  =     -2635.69697917
  -Hartree energ DENC   =     -4113.82098657
  -exchange      EXHF   =         0.00000000
  -V(xc)+E(xc)   XCENC  =      -292.22955898
  PAW double counting   =     26229.02951862   -25620.29806190
  entropy T*S    EENTRO =        -0.10064774
  eigenvalues    EBANDS =      -529.12276610
  atomic energy  EATOM  =      6299.56534444
  Solvation  Ediel_sol  =         0.00000000
  ---------------------------------------------------
  free energy    TOTEN  =      -586.97461071 eV

  energy without entropy =     -586.87396297  energy(sigma->0) =     -586.92428684


--------------------------------------------------------------------------------------------------------




--------------------------------------- Iteration      1(   3)  ---------------------------------------


    POTLOK:  cpu time      0.5269: real time      0.5543
    SETDIJ:  cpu time      0.9323: real time      0.9329
    EDDIAG:  cpu time     13.8263: real time     13.8387
     EDDAV:  cpu time     62.3940: real time     62.4480
       DOS:  cpu time      0.0035: real time      0.0035
    CHARGE:  cpu time      4.9651: real time      4.9693
    MIXING:  cpu time      0.0103: real time      0.0103
    --------------------------------------------
      LOOP:  cpu time     82.6585: real time     82.7569

 eigenvalue-minimisations  :  3840
 total energy-change (2. order) :-0.2403206E+01  (-0.5265961E+00)
 number of electron     244.9999999 magnetization 
 augmentation part      -13.5475105 magnetization 

 Broyden mixing:
  rms(total) = 0.39627E+00    rms(broyden)= 0.16459E+02
  rms(prec ) = 0.43241E+00
  weight for this iteration     100.00
  WARNING: grid for Broyden might be to small

 eigenvalues of (default mixing * dielectric matrix)
  average eigenvalue GAMMA=   0.6961
  0.7688  0.6234

 Free energy of the ion-electron system (eV)
  ---------------------------------------------------
  alpha Z        PSCENC =        75.69952667
  Ewald energy   TEWEN  =     -2635.69697917
  -Hartree energ DENC   =     -4115.16892526
  -exchange      EXHF   =         0.00000000
  -V(xc)+E(xc)   XCENC  =      -295.82186260
  PAW double counting   =     29652.47480575   -29043.80223561
  entropy T*S    EENTRO =        -0.09884486
  eigenvalues    EBANDS =      -526.52864573
  atomic energy  EATOM  =      6299.56534444
  Solvation  Ediel_sol  =         0.00000000
  ---------------------------------------------------
  free energy    TOTEN  =      -589.37781636 eV

  energy without entropy =     -589.27897150  energy(sigma->0) =     -589.32839393


--------------------------------------------------------------------------------------------------------




--------------------------------------- Iteration      1(   4)  ---------------------------------------


    POTLOK:  cpu time      0.5238: real time      0.5526
    SETDIJ:  cpu time      0.9298: real time      0.9301
    EDDIAG:  cpu time     13.7500: real time     13.7624
     EDDAV:  cpu time     64.6698: real time     64.7266
       DOS:  cpu time      0.0037: real time      0.0037
    CHARGE:  cpu time      5.0434: real time      5.0473
    MIXING:  cpu time      0.0105: real time      0.0105
    --------------------------------------------
      LOOP:  cpu time     84.9311: real time     85.0333

 eigenvalue-minimisations  :  4104
 total energy-change (2. order) :-0.2452946E+00  (-0.5892015E-01)
 number of electron     244.9999999 magnetization 
 augmentation part      -13.5398347 magnetization 

 Broyden mixing:
  rms(total) = 0.39173E-01    rms(broyden)= 0.15658E+01
  rms(prec ) = 0.61488E-01
  weight for this iteration     100.00
  WARNING: grid for Broyden might be to small

 eigenvalues of (default mixing * dielectric matrix)
  average eigenvalue GAMMA=   0.9787
  1.6198  0.6924  0.6238

 Free energy of the ion-electron system (eV)
  ---------------------------------------------------
  alpha Z        PSCENC =        75.69952667
  Ewald energy   TEWEN  =     -2635.69697917
  -Hartree energ DENC   =     -4118.29654737
  -exchange      EXHF   =         0.00000000
  -V(xc)+E(xc)   XCENC  =      -296.17654058
  PAW double counting   =     35261.70399855   -34653.07999240
  entropy T*S    EENTRO =        -0.10264321
  eigenvalues    EBANDS =      -523.23927789
  atomic energy  EATOM  =      6299.56534444
  Solvation  Ediel_sol  =         0.00000000
  ---------------------------------------------------
  free energy    TOTEN  =      -589.62311096 eV

  energy without entropy =     -589.52046775  energy(sigma->0) =     -589.57178935


--------------------------------------------------------------------------------------------------------




--------------------------------------- Iteration      1(   5)  ---------------------------------------


    POTLOK:  cpu time      0.5299: real time      0.5538
    SETDIJ:  cpu time      0.9310: real time      0.9313
    EDDIAG:  cpu time     13.8055: real time     13.8167
     EDDAV:  cpu time     71.2643: real time     71.3271
       DOS:  cpu time      0.0038: real time      0.0038
    CHARGE:  cpu time      5.0067: real time      5.0107
    MIXING:  cpu time      0.0104: real time      0.0104
    --------------------------------------------
      LOOP:  cpu time     91.5516: real time     91.6538

 eigenvalue-minimisations  :  4792
 total energy-change (2. order) :-0.2829392E-01  (-0.5873073E-02)
 number of electron     244.9999999 magnetization 
 augmentation part      -13.5396328 magnetization 

 Broyden mixing:
  rms(total) = 0.39504E-01    rms(broyden)= 0.47360E+00
  rms(prec ) = 0.69537E-01
  weight for this iteration     100.00
  WARNING: grid for Broyden might be to small

 eigenvalues of (default mixing * dielectric matrix)
  average eigenvalue GAMMA=   1.0498
  2.1516  0.8441  0.6138  0.5898

 Free energy of the ion-electron system (eV)
  ---------------------------------------------------
  alpha Z        PSCENC =        75.69952667
  Ewald energy   TEWEN  =     -2635.69697917
  -Hartree energ DENC   =     -4118.43275582
  -exchange      EXHF   =         0.00000000
  -V(xc)+E(xc)   XCENC  =      -296.99223451
  PAW double counting   =     35019.73536190   -34411.09327973
  entropy T*S    EENTRO =        -0.09835749
  eigenvalues    EBANDS =      -522.33803118
  atomic energy  EATOM  =      6299.56534444
  Solvation  Ediel_sol  =         0.00000000
  ---------------------------------------------------
  free energy    TOTEN  =      -589.65140488 eV

  energy without entropy =     -589.55304739  energy(sigma->0) =     -589.60222613


--------------------------------------------------------------------------------------------------------




--------------------------------------- Iteration      1(   6)  ---------------------------------------


    POTLOK:  cpu time      0.5255: real time      0.5526
    SETDIJ:  cpu time      0.9305: real time      0.9309
    EDDIAG:  cpu time     13.7678: real time     13.7790
     EDDAV:  cpu time     65.9046: real time     65.9602
       DOS:  cpu time      0.0035: real time      0.0035
    CHARGE:  cpu time      5.0483: real time      5.0521
    MIXING:  cpu time      0.0109: real time      0.0109
    --------------------------------------------
      LOOP:  cpu time     86.1911: real time     86.2891

 eigenvalue-minimisations  :  4208
 total energy-change (2. order) :-0.4535007E-03  (-0.1937022E-02)
 number of electron     244.9999999 magnetization 
 augmentation part      -13.5412998 magnetization 

 Broyden mixing:
  rms(total) = 0.20411E-01    rms(broyden)= 0.25823E+00
  rms(prec ) = 0.25063E-01
  weight for this iteration     100.00
  WARNING: grid for Broyden might be to small

 eigenvalues of (default mixing * dielectric matrix)
  average eigenvalue GAMMA=   1.0229
  2.5432  0.9187  0.6337  0.6337  0.3852

 Free energy of the ion-electron system (eV)
  ---------------------------------------------------
  alpha Z        PSCENC =        75.69952667
  Ewald energy   TEWEN  =     -2635.69697917
  -Hartree energ DENC   =     -4118.61907805
  -exchange      EXHF   =         0.00000000
  -V(xc)+E(xc)   XCENC  =      -297.23682460
  PAW double counting   =     34950.11246687   -34341.46248500
  entropy T*S    EENTRO =        -0.10118228
  eigenvalues    EBANDS =      -521.91264726
  atomic energy  EATOM  =      6299.56534444
  Solvation  Ediel_sol  =         0.00000000
  ---------------------------------------------------
  free energy    TOTEN  =      -589.65185838 eV

  energy without entropy =     -589.55067610  energy(sigma->0) =     -589.60126724


--------------------------------------------------------------------------------------------------------




--------------------------------------- Iteration      1(   7)  ---------------------------------------


    POTLOK:  cpu time      0.5318: real time      0.5543
    SETDIJ:  cpu time      0.9296: real time      0.9299
    EDDIAG:  cpu time     13.7660: real time     13.7772
     EDDAV:  cpu time     64.0891: real time     64.1489
       DOS:  cpu time      0.0040: real time      0.0040
    CHARGE:  cpu time      5.1267: real time      5.1310
    MIXING:  cpu time      0.0110: real time      0.0110
    --------------------------------------------
      LOOP:  cpu time     84.4583: real time     84.5563

 eigenvalue-minimisations  :  4032
 total energy-change (2. order) :-0.9643695E-03  (-0.8650469E-03)
 number of electron     244.9999999 magnetization 
 augmentation part      -13.5399314 magnetization 

 Broyden mixing:
  rms(total) = 0.11451E-01    rms(broyden)= 0.15817E+00
  rms(prec ) = 0.14332E-01
  weight for this iteration     100.00
  WARNING: grid for Broyden might be to small

 eigenvalues of (default mixing * dielectric matrix)
  average eigenvalue GAMMA=   1.0199
  2.5726  1.1019  0.7783  0.6427  0.6322  0.3915

 Free energy of the ion-electron system (eV)
  ---------------------------------------------------
  alpha Z        PSCENC =        75.69952667
  Ewald energy   TEWEN  =     -2635.69697917
  -Hartree energ DENC   =     -4118.92904269
  -exchange      EXHF   =         0.00000000
  -V(xc)+E(xc)   XCENC  =      -297.20031347
  PAW double counting   =     34925.39095823   -34316.73128817
  entropy T*S    EENTRO =        -0.10178315
  eigenvalues    EBANDS =      -521.64924543
  atomic energy  EATOM  =      6299.56534444
  Solvation  Ediel_sol  =         0.00000000
  ---------------------------------------------------
  free energy    TOTEN  =      -589.65282275 eV

  energy without entropy =     -589.55103959  energy(sigma->0) =     -589.60193117


--------------------------------------------------------------------------------------------------------




--------------------------------------- Iteration      1(   8)  ---------------------------------------


    POTLOK:  cpu time      0.5320: real time      0.5526
    SETDIJ:  cpu time      0.9305: real time      0.9317
    EDDIAG:  cpu time     13.7923: real time     13.8043
     EDDAV:  cpu time     67.5168: real time     67.5768
       DOS:  cpu time      0.0039: real time      0.0039
    CHARGE:  cpu time      4.9830: real time      4.9868
    MIXING:  cpu time      0.0110: real time      0.0110
    --------------------------------------------
      LOOP:  cpu time     87.7694: real time     87.8671

 eigenvalue-minimisations  :  4424
 total energy-change (2. order) :-0.4953484E-03  (-0.1513081E-03)
 number of electron     244.9999999 magnetization 
 augmentation part      -13.5392185 magnetization 

 Broyden mixing:
  rms(total) = 0.46177E-02    rms(broyden)= 0.30487E-01
  rms(prec ) = 0.61176E-02
  weight for this iteration     100.00
  WARNING: grid for Broyden might be to small

 eigenvalues of (default mixing * dielectric matrix)
  average eigenvalue GAMMA=   1.0628
  2.5695  1.4932  0.9725  0.7731  0.6335  0.6235  0.3746

 Free energy of the ion-electron system (eV)
  ---------------------------------------------------
  alpha Z        PSCENC =        75.69952667
  Ewald energy   TEWEN  =     -2635.69697917
  -Hartree energ DENC   =     -4119.04083073
  -exchange      EXHF   =         0.00000000
  -V(xc)+E(xc)   XCENC  =      -297.14449956
  PAW double counting   =     34935.89712393   -34327.23027605
  entropy T*S    EENTRO =        -0.10102630
  eigenvalues    EBANDS =      -521.60170133
  atomic energy  EATOM  =      6299.56534444
  Solvation  Ediel_sol  =         0.00000000
  ---------------------------------------------------
  free energy    TOTEN  =      -589.65331809 eV

  energy without entropy =     -589.55229180  energy(sigma->0) =     -589.60280495


--------------------------------------------------------------------------------------------------------




--------------------------------------- Iteration      1(   9)  ---------------------------------------


    POTLOK:  cpu time      0.5277: real time      0.5514
    SETDIJ:  cpu time      0.9297: real time      0.9306
    EDDIAG:  cpu time     13.7872: real time     13.7987
     EDDAV:  cpu time     66.5847: real time     66.6419
       DOS:  cpu time      0.0039: real time      0.0039
    CHARGE:  cpu time      4.9226: real time      4.9268
    MIXING:  cpu time      0.0111: real time      0.0111
    --------------------------------------------
      LOOP:  cpu time     86.7672: real time     86.8646

 eigenvalue-minimisations  :  4312
 total energy-change (2. order) :-0.2131887E-03  (-0.3935865E-04)
 number of electron     244.9999999 magnetization 
 augmentation part      -13.5391693 magnetization 

 Broyden mixing:
  rms(total) = 0.17733E-02    rms(broyden)= 0.62719E-01
  rms(prec ) = 0.26201E-02
  weight for this iteration     100.00
  WARNING: grid for Broyden might be to small

 eigenvalues of (default mixing * dielectric matrix)
  average eigenvalue GAMMA=   1.0685
  2.5448  2.0142  0.9613  0.3686  0.7027  0.7027  0.6301  0.6235

 Free energy of the ion-electron system (eV)
  ---------------------------------------------------
  alpha Z        PSCENC =        75.69952667
  Ewald energy   TEWEN  =     -2635.69697917
  -Hartree energ DENC   =     -4118.98495232
  -exchange      EXHF   =         0.00000000
  -V(xc)+E(xc)   XCENC  =      -297.13837236
  PAW double counting   =     34953.88212723   -34345.21200882
  entropy T*S    EENTRO =        -0.10133192
  eigenvalues    EBANDS =      -521.66688504
  atomic energy  EATOM  =      6299.56534444
  Solvation  Ediel_sol  =         0.00000000
  ---------------------------------------------------
  free energy    TOTEN  =      -589.65353128 eV

  energy without entropy =     -589.55219936  energy(sigma->0) =     -589.60286532


--------------------------------------------------------------------------------------------------------




--------------------------------------- Iteration      1(  10)  ---------------------------------------


    POTLOK:  cpu time      0.5254: real time      0.5546
    SETDIJ:  cpu time      0.9312: real time      0.9317
    EDDIAG:  cpu time     13.7636: real time     13.7760
     EDDAV:  cpu time     64.4382: real time     64.4981
       DOS:  cpu time      0.0037: real time      0.0037
    CHARGE:  cpu time      4.9219: real time      4.9262
    MIXING:  cpu time      0.0115: real time      0.0115
    --------------------------------------------
      LOOP:  cpu time     84.5952: real time     84.7017

 eigenvalue-minimisations  :  4072
 total energy-change (2. order) :-0.5085036E-04  (-0.2145310E-04)
 number of electron     244.9999999 magnetization 
 augmentation part      -13.5392326 magnetization 

 Broyden mixing:
  rms(total) = 0.90337E-03    rms(broyden)= 0.29834E-01
  rms(prec ) = 0.14344E-02
  weight for this iteration     100.00
  WARNING: grid for Broyden might be to small

 eigenvalues of (default mixing * dielectric matrix)
  average eigenvalue GAMMA=   1.1478
  2.6487  2.6487  1.1289  0.9792  0.3694  0.7355  0.6320  0.6320  0.5555

 Free energy of the ion-electron system (eV)
  ---------------------------------------------------
  alpha Z        PSCENC =        75.69952667
  Ewald energy   TEWEN  =     -2635.69697917
  -Hartree energ DENC   =     -4118.90852618
  -exchange      EXHF   =         0.00000000
  -V(xc)+E(xc)   XCENC  =      -297.14700360
  PAW double counting   =     34953.44893869   -34344.77738577
  entropy T*S    EENTRO =        -0.10134543
  eigenvalues    EBANDS =      -521.73615179
  atomic energy  EATOM  =      6299.56534444
  Solvation  Ediel_sol  =         0.00000000
  ---------------------------------------------------
  free energy    TOTEN  =      -589.65358213 eV

  energy without entropy =     -589.55223671  energy(sigma->0) =     -589.60290942


--------------------------------------------------------------------------------------------------------




--------------------------------------- Iteration      1(  11)  ---------------------------------------


    POTLOK:  cpu time      0.5273: real time      0.5564
    SETDIJ:  cpu time      0.9317: real time      0.9321
    EDDIAG:  cpu time     13.7902: real time     13.8029
     EDDAV:  cpu time     64.2421: real time     64.2970
       DOS:  cpu time      0.0037: real time      0.0037
    CHARGE:  cpu time      4.9967: real time      5.0006
    MIXING:  cpu time      0.0115: real time      0.0115
    --------------------------------------------
      LOOP:  cpu time     84.5033: real time     84.6041

 eigenvalue-minimisations  :  4048
 total energy-change (2. order) :-0.1055002E-03  (-0.1014132E-04)
 number of electron     244.9999999 magnetization 
 augmentation part      -13.5392565 magnetization 

 Broyden mixing:
  rms(total) = 0.48293E-03    rms(broyden)= 0.24295E-01
  rms(prec ) = 0.93624E-03
  weight for this iteration     100.00
  WARNING: grid for Broyden might be to small

 eigenvalues of (default mixing * dielectric matrix)
  average eigenvalue GAMMA=   1.1612
  2.9673  2.6282  1.2487  1.0397  0.8716  0.3684  0.7142  0.6316  0.6172  0.5250

 Free energy of the ion-electron system (eV)
  ---------------------------------------------------
  alpha Z        PSCENC =        75.69952667
  Ewald energy   TEWEN  =     -2635.69697917
  -Hartree energ DENC   =     -4118.83400381
  -exchange      EXHF   =         0.00000000
  -V(xc)+E(xc)   XCENC  =      -297.15324162
  PAW double counting   =     34949.47236857   -34340.79998547
  entropy T*S    EENTRO =        -0.10132950
  eigenvalues    EBANDS =      -521.80538775
  atomic energy  EATOM  =      6299.56534444
  Solvation  Ediel_sol  =         0.00000000
  ---------------------------------------------------
  free energy    TOTEN  =      -589.65368763 eV

  energy without entropy =     -589.55235813  energy(sigma->0) =     -589.60302288


--------------------------------------------------------------------------------------------------------




--------------------------------------- Iteration      1(  12)  ---------------------------------------


    POTLOK:  cpu time      0.5297: real time      0.5525
    SETDIJ:  cpu time      0.9300: real time      0.9312
    EDDIAG:  cpu time     13.7753: real time     13.7868
     EDDAV:  cpu time     64.3040: real time     64.3572
       DOS:  cpu time      0.0038: real time      0.0038
    CHARGE:  cpu time      5.0059: real time      5.0101
    MIXING:  cpu time      0.0116: real time      0.0116
    --------------------------------------------
      LOOP:  cpu time     84.5603: real time     84.6532

 eigenvalue-minimisations  :  4032
 total energy-change (2. order) :-0.8431756E-04  (-0.7683932E-05)
 number of electron     244.9999999 magnetization 
 augmentation part      -13.5393327 magnetization 

 Broyden mixing:
  rms(total) = 0.29157E-03    rms(broyden)= 0.92499E-02
  rms(prec ) = 0.60990E-03
  weight for this iteration     100.00
  WARNING: grid for Broyden might be to small

 eigenvalues of (default mixing * dielectric matrix)
  average eigenvalue GAMMA=   1.1899
  3.1487  2.6451  1.5923  1.1304  1.0193  0.3681  0.7884  0.5086  0.6559  0.6268
  0.6056

 Free energy of the ion-electron system (eV)
  ---------------------------------------------------
  alpha Z        PSCENC =        75.69952667
  Ewald energy   TEWEN  =     -2635.69697917
  -Hartree energ DENC   =     -4118.74814325
  -exchange      EXHF   =         0.00000000
  -V(xc)+E(xc)   XCENC  =      -297.16284453
  PAW double counting   =     34948.93402698   -34340.26153102
  entropy T*S    EENTRO =        -0.10132763
  eigenvalues    EBANDS =      -521.88184444
  atomic energy  EATOM  =      6299.56534444
  Solvation  Ediel_sol  =         0.00000000
  ---------------------------------------------------
  free energy    TOTEN  =      -589.65377195 eV

  energy without entropy =     -589.55244432  energy(sigma->0) =     -589.60310814


--------------------------------------------------------------------------------------------------------




--------------------------------------- Iteration      1(  13)  ---------------------------------------


    POTLOK:  cpu time      0.5341: real time      0.5591
    SETDIJ:  cpu time      0.9316: real time      0.9321
    EDDIAG:  cpu time     13.7802: real time     13.7919
     EDDAV:  cpu time     66.4848: real time     66.5447
       DOS:  cpu time      0.0037: real time      0.0037
    CHARGE:  cpu time      4.9906: real time      4.9947
    MIXING:  cpu time      0.0123: real time      0.0123
    --------------------------------------------
      LOOP:  cpu time     86.7374: real time     86.8385

 eigenvalue-minimisations  :  4288
 total energy-change (2. order) :-0.5318184E-04  (-0.4031380E-05)
 number of electron     244.9999999 magnetization 
 augmentation part      -13.5393930 magnetization 

 Broyden mixing:
  rms(total) = 0.18816E-03    rms(broyden)= 0.57003E-02
  rms(prec ) = 0.39159E-03
  weight for this iteration     100.00
  WARNING: grid for Broyden might be to small

 eigenvalues of (default mixing * dielectric matrix)
  average eigenvalue GAMMA=   1.2194
  3.3791  2.6488  1.9990  1.2326  1.0225  0.8858  0.3681  0.7575  0.4961  0.6317
  0.6317  0.5800

 Free energy of the ion-electron system (eV)
  ---------------------------------------------------
  alpha Z        PSCENC =        75.69952667
  Ewald energy   TEWEN  =     -2635.69697917
  -Hartree energ DENC   =     -4118.67836841
  -exchange      EXHF   =         0.00000000
  -V(xc)+E(xc)   XCENC  =      -297.16928522
  PAW double counting   =     34949.82388110   -34341.15176479
  entropy T*S    EENTRO =        -0.10133298
  eigenvalues    EBANDS =      -521.94484678
  atomic energy  EATOM  =      6299.56534444
  Solvation  Ediel_sol  =         0.00000000
  ---------------------------------------------------
  free energy    TOTEN  =      -589.65382513 eV

  energy without entropy =     -589.55249215  energy(sigma->0) =     -589.60315864


--------------------------------------------------------------------------------------------------------




--------------------------------------- Iteration      1(  14)  ---------------------------------------


    POTLOK:  cpu time      0.5546: real time      0.5554
    SETDIJ:  cpu time      0.9282: real time      0.9285
    EDDIAG:  cpu time     13.8192: real time     13.8303
     EDDAV:  cpu time     64.4739: real time     64.5346
       DOS:  cpu time      0.0038: real time      0.0038
    CHARGE:  cpu time      5.0927: real time      5.0970
    MIXING:  cpu time      0.0121: real time      0.0122
    --------------------------------------------
      LOOP:  cpu time     84.8845: real time     84.9617

 eigenvalue-minimisations  :  4056
 total energy-change (2. order) :-0.3155462E-04  (-0.3342153E-05)
 number of electron     244.9999999 magnetization 
 augmentation part      -13.5394095 magnetization 

 Broyden mixing:
  rms(total) = 0.13052E-03    rms(broyden)= 0.63411E-02
  rms(prec ) = 0.22513E-03
  weight for this iteration     100.00
  WARNING: grid for Broyden might be to small

 eigenvalues of (default mixing * dielectric matrix)
  average eigenvalue GAMMA=   1.2459
  3.6216  2.5825  2.4698  1.2914  1.0462  0.9848  0.3681  0.8209  0.4948  0.6893
  0.6369  0.6177  0.5725

 Free energy of the ion-electron system (eV)
  ---------------------------------------------------
  alpha Z        PSCENC =        75.69952667
  Ewald energy   TEWEN  =     -2635.69697917
  -Hartree energ DENC   =     -4118.62083574
  -exchange      EXHF   =         0.00000000
  -V(xc)+E(xc)   XCENC  =      -297.17100257
  PAW double counting   =     34949.40794035   -34340.73609440
  entropy T*S    EENTRO =        -0.10132915
  eigenvalues    EBANDS =      -522.00042711
  atomic energy  EATOM  =      6299.56534444
  Solvation  Ediel_sol  =         0.00000000
  ---------------------------------------------------
  free energy    TOTEN  =      -589.65385669 eV

  energy without entropy =     -589.55252754  energy(sigma->0) =     -589.60319211


--------------------------------------------------------------------------------------------------------




--------------------------------------- Iteration      1(  15)  ---------------------------------------


    POTLOK:  cpu time      0.5507: real time      0.5517
    SETDIJ:  cpu time      0.9322: real time      0.9326
    EDDIAG:  cpu time     13.7556: real time     13.7670
     EDDAV:  cpu time     65.1617: real time     65.2177
       DOS:  cpu time      0.0053: real time      0.0053
    CHARGE:  cpu time      5.0140: real time      5.0175
    MIXING:  cpu time      0.0125: real time      0.0125
    --------------------------------------------
      LOOP:  cpu time     85.4318: real time     85.5043

 eigenvalue-minimisations  :  4128
 total energy-change (2. order) :-0.8553117E-05  (-0.8873299E-06)
 number of electron     244.9999999 magnetization 
 augmentation part      -13.5394031 magnetization 

 Broyden mixing:
  rms(total) = 0.87738E-04    rms(broyden)= 0.46035E-02
  rms(prec ) = 0.14019E-03
  weight for this iteration     100.00
  WARNING: grid for Broyden might be to small

 eigenvalues of (default mixing * dielectric matrix)
  average eigenvalue GAMMA=   1.2812
  3.8574  2.6590  2.6590  1.3836  1.3016  1.0371  0.9289  0.3681  0.7748  0.4977
  0.6549  0.6281  0.6211  0.5660

 Free energy of the ion-electron system (eV)
  ---------------------------------------------------
  alpha Z        PSCENC =        75.69952667
  Ewald energy   TEWEN  =     -2635.69697917
  -Hartree energ DENC   =     -4118.60023510
  -exchange      EXHF   =         0.00000000
  -V(xc)+E(xc)   XCENC  =      -297.17004072
  PAW double counting   =     34949.38580710   -34340.71403983
  entropy T*S    EENTRO =        -0.10132500
  eigenvalues    EBANDS =      -522.02192363
  atomic energy  EATOM  =      6299.56534444
  Solvation  Ediel_sol  =         0.00000000
  ---------------------------------------------------
  free energy    TOTEN  =      -589.65386524 eV

  energy without entropy =     -589.55254024  energy(sigma->0) =     -589.60320274


--------------------------------------------------------------------------------------------------------




--------------------------------------- Iteration      1(  16)  ---------------------------------------


    POTLOK:  cpu time      0.5534: real time      0.5537
    SETDIJ:  cpu time      0.9281: real time      0.9293
    EDDIAG:  cpu time     13.7770: real time     13.7886
     EDDAV:  cpu time     58.2570: real time     58.3082
       DOS:  cpu time      0.0036: real time      0.0036
    CHARGE:  cpu time      4.9504: real time      4.9547
    MIXING:  cpu time      0.0126: real time      0.0126
    --------------------------------------------
      LOOP:  cpu time     78.4820: real time     78.5506

 eigenvalue-minimisations  :  3376
 total energy-change (2. order) :-0.2702134E-05  (-0.3553799E-06)
 number of electron     244.9999999 magnetization 
 augmentation part      -13.5394089 magnetization 

 Broyden mixing:
  rms(total) = 0.38197E-04    rms(broyden)= 0.17461E-02
  rms(prec ) = 0.61543E-04
  weight for this iteration     100.00
  WARNING: grid for Broyden might be to small

 eigenvalues of (default mixing * dielectric matrix)
  average eigenvalue GAMMA=   1.2900
  4.0334  2.7134  2.7134  1.6968  1.1990  1.0748  1.0018  0.8670  0.3681  0.7406
  0.4968  0.6327  0.6327  0.6146  0.5651

 Free energy of the ion-electron system (eV)
  ---------------------------------------------------
  alpha Z        PSCENC =        75.69952667
  Ewald energy   TEWEN  =     -2635.69697917
  -Hartree energ DENC   =     -4118.58833588
  -exchange      EXHF   =         0.00000000
  -V(xc)+E(xc)   XCENC  =      -297.17038122
  PAW double counting   =     34949.68850346   -34341.01678461
  entropy T*S    EENTRO =        -0.10132758
  eigenvalues    EBANDS =      -522.03343406
  atomic energy  EATOM  =      6299.56534444
  Solvation  Ediel_sol  =         0.00000000
  ---------------------------------------------------
  free energy    TOTEN  =      -589.65386794 eV

  energy without entropy =     -589.55254036  energy(sigma->0) =     -589.60320415


--------------------------------------------------------------------------------------------------------




--------------------------------------- Iteration      1(  17)  ---------------------------------------


    POTLOK:  cpu time      0.5346: real time      0.5599
    SETDIJ:  cpu time      0.9303: real time      0.9312
    EDDIAG:  cpu time     13.8046: real time     13.8153
     EDDAV:  cpu time     55.3478: real time     55.3981
       DOS:  cpu time      0.0055: real time      0.0055
    --------------------------------------------
      LOOP:  cpu time     70.6233: real time     70.7105

 eigenvalue-minimisations  :  3080
 total energy-change (2. order) :-0.6282826E-06  (-0.6544590E-07)
 number of electron     244.9999999 magnetization 
 augmentation part      -13.5394089 magnetization 

 Free energy of the ion-electron system (eV)
  ---------------------------------------------------
  alpha Z        PSCENC =        75.69952667
  Ewald energy   TEWEN  =     -2635.69697917
  -Hartree energ DENC   =     -4118.58322185
  -exchange      EXHF   =         0.00000000
  -V(xc)+E(xc)   XCENC  =      -297.17053356
  PAW double counting   =     34949.58869944   -34340.91695930
  entropy T*S    EENTRO =        -0.10132803
  eigenvalues    EBANDS =      -522.03841721
  atomic energy  EATOM  =      6299.56534444
  Solvation  Ediel_sol  =         0.00000000
  ---------------------------------------------------
  free energy    TOTEN  =      -589.65386857 eV

  energy without entropy =     -589.55254054  energy(sigma->0) =     -589.60320456


--------------------------------------------------------------------------------------------------------




 average (electrostatic) potential at core
  the test charge radii are     0.5201  0.9892
  (the norm of the test charge is              1.0000)
       1 -35.5469       2 -89.0474       3 -89.1936       4 -89.4002       5 -89.2725
       6 -89.0371       7 -89.0826       8 -88.9746       9 -89.0848      10 -89.3824
      11 -89.2872      12 -89.2895      13 -89.2258      14 -89.0489      15 -89.1637
      16 -89.1809      17 -89.4573      18 -89.4949      19 -89.2136      20 -89.0383
      21 -88.9519      22 -89.1585      23 -89.3879      24 -89.2384      25 -89.1580
      26 -89.2214      27 -89.2038      28 -89.1338      29 -89.1950      30 -89.1792
      31 -89.3994      32 -89.2032      33 -88.9095      34 -89.4353      35 -89.3769
      36 -89.3588      37 -88.8815      38 -89.3733      39 -89.0401      40 -89.2217
[...]
  Kinetic  1715.65270  1679.96719  1676.10917     2.08706    -0.00021     2.54696
  Fock        0.00000     0.00000     0.00000     0.00000     0.00000     0.00000
  -------------------------------------------------------------------------------------
  Total     -10.90689   -40.63479   -48.12942     0.33608    -1.94885     1.48585
  in kB     -10.46787   -38.99916   -46.19212     0.32256    -1.87040     1.42604
  external pressure =      -31.89 kB  Pullay stress =        0.00 kB


 VOLUME and BASIS-vectors are now :
 -----------------------------------------------------------------------------
  energy-cutoff  :     1200.00
  volume of cell :     1669.37
      direct lattice vectors                 reciprocal lattice vectors
    14.523793698  0.000000000  0.000000000     0.068852534  0.000000000  0.000000000
     0.000000000 14.523793698  0.000000000     0.000000000  0.068852534  0.000000000
     0.000000000  0.000000000  7.913948131     0.000000000  0.000000000  0.126359180

  length of vectors
    14.523793698 14.523793698  7.913948131     0.068852534  0.068852534  0.126359180


 FORCES acting on ions
    electron-ion (+dipol)            ewald-force                    non-local-force                 convergence-correction
 -----------------------------------------------------------------------------------------------
   -.314E+02 0.469E+02 -.736E+00   0.328E+02 -.499E+02 0.700E+00   -.101E+01 0.298E+01 -.164E+00   -.440E-04 0.292E-04 -.374E-05
   0.127E+03 0.715E+02 0.222E+02   -.126E+03 -.677E+02 -.215E+02   -.168E+01 -.228E+01 -.244E+00   0.943E-04 0.196E-05 0.209E-04
   0.739E+01 0.200E+02 0.521E+01   -.676E+01 -.217E+02 -.429E+01   -.863E+00 0.196E+01 -.287E+00   0.585E-04 0.233E-04 0.205E-04
   -.853E+02 0.238E+00 -.130E+01   0.846E+02 -.418E+00 0.851E+00   0.146E+01 -.118E+01 0.654E+00   -.280E-04 -.586E-04 0.749E-04
   -.593E+02 0.946E+02 -.233E+00   0.596E+02 -.925E+02 -.361E-01   -.669E-01 -.252E+01 0.259E+00   -.302E-04 0.169E-04 -.170E-04
   -.699E+02 -.408E+02 -.464E+01   0.694E+02 0.402E+02 0.394E+01   0.719E+00 0.653E+00 0.131E+01   -.567E-04 0.353E-04 0.128E-04
   0.823E+02 0.209E+02 -.314E+02   -.815E+02 -.205E+02 0.295E+02   -.598E+00 -.136E+00 0.245E+01   0.536E-04 0.810E-05 -.117E-04
   0.106E+02 -.677E+01 -.108E+02   -.122E+02 0.652E+01 0.102E+02   0.250E+01 0.660E+00 0.168E+01   0.133E-04 -.386E-05 0.150E-05
   -.242E+02 -.219E+02 -.181E+01   0.216E+02 0.204E+02 0.301E+01   0.251E+01 0.201E+01 -.168E+01   -.655E-04 0.200E-04 0.409E-04
   0.206E+02 -.104E+03 -.234E+02   -.192E+02 0.103E+03 0.226E+02   -.258E+01 0.375E+00 0.165E+01   0.681E-04 -.114E-03 -.206E-04
   -.645E+02 -.894E+02 0.573E+01   0.628E+02 0.891E+02 -.515E+01   0.104E+01 -.260E+00 -.528E+00   -.139E-03 0.413E-05 0.526E-05
   -.814E+02 0.448E+02 0.641E+01   0.783E+02 -.449E+02 -.580E+01   0.316E+01 0.473E+00 -.499E+00   -.282E-04 -.172E-04 0.597E-06
   0.155E+02 -.505E+02 -.971E+01   -.151E+02 0.504E+02 0.932E+01   -.139E+00 -.242E+00 -.304E+00   0.284E-04 -.282E-04 -.227E-04
   -.336E+02 0.115E+03 0.229E+02   0.341E+02 -.113E+03 -.204E+02   -.563E+00 -.197E+01 -.273E+01   0.119E-04 0.178E-04 -.319E-04
   0.148E+02 0.337E+02 0.165E+02   -.137E+02 -.328E+02 -.157E+02   -.121E+01 -.132E+01 -.809E+00   0.757E-04 0.344E-04 0.130E-04
   -.129E+02 -.635E+02 0.284E+01   0.140E+02 0.634E+02 -.308E+01   -.746E+00 0.231E+00 0.124E+01   -.743E-04 -.241E-04 0.778E-04
   -.583E+02 0.439E+02 -.254E+01   0.569E+02 -.433E+02 0.242E+01   0.108E+01 -.555E+00 -.662E-01   -.234E-04 -.405E-04 -.258E-05
   0.761E+01 -.116E+03 0.146E+02   -.755E+01 0.116E+03 -.135E+02   0.142E+01 0.330E+00 -.291E+01   0.624E-04 -.131E-03 -.131E-04
   0.185E+02 -.167E+02 0.931E+01   -.204E+02 0.189E+02 -.876E+01   0.205E+01 -.207E+01 -.114E+01   0.248E-05 -.247E-04 -.332E-05
   -.819E+00 0.229E+02 0.367E+00   0.227E+01 -.218E+02 0.900E+00   -.200E+01 -.160E+01 -.138E+01   -.389E-04 0.300E-04 0.504E-05
   0.139E+03 0.625E+02 -.472E+02   -.138E+03 -.637E+02 0.453E+02   -.166E+01 0.761E+00 0.134E+01   0.736E-04 0.412E-05 -.228E-04
   0.282E+01 -.589E+02 0.985E+01   -.394E+01 0.575E+02 -.936E+01   0.179E+01 0.121E+01 -.369E+00   0.370E-04 -.382E-04 0.263E-04
   -.524E+02 -.167E+02 -.224E+00   0.534E+02 0.146E+02 0.787E+00   -.176E+01 0.290E+01 -.645E+00   -.282E-04 -.383E-04 -.953E-04
   -.422E+02 -.116E+03 -.358E+01   0.423E+02 0.115E+03 0.340E+01   -.769E+00 0.949E+00 0.193E+00   -.116E-03 -.908E-04 -.202E-04
   -.245E+02 0.191E+01 -.798E+01   0.238E+02 -.130E+01 0.728E+01   0.510E+00 0.496E+00 0.708E+00   -.606E-04 0.403E-04 -.232E-04
   -.121E+02 0.104E+02 0.119E+01   0.121E+02 -.117E+02 -.322E+01   -.138E+01 0.145E+01 0.223E+01   -.547E-04 -.149E-04 0.147E-04
   -.603E+02 0.122E+03 0.495E+01   0.599E+02 -.120E+03 -.418E+01   0.107E+01 -.186E+01 -.105E+01   -.581E-04 -.143E-04 0.108E-04
   -.406E+02 0.165E+03 -.424E+01   0.415E+02 -.167E+03 0.360E+01   -.157E+01 0.963E+00 0.122E+01   -.176E-04 -.226E-04 0.137E-04
   -.761E+02 0.108E+03 0.114E+01   0.761E+02 -.110E+03 -.636E+00   -.511E+00 0.242E+01 -.368E+00   -.801E-04 0.558E-04 -.122E-04
   -.803E+01 -.205E+02 0.169E+01   0.743E+01 0.195E+02 -.171E+01   0.249E+01 0.902E+00 -.364E+00   -.613E-04 0.369E-04 -.422E-04
   0.512E+02 0.281E+02 0.480E+01   -.513E+02 -.241E+02 -.484E+01   0.303E+00 -.438E+01 0.690E+00   0.399E-04 0.143E-04 0.766E-05
   0.131E+02 0.511E+02 0.540E+01   -.124E+02 -.488E+02 -.563E+01   -.639E+00 -.274E+01 -.225E+00   -.345E-04 0.377E-04 -.153E-05
   0.554E+02 0.479E+02 0.313E+02   -.560E+02 -.513E+02 -.311E+02   0.663E+00 0.305E+01 -.140E+00   0.777E-04 0.166E-04 0.449E-05
   0.456E+02 -.113E+03 -.296E+02   -.467E+02 0.110E+03 0.289E+02   0.246E+01 0.229E+01 0.104E+01   0.736E-04 -.890E-04 0.937E-05
   0.584E+02 -.116E+03 0.288E+02   -.579E+02 0.113E+03 -.280E+02   -.732E+00 0.271E+01 -.136E+01   0.503E-04 -.738E-04 -.133E-04
   -.256E+02 -.299E+02 -.887E+01   0.286E+02 0.294E+02 0.814E+01   -.305E+01 0.177E-01 0.830E+00   -.460E-05 -.454E-04 0.538E-04
   0.364E+02 0.350E+02 -.365E+02   -.376E+02 -.343E+02 0.359E+02   0.171E+01 -.705E+00 0.436E+00   -.854E-05 0.131E-04 -.268E-04
   -.972E+02 -.430E+02 0.260E+01   0.972E+02 0.440E+02 -.181E+01   0.551E+00 -.114E+01 -.188E+01   -.413E-04 -.187E-05 0.228E-05
   -.610E+00 0.282E+02 -.302E+02   0.999E-01 -.290E+02 0.288E+02   -.215E+00 0.437E+00 0.145E+01   -.350E-04 -.322E-04 -.133E-04
   0.133E+02 0.818E+02 -.227E+02   -.149E+02 -.799E+02 0.221E+02   0.140E+01 -.212E+01 0.532E+00   0.589E-04 0.384E-04 -.272E-05
   0.387E+02 -.576E+02 0.570E+01   -.376E+02 0.554E+02 -.548E+01   -.151E+01 0.283E+01 -.276E+00   0.406E-04 -.385E-04 0.614E-05
   0.322E+02 0.121E+02 0.167E+02   -.313E+02 -.141E+02 -.165E+02   -.828E+00 0.190E+01 0.606E+00   -.306E-04 0.330E-04 0.189E-04
   -.383E+02 -.150E+03 0.686E+01   0.381E+02 0.147E+03 -.557E+01   -.854E+00 0.445E+01 -.142E+01   -.145E-05 -.122E-03 0.357E-04
   0.692E+02 0.306E+02 0.334E+02   -.702E+02 -.300E+02 -.307E+02   -.617E-01 -.600E+00 -.385E+01   0.953E-05 0.322E-05 0.264E-05
   0.237E+02 0.203E+02 -.216E+02   -.240E+02 -.206E+02 0.203E+02   0.170E+00 0.341E+00 0.151E+01   -.203E-04 0.456E-04 -.198E-04
   -.493E+02 0.948E+02 -.230E+01   0.482E+02 -.946E+02 0.199E+01   0.989E+00 -.676E+00 0.587E+00   -.275E-05 0.341E-04 -.113E-04
   -.284E+02 0.114E+03 -.177E+02   0.287E+02 -.111E+03 0.161E+02   -.430E+00 -.373E+01 0.128E+01   0.900E-05 0.332E-04 0.292E-04
   0.101E+03 0.886E+02 0.472E+02   -.102E+03 -.887E+02 -.514E+02   0.450E+00 -.118E+00 0.335E+01   0.607E-04 0.277E-04 0.262E-06
   0.369E+02 0.320E+02 0.337E+02   -.369E+02 -.314E+02 -.324E+02   -.105E+01 -.163E-01 -.679E+00   -.226E-04 0.125E-04 0.210E-04
   0.789E+02 -.532E+01 -.140E+02   -.784E+02 0.665E+01 0.126E+02   0.188E+00 -.419E+00 0.182E+01   0.838E-04 0.682E-05 0.773E-05
   0.704E+02 -.819E+02 -.182E+02   -.688E+02 0.806E+02 0.179E+02   -.113E+01 0.936E+00 -.434E-01   0.976E-04 -.147E-04 0.141E-04
   0.164E+02 0.306E+02 0.326E+02   -.149E+02 -.300E+02 -.314E+02   -.861E+00 -.146E+01 -.142E+01   -.376E-04 -.184E-04 0.148E-04
   -.496E+01 0.443E+02 -.383E+01   0.366E+01 -.451E+02 0.348E+01   0.129E+01 0.526E+00 0.301E-01   0.685E-04 0.128E-04 -.254E-04
   0.207E+02 -.780E+01 -.116E+02   -.189E+02 0.828E+01 0.104E+02   -.135E+01 -.213E+00 0.139E+01   0.348E-04 -.469E-04 -.109E-04
   -.666E+02 -.155E+03 -.277E+01   0.673E+02 0.158E+03 0.181E+01   -.430E+00 -.310E+01 0.830E+00   -.764E-05 0.830E-04 0.176E-04
   0.623E+02 -.804E+02 0.174E+02   -.616E+02 0.781E+02 -.169E+02   -.909E+00 0.239E+01 0.554E-01   0.611E-04 -.167E-05 -.587E-05
   -.447E+02 -.141E+03 -.647E+00   0.433E+02 0.138E+03 0.790E+00   0.183E+01 0.268E+01 0.839E-01   -.595E-05 -.117E-03 -.499E-04
   0.927E+02 0.640E+02 -.445E+02   -.887E+02 -.641E+02 0.414E+02   -.418E+01 0.792E+00 0.326E+01   0.634E-04 0.341E-04 0.476E-05
   -.549E+02 -.960E+02 0.455E+00   0.540E+02 0.947E+02 -.104E+01   0.878E-01 0.707E+00 0.124E+01   -.136E-03 0.237E-04 0.114E-04
   -.348E+02 -.231E+02 0.190E+02   0.351E+02 0.229E+02 -.172E+02   0.249E+00 0.219E+00 -.229E+01   -.152E-04 -.514E-04 -.258E-04
   -.176E+02 -.711E+02 0.150E+01   0.169E+02 0.704E+02 -.185E+01   0.895E+00 0.113E+01 -.206E+00   -.726E-04 -.226E-04 -.711E-04
   -.594E+02 0.919E+02 -.587E+01   0.601E+02 -.915E+02 0.488E+01   -.775E+00 0.432E+00 0.131E+01   -.328E-04 0.151E-04 0.202E-04
 -----------------------------------------------------------------------------------------------
   0.307E+01 -.122E+02 -.794E+01   -.853E-13 -.426E-13 -.355E-14   -.307E+01 0.122E+02 0.794E+01   -.106E-03 -.494E-03 0.388E-06


 POSITION                                       TOTAL-FORCE (eV/Angst)
 -----------------------------------------------------------------------------------
      1.23181      0.03400      2.35261         0.339354     -0.041444     -0.200315
      7.83116     13.27630      7.19269        -0.497501      1.473503      0.518091
      5.54193      4.58288      0.51514        -0.314021      0.300531      0.627531
     12.56320     11.81870      0.36823         0.766581     -1.457273      0.229385
     13.90440      1.64840      0.30669         0.271097     -0.608969     -0.003991
     13.07350     10.55410      6.32118         0.232795      0.094020      0.633322
      9.58657     12.63540      2.16700         0.140135      0.253055      0.624077
     10.24590      5.80761      2.17692         1.113759      0.451328      1.139178
     14.35480      5.24114      0.42100         0.000868      0.645829     -0.596307
      5.22008      6.75537      3.72254        -1.283717     -0.086181      0.864736
     14.29400      8.57698      6.17098        -0.685474     -0.498955      0.050860
     12.44260     14.17120      0.23179         0.171835      0.386084      0.113394
     10.74000      7.24099      4.28729         0.270777     -0.349411     -0.716211
      3.60199      3.29754      4.47379        -0.169204      0.443464     -0.376061
      6.75754      4.31048      6.41392        -0.169591     -0.439224     -0.004346
     13.29030      7.41005      0.08631         0.292547      0.152254      1.106949
     12.38720     14.02410      4.34649        -0.293993      0.064366     -0.204190
      5.11332      6.92708      1.44798         1.540976     -0.479248     -1.955309
     10.24110      6.04212      6.34059         0.301311     -0.016806     -0.656402
     12.69780      3.68839      0.29416        -0.637120     -0.621263     -0.169664
      7.64555     13.80190      1.52812         0.002031     -0.320755     -0.628259
     10.88130      7.19841      0.36890         0.750494     -0.115697      0.105431
     12.40520     11.44590      4.34294        -0.819596      0.968316     -0.119812
      1.73032      7.34926      2.43435        -0.695448     -0.283509      0.021698
      0.80183      5.04377      2.55999        -0.112672      1.155418     -0.011148
      0.66598      4.53163      6.12625        -1.435966      0.286211      0.346566
      0.65997      2.16790      6.27639         0.774945     -0.504452     -0.332298
      3.21934      2.03426      6.36024        -0.812751     -0.645070      0.612219
      0.72872      1.42752      2.29510        -0.488067      0.280232      0.138471
     13.61950      5.26834      4.38787         2.077966     -0.099553     -0.419206
     10.21390     11.18260      0.41579         0.250310     -0.495845      0.674875
     12.39450      3.34849      4.23329        -0.050067     -0.554121     -0.446627
      7.70376      2.16262      6.92420         0.061190     -0.246924      0.099937
      7.33177      7.38056      4.24627         1.524704     -0.243819      0.367312
      7.41776      7.39573      0.63960        -0.168299     -0.054182     -0.575131
      2.83467      5.41018      7.51766        -0.281698     -0.542508      0.091549
     10.03700      1.81676      1.50145         0.597505     -0.107675     -0.188024
     13.38290     10.75650      2.40510         0.433851     -0.296999     -1.200694
     11.24970     14.40830      2.25392        -0.760418     -0.297924      0.037752
      6.83892      3.76492      2.33615        -0.195132     -0.163054     -0.130333
      7.95206      6.28304      6.40360        -0.539219      0.759840     -0.074541
     11.25550      3.80989      6.22326         0.043520     -0.048975      0.844909
      3.08585      7.44848      0.51558        -1.185945      0.952433     -0.196355
      9.79280     12.31760      6.39688        -1.105393     -0.080734     -1.320623
     11.25850      3.69086      2.16476        -0.075395      0.046125      0.221428
      2.31346      3.21652      2.43986        -0.119946     -0.422791      0.300634
      3.52769      3.41287      0.41918        -0.156988     -0.470482     -0.223502
      6.69730      0.35678      5.85479        -0.337785     -0.160198     -0.393386
     10.10990      1.89599      6.97026        -1.064213      0.582195      0.550081
      9.83763     11.18670      4.13750         0.758368      0.889798      0.478285
      9.13641      8.93161      3.59519         0.494703     -0.286098     -0.357568
     10.99070     14.42080      6.27300         0.626192     -0.995152     -0.221028
      5.62184      4.41011      4.30513         0.039141     -0.234049     -0.333186
      7.96072      5.86329      2.36957         0.391024      0.292868      0.282857
      2.17888      8.57523      6.40538         0.224084      0.002233     -0.113924
      9.37433      8.90958      1.04518        -0.144846      0.139783      0.549362
      2.93278      7.38492      4.44601         0.477376      0.174312      0.230141
      7.75141      1.64623      1.35098        -0.278815      0.730049      0.254859
     14.14280      8.50201      2.12529        -0.784537     -0.542153      0.760404
      2.66160      5.26474      5.30322         0.552926     -0.022927     -0.547672
     13.10920      7.56416      4.26395         0.282542      0.469481     -0.546524
     13.92930      1.37222      4.29308        -0.141090      0.840690      0.386340
 -----------------------------------------------------------------------------------
    total drift:                                0.002575     -0.004654     -0.005424


--------------------------------------------------------------------------------------------------------



  FREE ENERGIE OF THE ION-ELECTRON SYSTEM (eV)
  ---------------------------------------------------
  free  energy   TOTEN  =      -589.65386857 eV

  energy  without entropy=     -589.55254054  energy(sigma->0) =     -589.60320456



--------------------------------------------------------------------------------------------------------


    POTLOK:  cpu time      1.4483: real time      1.4493


--------------------------------------------------------------------------------------------------------


     LOOP+:  cpu time   1542.1678: real time   1543.8238
    4ORBIT:  cpu time      0.0000: real time      0.0000



 total charge

# of ion       s       p       d       tot
------------------------------------------
    1        0.568   0.016   0.000   0.584
    2        0.789   0.865   0.000   1.655
    3        0.758   0.903   0.000   1.661
    4        0.752   0.880   0.000   1.632
    5        0.746   0.906   0.000   1.652
    6        0.766   0.906   0.000   1.672
    7        0.755   0.898   0.000   1.653
    8        0.752   0.925   0.000   1.678
    9        0.750   0.931   0.000   1.681
   10        0.755   0.927   0.000   1.683
   11        0.746   0.890   0.000   1.635
   12        0.752   0.908   0.000   1.660
   13        0.755   0.864   0.000   1.620
   14        0.756   0.954   0.000   1.710
   15        0.744   0.941   0.000   1.685
   16        0.754   0.881   0.000   1.635
   17        0.754   0.863   0.000   1.617
   18        0.759   0.897   0.000   1.657
   19        0.743   0.931   0.000   1.674
   20        0.757   0.933   0.000   1.689
   21        0.783   0.861   0.000   1.643
   22        0.746   0.924   0.000   1.670
   23        0.750   0.890   0.000   1.640
   24        0.752   0.904   0.000   1.656
   25        0.760   0.887   0.000   1.647
   26        0.758   0.916   0.000   1.674
   27        0.753   0.879   0.000   1.632
   28        0.802   0.805   0.000   1.606
   29        0.737   0.951   0.000   1.687
   30        0.764   0.905   0.000   1.669
   31        0.755   0.901   0.000   1.656
   32        0.750   0.928   0.000   1.677
   33        0.759   0.914   0.000   1.673
   34        0.759   0.881   0.000   1.640
   35        0.761   0.855   0.000   1.615
   36        0.804   0.906   0.000   1.710
   37        0.759   0.932   0.000   1.690
   38        0.774   0.862   0.000   1.636
   39        0.751   0.916   0.000   1.667
   40        0.756   0.892   0.000   1.648
   41        0.748   0.924   0.000   1.673
   42        0.746   0.914   0.000   1.660
   43        0.751   0.954   0.000   1.705
   44        0.757   0.906   0.000   1.663
   45        0.746   0.952   0.000   1.699
   46        0.744   0.915   0.000   1.659
   47        0.757   0.949   0.000   1.706
   48        0.859   0.743   0.000   1.602
   49        0.759   0.921   0.000   1.680
   50        0.762   0.831   0.000   1.593
   51        0.750   0.852   0.000   1.601
   52        0.754   0.922   0.000   1.676
   53        0.753   0.908   0.000   1.660
   54        0.756   0.927   0.000   1.683
   55        0.799   0.800   0.000   1.599
   56        0.753   0.838   0.000   1.592
   57        0.751   0.915   0.000   1.666
   58        0.756   0.884   0.000   1.641
   59        0.747   0.865   0.000   1.613
   60        0.777   0.984   0.000   1.761
   61        0.756   0.870   0.000   1.626
   62        0.750   0.870   0.000   1.620
--------------------------------------------------
tot         46.874  54.773   0.000 101.647


 total amount of memory used by VASP MPI-rank0   147423. kBytes
=======================================================================

   base                                    :      30000. kBytes
   nonl-proj                               :      24936. kBytes
   fftplans                                :      30763. kBytes
   grid                                    :      23712. kBytes
   one-center                              :         12. kBytes
   wavefun                                 :      38000. kBytes

  
  
 General timing and accounting informations for this job:
 ========================================================
  
                  Total CPU time used (sec):     1590.974
                            User time (sec):     1584.544
                          System time (sec):        6.431
                         Elapsed time (sec):     1592.616
  
                   Maximum memory used (kb):      315780.
                   Average memory used (kb):          N/A
  
                          Minor page faults:       231958
                          Major page faults:         1135
                 Voluntary context switches:         2542
