 vasp.6.5.0 16Dec24 (build Jan 20 2025 08:32:48) complex                         
 executed on        HPECrayEX_GCC date 2025.07.22  12:57:16
 running  128 mpi-ranks, with    1 threads/rank, on    1 nodes
 distrk:  each k-point on  128 cores,    1 groups
 distr:  one band on NCORE=  16 cores,    8 groups


--------------------------------------------------------------------------------------------------------


 INCAR:
   SYSTEM = a-Si SPC
   NCORE = 16
   ISTART = 1
   ICHARG = 1
   ISPIN = 1
   ISYM = 1
   EDIFF = 1E-6
   NELM = 150
   EDIFFG = -0.01
   NSW = 0
   ISIF = 2
   IBRION = -1
   PREC = Accurate
   ENCUT = 1200
   KSPACING = 0.23
   KGAMMA = .TRUE.
   METAGGA = SCAN
   LASPH = .TRUE.
   LDIAG = .FALSE.
   LMIXTAU = .TRUE.
   ADDGRID = .TRUE.
   ALGO = Normal
   ISMEAR = 0
   SIGMA = 0.1
   LORBIT = 11
   NEDOS = 2000
   LWAVE = .FALSE.
   LCHARG = .FALSE.

 POTCAR:    PAW_PBE H 15Jun2001                   
 POTCAR:    PAW_PBE Si 05Jan2001                  
 POTCAR:    PAW_PBE H 15Jun2001                   
   SHA256 =  030f79b5d3ab3cf0e668861823c8fb652ff669f3e15e46930bd03bfd63a607b6 H/POTCAR              
   COPYR  = (c) Copyright 15Jun2001 Georg Kresse                                                    
   COPYR  = This file is part of the software VASP. Any use, copying, and all other rights are regul
   COPYR  = If you do not have a valid VASP license, you may not use, copy or distribute this file. 
   VRHFIN =H: ultrasoft test                                                                        
   LEXCH  = PE                                                                                      
   EATOM  =    12.4884 eV,    0.9179 Ry                                                             
                                                                                                    
   TITEL  = PAW_PBE H 15Jun2001                                                                     
   LULTRA =        F    use ultrasoft PP ?                                                          
   IUNSCR =        0    unscreen: 0-lin 1-nonlin 2-no                                               
   RPACOR =    0.000    partial core radius                                                         
   POMASS =    1.000; ZVAL   =    1.000    mass and valenz                                          
   RCORE  =    1.100    outmost cutoff radius                                                       
   RWIGS  =    0.700; RWIGS  =    0.370    wigner-seitz radius (au A)                               
   ENMAX  =  250.000; ENMIN  =  200.000 eV                                                          
   RCLOC  =    0.701    cutoff for local pot                                                        
   LCOR   =        T    correct aug charges                                                         
   LPAW   =        T    paw PP                                                                      
   EAUG   =  400.000                                                                                
   RMAX   =    1.123    core radius for proj-oper                                                   
   RAUG   =    1.200    factor for augmentation sphere                                              
   RDEP   =    1.112    radius for radial grids                                                     
   RDEPT  =    0.926    core radius for aug-charge                                                  
                                                                                                    
   Atomic configuration                                                                             
    2 entries                                                                                       
     n  l   j            E        occ.                                                              
     1  0  0.50        -6.4927   1.0000                                                             
     2  1  0.50        -3.4015   0.0000                                                             
   Description                                                                                      
     l       E           TYP  RCUT    TYP  RCUT                                                     
     0     -6.4927494     23  1.100                                                                 
     0      6.8029130     23  1.100                                                                 
     1     -4.0817478     23  1.100                                                                 
  local pseudopotential read in
  atomic valenz-charges read in
  non local Contribution for L=           0  read in
    real space projection operators read in
  non local Contribution for L=           0  read in
    real space projection operators read in
  non local Contribution for L=           1  read in
    real space projection operators read in
    PAW grid and wavefunctions read in

   number of l-projection  operators is LMAX  =           3
   number of lm-projection operators is LMMAX =           5

 POTCAR:    PAW_PBE Si 05Jan2001                  
   SHA256 =  79d9987ad8750f624c4d6acb2a16d13abf6a777132adc04dc6c8399be72b42bb Si/POTCAR             
   COPYR  = (c) Copyright 05Jan2001 Georg Kresse                                                    
   COPYR  = This file is part of the software VASP. Any use, copying, and all other rights are regul
   COPYR  = If you do not have a valid VASP license, you may not use, copy or distribute this file. 
   VRHFIN =Si: s2p2                                                                                 
   LEXCH  = PE                                                                                      
   EATOM  =   103.0669 eV,    7.5752 Ry                                                             
                                                                                                    
   TITEL  = PAW_PBE Si 05Jan2001                                                                    
   LULTRA =        F    use ultrasoft PP ?                                                          
   IUNSCR =        1    unscreen: 0-lin 1-nonlin 2-no                                               
   RPACOR =    1.500    partial core radius                                                         
   POMASS =   28.085; ZVAL   =    4.000    mass and valenz                                          
   RCORE  =    1.900    outmost cutoff radius                                                       
   RWIGS  =    2.480; RWIGS  =    1.312    wigner-seitz radius (au A)                               
   ENMAX  =  245.345; ENMIN  =  184.009 eV                                                          
   ICORE  =        2    local potential                                                             
   LCOR   =        T    correct aug charges                                                         
   LPAW   =        T    paw PP                                                                      
   EAUG   =  322.069                                                                                
   DEXC   =    0.000                                                                                
   RMAX   =    1.950    core radius for proj-oper                                                   
   RAUG   =    1.300    factor for augmentation sphere                                              
   RDEP   =    1.993    radius for radial grids                                                     
   RDEPT  =    1.837    core radius for aug-charge                                                  
                                                                                                    
   Atomic configuration                                                                             
    6 entries                                                                                       
     n  l   j            E        occ.                                                              
     1  0  0.50     -1785.8828   2.0000                                                             
     2  0  0.50      -139.4969   2.0000                                                             
     2  1  1.50       -95.5546   6.0000                                                             
     3  0  0.50       -10.8127   2.0000                                                             
     3  1  0.50        -4.0811   2.0000                                                             
     3  2  1.50        -4.0817   0.0000                                                             
   Description                                                                                      
     l       E           TYP  RCUT    TYP  RCUT                                                     
     0    -10.8127223     23  1.900                                                                 
     0     -7.6451159     23  1.900                                                                 
     1     -4.0811372     23  1.900                                                                 
     1      2.4879257     23  1.900                                                                 
     2     -4.0817478      7  1.900                                                                 
  local pseudopotential read in
  partial core-charges read in
  partial kinetic energy density read in
  atomic valenz-charges read in
  non local Contribution for L=           0  read in
    real space projection operators read in
  non local Contribution for L=           0  read in
    real space projection operators read in
  non local Contribution for L=           1  read in
    real space projection operators read in
  non local Contribution for L=           1  read in
    real space projection operators read in
    PAW grid and wavefunctions read in

   number of l-projection  operators is LMAX  =           4
   number of lm-projection operators is LMMAX =           8

 -----------------------------------------------------------------------------
|                                                                             |
|               ----> ADVICE to this user running VASP <----                  |
|                                                                             |
|     You have a (more or less) 'large supercell' and for larger cells it     |
|     might be more efficient to use real-space projection operators.         |
|     Therefore, try LREAL= Auto in the INCAR file.                           |
|     Mind: For very accurate calculation, you might also keep the            |
|     reciprocal projection scheme (i.e. LREAL=.FALSE.).                      |
|                                                                             |
 -----------------------------------------------------------------------------

 -----------------------------------------------------------------------------
|                                                                             |
|               ----> ADVICE to this user running VASP <----                  |
|                                                                             |
|     You enforced a specific xc type in the INCAR file but a different       |
|     type was found in the POTCAR file.                                      |
|     I HOPE YOU KNOW WHAT YOU ARE DOING!                                     |
|                                                                             |
 -----------------------------------------------------------------------------

  PAW_PBE H 15Jun2001                   :
 energy of atom  1       EATOM=  -12.4884
 kinetic energy error for atom=    0.0000 (will be added to EATOM!!)
  PAW_PBE Si 05Jan2001                  :
 energy of atom  2       EATOM= -103.0669
 kinetic energy error for atom=    0.0001 (will be added to EATOM!!)


 POSCAR:  H Si
  positions in cartesian coordinates
  No initial velocities read in


 exchange-correlation table for SCAN
   RHO(1)=    0.500       N(1)  =     2000
   RHO(2)=  100.500       N(2)  =     4000



--------------------------------------------------------------------------------------------------------


 ion  position               nearest neighbor table
   1  0.777  0.561  0.526-  52 1.43
   2  0.391  0.410  0.782-  43 1.48
   3  0.604  0.756  0.153-  54 1.49
   4  0.302  0.610  0.807-  62 1.48
   5  0.319  0.738  0.309-  64 1.53
   6  0.662  0.432  0.670-  45 1.56
   7  0.404  0.774  0.001-  10 1.50
   8  0.777  0.833  0.803-  30 2.30  13 2.31  65 2.37
   9  0.215  0.313  0.635-  31 2.29  60 2.30  68 2.37  43 2.47
  10  0.368  0.857  0.906-   7 1.50  20 2.35  36 2.36  25 2.41
  11  0.971  0.003  0.114-  56 2.33  15 2.43  67 2.56  66 2.57
  12  0.002  0.294  0.446-  19 2.25  48 2.32  40 2.37  60 2.39
  13  0.862  0.929  0.625-  49 2.29   8 2.31  15 2.44  23 2.53
  14  0.088  0.633  0.946-  39 2.29  61 2.40  51 2.43  62 2.47
  15  0.954  0.035  0.802-  11 2.43  69 2.44  13 2.44  42 2.53
  16  0.348  0.008  0.572-  53 2.32  50 2.47  22 2.48  20 2.54
  17  0.680  0.388  0.040-  41 2.26  45 2.27  27 2.36
  18  0.005  0.704  0.548-  23 2.30  51 2.33  34 2.37  29 2.39
  19  0.085  0.281  0.198-  12 2.25  28 2.31  21 2.40  32 2.56
  20  0.477  0.915  0.709-  10 2.35  44 2.41  16 2.54  35 2.70
  21  0.202  0.165  0.224-  68 2.25  67 2.29  19 2.40  57 2.53
  22  0.239  0.956  0.342-  36 2.32  67 2.35  64 2.42  16 2.48
  23  0.921  0.814  0.402-  18 2.30  59 2.31  56 2.35  13 2.53
  24  0.574  0.156  0.848-  44 2.36  33 2.37  27 2.40  46 2.42
  25  0.210  0.838  0.816-  10 2.41  29 2.42  61 2.44  50 2.49
  26  0.767  0.189  0.148-  66 2.26  27 2.31  40 2.33  42 2.46
  27  0.618  0.242  0.105-  26 2.31  17 2.36  24 2.40  37 2.51
  28  0.988  0.276  0.958-  19 2.31  42 2.36  60 2.44  63 2.45
  29  0.165  0.730  0.591-  62 2.30  64 2.35  18 2.39  25 2.42
  30  0.871  0.751  0.990-  56 2.30   8 2.30  59 2.43  51 2.48
  31  0.161  0.459  0.596-   9 2.29  48 2.31  62 2.35  32 2.69
  32  0.178  0.429  0.248-  47 2.31  39 2.37  19 2.56  31 2.69
  33  0.416  0.191  0.811-  53 2.34  24 2.37  43 2.40  57 2.56
  34  0.962  0.571  0.385-  52 2.21  48 2.33  18 2.37  39 2.39
  35  0.603  0.919  0.447-  54 2.33  55 2.40  49 2.46  20 2.70
  36  0.356  0.966  0.135-  22 2.32  10 2.36  55 2.37  57 2.37
  37  0.544  0.153  0.350-  53 2.34  46 2.44  27 2.51  55 2.52
  38  0.889  0.476  0.752-  48 2.30  63 2.32  51 2.43  45 2.45
  39  0.055  0.519  0.144-  14 2.29  32 2.37  34 2.39  63 2.44
  40  0.846  0.268  0.367-  26 2.33  58 2.34  12 2.37  41 2.48
  41  0.796  0.414  0.231-  17 2.26  63 2.43  52 2.45  40 2.48
  42  0.864  0.178  0.884-  28 2.36  58 2.46  26 2.46  15 2.53
  43  0.337  0.333  0.858-   2 1.48  33 2.40   9 2.47  47 2.55
  44  0.562  0.999  0.927-  24 2.36  65 2.38  20 2.41  55 2.47
  45  0.746  0.389  0.770-   6 1.56  17 2.27  58 2.28  38 2.45
  46  0.660  0.134  0.578-  49 2.41  24 2.42  37 2.44  58 2.45
  47  0.325  0.378  0.182-  32 2.31  68 2.38  43 2.55
  48  0.005  0.444  0.554-  38 2.30  31 2.31  12 2.32  34 2.33
  49  0.748  0.005  0.474-  13 2.29  66 2.40  46 2.41  35 2.46
  50  0.212  0.007  0.766-  69 2.37  57 2.43  16 2.47  25 2.49
  51  0.941  0.634  0.796-  18 2.33  14 2.43  38 2.43  30 2.48
  52  0.811  0.570  0.351-   1 1.43  34 2.21  59 2.42  41 2.45
  53  0.408  0.153  0.512-  16 2.32  33 2.34  37 2.34  68 2.43
  54  0.668  0.823  0.236-   3 1.49  35 2.33  59 2.37  65 2.49
  55  0.507  0.995  0.235-  36 2.37  35 2.40  44 2.47  37 2.52
  56  0.980  0.843  0.121-  30 2.30  11 2.33  23 2.35  61 2.49
  57  0.299  0.095  0.982-  36 2.37  50 2.43  21 2.53  33 2.56
  58  0.777  0.250  0.643-  45 2.28  40 2.34  46 2.45  42 2.46
  59  0.801  0.731  0.278-  23 2.31  54 2.37  52 2.42  30 2.43
  60  0.080  0.237  0.700-   9 2.30  69 2.30  12 2.39  28 2.44
  61  0.136  0.775  0.077-  64 2.38  14 2.40  25 2.44  56 2.49
  62  0.210  0.597  0.730-   4 1.48  29 2.30  31 2.35  14 2.47
  63  0.927  0.427  0.033-  38 2.32  41 2.43  39 2.44  28 2.45
  64  0.230  0.790  0.332-   5 1.53  29 2.35  61 2.38  22 2.42
  65  0.708  0.937  0.004-   8 2.37  44 2.38  66 2.43  54 2.49
  66  0.802  0.039  0.182-  26 2.26  49 2.40  65 2.43  11 2.57
  67  0.107  0.048  0.308-  21 2.29  22 2.35  69 2.52  11 2.56
  68  0.294  0.257  0.384-  21 2.25   9 2.37  47 2.38  53 2.43
  69  0.087  0.083  0.631-  60 2.30  50 2.37  15 2.44  67 2.52

  LATTYP: Found a simple tetragonal cell.
 ALAT       =    14.5469080134
 C/A-ratio  =     0.5226338253
  
  Lattice vectors:
  
 A1 = (  14.5469080134,   0.0000000000,   0.0000000000)
 A2 = (   0.0000000000,  14.5469080134,   0.0000000000)
 A3 = (   0.0000000000,   0.0000000000,   7.6027061809)


Analysis of symmetry for initial positions (statically):
=====================================================================
 Subroutine PRICEL returns:
 Original cell was already a primitive cell.
 

 Routine SETGRP: Setting up the symmetry group for a 
 simple tetragonal supercell.


 Subroutine GETGRP returns: Found  1 space group operations
 (whereof  1 operations were pure point group operations)
 out of a pool of 16 trial point group operations.


The static configuration has the point symmetry C_1 .


Analysis of symmetry for dynamics (positions and initial velocities):
=====================================================================
 Subroutine PRICEL returns:
 Original cell was already a primitive cell.
 

 Routine SETGRP: Setting up the symmetry group for a 
 simple tetragonal supercell.


 Subroutine GETGRP returns: Found  1 space group operations
 (whereof  1 operations were pure point group operations)
 out of a pool of 16 trial point group operations.


The dynamic configuration has the point symmetry C_1 .


 Subroutine INISYM returns: Found  1 space group operations
 (whereof  1 operations are pure point group operations),
 and found     1 'primitive' translations


----------------------------------------------------------------------------------------

                                     Primitive cell                                     

  volume of cell :    1608.8279

  direct lattice vectors                    reciprocal lattice vectors
    14.546908013  0.000000000  0.000000000     0.068743131  0.000000000  0.000000000
     0.000000000 14.546908013  0.000000000     0.000000000  0.068743131  0.000000000
     0.000000000  0.000000000  7.602706181     0.000000000  0.000000000  0.131532112

  length of vectors
    14.546908013 14.546908013  7.602706181     0.068743131  0.068743131  0.131532112

  position of ions in fractional coordinates (direct lattice)
     0.777326700  0.560726031  0.526171853
     0.390794387  0.410171701  0.781908423
     0.603861659  0.755961335  0.152899503
     0.302493836  0.610256145  0.807002119
     0.319487825  0.737737531  0.308621686
     0.662412245  0.431761168  0.670261336
     0.404102370  0.773999532  0.000960687
     0.776763006  0.832713040  0.802627361
     0.215115129  0.312746186  0.634723990
     0.367546148  0.856910622  0.906201007
     0.970811116  0.002650708  0.114008483
     0.001658064  0.294494885  0.445851769
     0.861928871  0.929297139  0.624756486
     0.088275804  0.632537856  0.945660641
     0.953742196  0.034501215  0.802024944
     0.348486427  0.008377657  0.572265966
     0.679863377  0.388441310  0.039981685
     0.004924043  0.703599692  0.547807570
     0.085289602  0.281359447  0.197704602
     0.477364674  0.915046688  0.708663451
     0.201728092  0.165138873  0.223638789
     0.239061112  0.956430053  0.341796715
     0.920690499  0.813843051  0.402402766
     0.574269803  0.156087465  0.848383437
     0.210091381  0.837696917  0.816448756
     0.766650892  0.189460880  0.147586921
     0.618182915  0.241915326  0.104729024
     0.987694429  0.275514219  0.957968101
     0.165345790  0.729673962  0.590627849
     0.870851729  0.750970584  0.989829124
     0.161200579  0.459424092  0.596404740
     0.178259875  0.428698662  0.248402339
     0.416263717  0.190635701  0.810890208
     0.962335088  0.571011379  0.384816923
     0.603115796  0.919487494  0.446954008
     0.355872189  0.965504146  0.135195281
     0.544199495  0.153341177  0.349734678
     0.889274888  0.476283344  0.751734956
     0.054546162  0.519153623  0.143733031
     0.846351678  0.267662379  0.366865421
     0.796210438  0.414437899  0.231372877
     0.864437995  0.177882475  0.883862909
     0.336867463  0.333170458  0.857828758
     0.562470045  0.999477001  0.927134343
     0.745677363  0.388918387  0.769652261
     0.660052981  0.134258772  0.578104677
     0.324886910  0.377775125  0.181785271
     0.004586473  0.443778155  0.553614713
     0.748193361  0.004760799  0.474012794
     0.212245104  0.006909716  0.766111416
     0.940880357  0.633698240  0.795639060
     0.811162069  0.569954109  0.351040792
     0.407549838  0.153150071  0.512391234
     0.667937818  0.822518434  0.236144862
     0.507316056  0.995455528  0.234540170
     0.979788969  0.842715166  0.120543130
     0.298514296  0.095394155  0.981976657
     0.777436689  0.250183750  0.642928963
     0.801352424  0.731344420  0.278429805
     0.080190237  0.237339096  0.700092819
     0.135646695  0.774948188  0.077130693
     0.209985517  0.596871857  0.730057149
     0.926843009  0.427318300  0.032789640
     0.229506504  0.790442889  0.332279052
     0.708287974  0.936577037  0.003960603
     0.801613648  0.038819177  0.181972046
     0.107051615  0.047635071  0.308453325
     0.294425454  0.256510868  0.384298687
     0.086878256  0.083271991  0.631148947

  ion indices of the primitive-cell ions
   primitive index   ion index
                 1           1
                 2           2
                 3           3
                 4           4
                 5           5
                 6           6
                 7           7
                 8           8
                 9           9
                10          10
                11          11
                12          12
                13          13
                14          14
                15          15
                16          16
                17          17
                18          18
                19          19
                20          20
                21          21
                22          22
                23          23
                24          24
                25          25
                26          26
                27          27
                28          28
                29          29
                30          30
                31          31
                32          32
                33          33
                34          34
                35          35
                36          36
                37          37
                38          38
                39          39
                40          40
                41          41
                42          42
                43          43
                44          44
                45          45
                46          46
                47          47
                48          48
                49          49
                50          50
                51          51
                52          52
                53          53
                54          54
                55          55
                56          56
                57          57
                58          58
                59          59
                60          60
                61          61
                62          62
                63          63
                64          64
                65          65
                66          66
                67          67
                68          68
                69          69

----------------------------------------------------------------------------------------


 -----------------------------------------------------------------------------
|                                                                             |
|           W    W    AA    RRRRR   N    N  II  N    N   GGGG   !!!           |
|           W    W   A  A   R    R  NN   N  II  NN   N  G    G  !!!           |
|           W    W  A    A  R    R  N N  N  II  N N  N  G       !!!           |
|           W WW W  AAAAAA  RRRRR   N  N N  II  N  N N  G  GGG   !            |
|           WW  WW  A    A  R   R   N   NN  II  N   NN  G    G                |
|           W    W  A    A  R    R  N    N  II  N    N   GGGG   !!!           |
|                                                                             |
|     The requested file  could not be found or opened for reading            |
|     k-point information. Automatic k-point generation is used as a          |
|     fallback, which may lead to unwanted results.                           |
|                                                                             |
 -----------------------------------------------------------------------------



Automatic generation of k-mesh.
 Grid dimensions derived from KSPACING:
 generate k-points for:    2    2    4

 Generating k-lattice:

  Cartesian coordinates                     Fractional coordinates (reciprocal lattice)
     0.034371565  0.000000000  0.000000000     0.500000000  0.000000000  0.000000000
     0.000000000  0.034371565  0.000000000     0.000000000  0.500000000  0.000000000
     0.000000000  0.000000000  0.032883028     0.000000000  0.000000000  0.250000000

  Length of vectors
     0.034371565  0.034371565  0.032883028

  Shift w.r.t. Gamma in fractional coordinates (k-lattice)
     0.000000000  0.000000000  0.000000000

 
 Subroutine IBZKPT returns following result:
 ===========================================
 
 Found     12 irreducible k-points:
 
 Following reciprocal coordinates:
            Coordinates               Weight
  0.000000  0.000000  0.000000      1.000000
  0.500000  0.000000  0.000000      1.000000
  0.000000  0.500000  0.000000      1.000000
  0.500000  0.500000  0.000000      1.000000
  0.000000  0.000000  0.250000      2.000000
  0.500000  0.000000  0.250000      2.000000
  0.000000  0.500000  0.250000      2.000000
  0.500000  0.500000  0.250000      2.000000
  0.000000  0.000000  0.500000      1.000000
  0.500000  0.000000  0.500000      1.000000
  0.000000  0.500000  0.500000      1.000000
  0.500000  0.500000  0.500000      1.000000
 
 Following cartesian coordinates:
            Coordinates               Weight
  0.000000  0.000000  0.000000      1.000000
  0.034372  0.000000  0.000000      1.000000
  0.000000  0.034372  0.000000      1.000000
  0.034372  0.034372  0.000000      1.000000
  0.000000  0.000000  0.032883      2.000000
  0.034372  0.000000  0.032883      2.000000
  0.000000  0.034372  0.032883      2.000000
  0.034372  0.034372  0.032883      2.000000
  0.000000  0.000000  0.065766      1.000000
  0.034372  0.000000  0.065766      1.000000
  0.000000  0.034372  0.065766      1.000000
  0.034372  0.034372  0.065766      1.000000
 


--------------------------------------------------------------------------------------------------------




 Dimension of arrays:
   k-points           NKPTS =     12   k-points in BZ     NKDIM =     12   number of bands    NBANDS=    168
   number of dos      NEDOS =   2000   number of ions     NIONS =     69
   non local maximal  LDIM  =      4   non local SUM 2l+1 LMDIM =      8
   total plane-waves  NPLWV = ******
   max r-space proj   IRMAX =      1   max aug-charges    IRDMAX= 422470
   dimension x,y,z NGX =   168 NGY =  168 NGZ =   90
   dimension x,y,z NGXF=   336 NGYF=  336 NGZF=  180
   support grid    NGXF=   672 NGYF=  672 NGZF=  360
   ions per type =               7  62
   NGX,Y,Z   is equivalent  to a cutoff of  19.20, 19.20, 19.68 a.u.
   NGXF,Y,Z  is equivalent  to a cutoff of  38.40, 38.40, 39.36 a.u.

 SYSTEM =  a-Si SPC                                
 POSCAR =   H Si                                   

 Startparameter for this run:
   NWRITE =      2    write-flag & timer
   PREC   = accura    normal or accurate (medium, high low for compatibility)
   ISTART =      1    job   : 0-new  1-cont  2-samecut
   ICHARG =      1    charge: 1-file 2-atom 10-const
   ISPIN  =      1    spin polarized calculation?
   LNONCOLLINEAR =      F non collinear calculations
   LSORBIT =      F    spin-orbit coupling
   INIWAV =      1    electr: 0-lowe 1-rand  2-diag
   LASPH  =      T    aspherical Exc in radial PAW
 Electronic Relaxation 1
   ENCUT  = 1200.0 eV  88.20 Ry    9.39 a.u.  41.09 41.09 21.47*2*pi/ulx,y,z
   ENINI  = 1200.0     initial cutoff
   ENAUG  =  400.0 eV  augmentation charge cutoff
   NELM   =    150;   NELMIN=  2; NELMDL=  0     # of ELM steps 
   EDIFF  = 0.1E-05   stopping-criterion for ELM
   LREAL  =      F    real-space projection
   NLSPLINE    = F    spline interpolate recip. space projectors
   LCOMPAT=      F    compatible to vasp.4.4
   GGA_COMPAT  = T    GGA compatible to vasp.4.4-vasp.4.6
   LMAXPAW     = -100 max onsite density
   LMAXMIX     =    2 max onsite mixed and CHGCAR
   VOSKOWN=      0    Vosko Wilk Nusair interpolation
   ROPT   =    0.00000   0.00000
 Ionic relaxation
   EDIFFG = -.1E-01   stopping-criterion for IOM
   NSW    =      0    number of steps for IOM
   NBLOCK =      1;   KBLOCK =      1    inner block; outer block 
   IBRION =     -1    ionic relax: 0-MD 1-quasi-New 2-CG
   NFREE  =      0    steps in history (QN), initial steepest desc. (CG)
   ISIF   =      2    stress and relaxation
   IWAVPR =     10    prediction:  0-non 1-charg 2-wave 3-comb
   ISYM   =      1    0-nonsym 1-usesym 2-fastsym
   LCORR  =      T    Harris-Foulkes like correction to forces

   POTIM  = 0.5000    time-step for ionic-motion
   TEIN   =    0.0    initial temperature
   TEBEG  =    0.0;   TEEND  =   0.0 temperature during run
   SMASS  =  -3.00    Nose mass-parameter (am)
   estimated Nose-frequenzy (Omega)   =  0.10E-29 period in steps = 0.13E+47 mass=  -0.484E-26a.u.
   SCALEE = 1.0000    scale energy and forces
   NPACO  =    256;   APACO  = 10.0  distance and # of slots for P.C.
   PSTRESS=    0.0 pullay stress

  Mass of Ions in am
   POMASS =   1.00 28.09
  Ionic Valenz
   ZVAL   =   1.00  4.00
  Atomic Wigner-Seitz radii
   RWIGS  =  -1.00 -1.00
  virtual crystal weights 
   VCA    =   1.00  1.00
   NELECT =     255.0000    total number of electrons
   NUPDOWN=      -1.0000    fix difference up-down

 DOS related values:
   EMIN   =  10.00;   EMAX   =-10.00  energy-range for DOS
   EFERMI =   0.00;   METHOD = LEGACY      
   ISMEAR =     0;   SIGMA  =   0.10  broadening in eV -4-tet -1-fermi 0-gaus
   EFERMI_NEDOS =   21; number of points for ismear=-14 and -15

 Electronic relaxation 2 (details)
   IALGO  =     38    algorithm
   LDIAG  =      F    sub-space diagonalisation (order eigenvalues)
   LSUBROT=      F    optimize rotation matrix (better conditioning)
   TURBO    =      0    0=normal 1=particle mesh
   IRESTART =      0    0=no restart 2=restart with 2 vectors
   NREBOOT  =      0    no. of reboots
   NMIN     =      0    reboot dimension
   EREF     =   0.00    reference energy to select bands
   IMIX   =      4    mixing-type and parameters
     AMIX     =   0.40;   BMIX     =  1.00
     AMIX_MAG =   1.60;   BMIX_MAG =  1.00
     AMIN     =   0.10
     WC   =   100.;   INIMIX=   1;  MIXPRE=   1;  MAXMIX= -45

 Intra band minimization:
   WEIMIN = 0.0000     energy-eigenvalue tresh-hold
   EBREAK =  0.15E-08  absolut break condition
   DEPER  =   0.30     relativ break condition  

   TIME   =   0.40     timestep for ELM

  volume/ion in A,a.u.               =      23.32       157.35
  Fermi-wavevector in a.u.,A,eV,Ry     =   0.885969  1.674238 10.679763  0.784940
  Thomas-Fermi vector in A             =   2.007073

 Write flags
   LWAVE        =      F    write WAVECAR
   LDOWNSAMPLE  =      F    k-point downsampling of WAVECAR
   LCHARG       =      F    write CHGCAR
   LVTOT        =      F    write LOCPOT, total local potential
   LVHAR        =      F    write LOCPOT, Hartree potential only
   WRT_POTENTIAL= false  ! write potential to hdf5 file
   LELF         =      F    write electronic localiz. function (ELF)
   LORBIT       =     11    0 simple, 1 ext, 2 COOP (PROOUT), +10 PAW based schemes


 Python interface
   PLUGINS active      =      F    recompile with -DPLUGINS to activate

 Dipole corrections
   LMONO      =      F    monopole corrections only (constant potential shift)
   LDIPOL     =      F    correct potential (dipole corrections)
   IDIPOL     =      0    1-x, 2-y, 3-z, 4-all directions 
   EPSILON    =  1.0000000 bulk dielectric constant
   LVACPOTAV  =      F  vacuum potentials using an averaging scheme for the charge density
   VACPOTFLAT =  0.1000000 required flatness to determine vacuum potential

Coulomb truncation method
  LTRUNCATE          =      F  Coulomb kernel truncation to be used
  IDIMENSIONALITY    =      3  Dimensionality of cutoff (0 molecules / 2 surfaces)
  ISURFACE           =     -1  Direction of surface normal
  LCOARSEN           =      F  Coarsen the charge grid before padding, preferred


 Exchange correlation treatment:
   METAGGA = SCAN    functional components
   XC_C    = 1    coefficients multiplying the functional components
   LIBXC   =     F    Libxc                    
   VOSKOWN =     0    Vosko Wilk Nusair interpolation
   LHFCALC =     F    Hartree Fock is set to
   LHFONE  =     F    Hartree Fock one center treatment
   AEXX    =    0.0000 exact exchange contribution

 Parameters of functionals:
   SCAN:
     P1 =  0.000000E+00
     P2 =  0.000000E+00
     P3 =  0.000000E+00

 Accuracy and mixing parameters for tau-dependent meta-GGA functionals:
   LMAXTAU = 6
   LMIXTAU = T

 Van der Waals corrections
   IVDW    =     0    specifies the selected vdW correction

 Linear response parameters
   LEPSILON=     F    determine dielectric tensor
   LRPA    =     F    only Hartree local field effects (RPA)
   LNABLA  =     F    use nabla operator in PAW spheres
   LVEL    =     F    velocity operator in full k-point grid
   CSHIFT  =0.1000    complex shift for real part using Kramers Kronig
   OMEGAMAX=  -1.0    maximum frequency
   DEG_THRESHOLD= 0.2000000E-02 threshold for treating states as degnerate
   RTIME   =   -0.100 relaxation time in fs
  (WPLASMAI=    0.000 imaginary part of plasma frequency in eV, 0.658/RTIME)
   DFIELD  = 0.0000000 0.0000000 0.0000000 field for delta impulse in time

  Optional k-point grid parameters
   LKPOINTS_OPT  =     F    use optional k-point grid
   KPOINTS_OPT_MODE=     1    mode for optional k-point grid

 Orbital magnetization related:
   ORBITALMAG=     F  switch on orbital magnetization
   LCHIMAG   =     F  perturbation theory with respect to B field
   DQ        =  0.001000  dq finite difference perturbation B field
   LLRAUG    =     F  two centre corrections for induced B field
   LBONE     =     F  B-component reconstruction in AE one-centre
   LVGVCALC  =     T  calculate vGv susceptibility
   LVGVAPPL  =     F  apply vGv susceptibility instead of pGv for G=0

 Random number generation:
   RANDOM_GENERATOR = DEFAULT
   PCG_SEED         = not used


--------------------------------------------------------------------------------------------------------


 Static calculation
 charge density and potential will be updated during run
 non-spin polarized calculation
 Variant of blocked Davidson
 perform Loewdin sub-space diagonalisation
    ordering is kept fixed
    before iterative eigenvector-optimisation
 modified Broyden-mixing scheme, WC =      100.0
 initial mixing is a Kerker type mixing with AMIX =  0.4000 and BMIX =      1.0000
 Hartree-type preconditioning will be used
 using additional bands           40
 reciprocal scheme for non local part
 use partial core corrections
 calculate Harris-corrections to forces   (improved forces if not selfconsistent)
 use gradient corrections 
 use of overlap-Matrix (Vanderbilt PP)
 Gauss-broadening in eV      SIGMA  =   0.10


--------------------------------------------------------------------------------------------------------


  energy-cutoff  :     1200.00
  volume of cell :     1608.83
      direct lattice vectors                 reciprocal lattice vectors
    14.546908013  0.000000000  0.000000000     0.068743131  0.000000000  0.000000000
     0.000000000 14.546908013  0.000000000     0.000000000  0.068743131  0.000000000
     0.000000000  0.000000000  7.602706181     0.000000000  0.000000000  0.131532112

  length of vectors
    14.546908013 14.546908013  7.602706181     0.068743131  0.068743131  0.131532112



 old parameters found on file WAVECAR:
  energy-cutoff  :     1200.00
  volume of cell :     1608.83
      direct lattice vectors                 reciprocal lattice vectors
    14.546908013  0.000000000  0.000000000     0.068743131  0.000000000  0.000000000
     0.000000000 14.546908013  0.000000000     0.000000000  0.068743131  0.000000000
     0.000000000  0.000000000  7.602706181     0.000000000  0.000000000  0.131532112

  length of vectors


 k-points in units of 2pi/SCALE and weight: read from INCAR                         
   0.00000000  0.00000000  0.00000000       0.062
   0.03437157  0.00000000  0.00000000       0.062
   0.00000000  0.03437157  0.00000000       0.062
   0.03437157  0.03437157  0.00000000       0.062
   0.00000000  0.00000000  0.03288303       0.125
   0.03437157  0.00000000  0.03288303       0.125
   0.00000000  0.03437157  0.03288303       0.125
   0.03437157  0.03437157  0.03288303       0.125
   0.00000000  0.00000000  0.06576606       0.062
   0.03437157  0.00000000  0.06576606       0.062
   0.00000000  0.03437157  0.06576606       0.062
   0.03437157  0.03437157  0.06576606       0.062

 k-points in reciprocal lattice and weights: read from INCAR                         
   0.00000000  0.00000000  0.00000000       0.062
   0.50000000  0.00000000  0.00000000       0.062
   0.00000000  0.50000000  0.00000000       0.062
   0.50000000  0.50000000  0.00000000       0.062
   0.00000000  0.00000000  0.25000000       0.125
   0.50000000  0.00000000  0.25000000       0.125
   0.00000000  0.50000000  0.25000000       0.125
   0.50000000  0.50000000  0.25000000       0.125
   0.00000000  0.00000000  0.50000000       0.062
   0.50000000  0.00000000  0.50000000       0.062
   0.00000000  0.50000000  0.50000000       0.062
   0.50000000  0.50000000  0.50000000       0.062

 position of ions in fractional coordinates (direct lattice) 
   0.77732670  0.56072603  0.52617185
   0.39079439  0.41017170  0.78190842
   0.60386166  0.75596133  0.15289950
   0.30249384  0.61025614  0.80700212
   0.31948782  0.73773753  0.30862169
   0.66241225  0.43176117  0.67026134
   0.40410237  0.77399953  0.00096069
   0.77676301  0.83271304  0.80262736
   0.21511513  0.31274619  0.63472399
   0.36754615  0.85691062  0.90620101
   0.97081112  0.00265071  0.11400848
   0.00165806  0.29449488  0.44585177
   0.86192887  0.92929714  0.62475649
   0.08827580  0.63253786  0.94566064
   0.95374220  0.03450121  0.80202494
   0.34848643  0.00837766  0.57226597
   0.67986338  0.38844131  0.03998168
   0.00492404  0.70359969  0.54780757
   0.08528960  0.28135945  0.19770460
   0.47736467  0.91504669  0.70866345
   0.20172809  0.16513887  0.22363879
   0.23906111  0.95643005  0.34179672
   0.92069050  0.81384305  0.40240277
   0.57426980  0.15608747  0.84838344
   0.21009138  0.83769692  0.81644876
   0.76665089  0.18946088  0.14758692
   0.61818292  0.24191533  0.10472902
   0.98769443  0.27551422  0.95796810
   0.16534579  0.72967396  0.59062785
   0.87085173  0.75097058  0.98982912
   0.16120058  0.45942409  0.59640474
   0.17825987  0.42869866  0.24840234
   0.41626372  0.19063570  0.81089021
   0.96233509  0.57101138  0.38481692
   0.60311580  0.91948749  0.44695401
   0.35587219  0.96550415  0.13519528
   0.54419950  0.15334118  0.34973468
   0.88927489  0.47628334  0.75173496
   0.05454616  0.51915362  0.14373303
   0.84635168  0.26766238  0.36686542
   0.79621044  0.41443790  0.23137288
   0.86443800  0.17788247  0.88386291
   0.33686746  0.33317046  0.85782876
   0.56247004  0.99947700  0.92713434
   0.74567736  0.38891839  0.76965226
   0.66005298  0.13425877  0.57810468
   0.32488691  0.37777513  0.18178527
   0.00458647  0.44377816  0.55361471
   0.74819336  0.00476080  0.47401279
   0.21224510  0.00690972  0.76611142
   0.94088036  0.63369824  0.79563906
   0.81116207  0.56995411  0.35104079
   0.40754984  0.15315007  0.51239123
   0.66793782  0.82251843  0.23614486
   0.50731606  0.99545553  0.23454017
   0.97978897  0.84271517  0.12054313
   0.29851430  0.09539416  0.98197666
   0.77743669  0.25018375  0.64292896
   0.80135242  0.73134442  0.27842981
   0.08019024  0.23733910  0.70009282
   0.13564670  0.77494819  0.07713069
   0.20998552  0.59687186  0.73005715
   0.92684301  0.42731830  0.03278964
   0.22950650  0.79044289  0.33227905
   0.70828797  0.93657704  0.00396060
   0.80161365  0.03881918  0.18197205
   0.10705162  0.04763507  0.30845332
   0.29442545  0.25651087  0.38429869
   0.08687826  0.08327199  0.63114895

 position of ions in cartesian coordinates  (Angst):
  11.30770000  8.15683000  4.00033000
   5.68485000  5.96673000  5.94462000
   8.78432000 10.99690000  1.16245000
   4.40035000  8.87734000  6.13540000
   4.64756000 10.73180000  2.34636000
   9.63605000  6.28079000  5.09580000
   5.87844000 11.25930000  0.00730382
  11.29950000 12.11340000  6.10214000
   3.12926000  4.54949000  4.82562000
   5.34666000 12.46540000  6.88958000
  14.12230000  0.03855960  0.86677300
   0.02411970  4.28399000  3.38968000
  12.53840000 13.51840000  4.74984000
   1.28414000  9.20147000  7.18958000
  13.87400000  0.50188600  6.09756000
   5.06940000  0.12186900  4.35077000
   9.88991000  5.65062000  0.30396900
   0.07162960 10.23520000  4.16482000
   1.24070000  4.09291000  1.50309000
   6.94418000 13.31110000  5.38776000
   2.93452000  2.40226000  1.70026000
   3.47760000 13.91310000  2.59858000
  13.39320000 11.83890000  3.05935000
   8.35385000  2.27059000  6.45001000
   3.05618000 12.18590000  6.20722000
  11.15240000  2.75607000  1.12206000
   8.99265000  3.51912000  0.79622400
  14.36790000  4.00788000  7.28315000
   2.40527000 10.61450000  4.49037000
  12.66820000 10.92430000  7.52538000
   2.34497000  6.68320000  4.53429000
   2.59313000  6.23624000  1.88853000
   6.05535000  2.77316000  6.16496000
  13.99900000  8.30645000  2.92565000
   8.77347000 13.37570000  3.39806000
   5.17684000 14.04510000  1.02785000
   7.91642000  2.23064000  2.65893000
  12.93620000  6.92845000  5.71522000
   0.79347800  7.55208000  1.09276000
  12.31180000  3.89366000  2.78917000
  11.58240000  6.02879000  1.75906000
  12.57490000  2.58764000  6.71975000
   4.90038000  4.84660000  6.52182000
   8.18220000 14.53930000  7.04873000
  10.84730000  5.65756000  5.85144000
   9.60173000  1.95305000  4.39516000
   4.72610000  5.49546000  1.38206000
   0.06671900  6.45560000  4.20897000
  10.88390000  0.06925490  3.60378000
   3.08751000  0.10051500  5.82452000
  13.68690000  9.21835000  6.04901000
  11.79990000  8.29107000  2.66886000
   5.92859000  2.22786000  3.89556000
   9.71643000 11.96510000  1.79534000
   7.37988000 14.48080000  1.78314000
  14.25290000 12.25890000  0.91645400
   4.34246000  1.38769000  7.46568000
  11.30930000  3.63940000  4.88800000
  11.65720000 10.63880000  2.11682000
   1.16652000  3.45255000  5.32260000
   1.97324000 11.27310000  0.58640200
   3.05464000  8.68264000  5.55041000
  13.48270000  6.21616000  0.24929000
   3.33861000 11.49850000  2.52622000
  10.30340000 13.62430000  0.03011130
  11.66100000  0.56469900  1.38348000
   1.55727000  0.69294300  2.34508000
   4.28298000  3.73144000  2.92171000
   1.26381000  1.21135000  4.79844000



--------------------------------------------------------------------------------------------------------


 k-point     1 :   0.0000 0.0000 0.0000  plane waves:  151939
 k-point     2 :   0.5000 0.0000 0.0000  plane waves:  151902
 k-point     3 :   0.0000 0.5000 0.0000  plane waves:  151902
 k-point     4 :   0.5000 0.5000 0.0000  plane waves:  151764
 k-point     5 :   0.0000 0.0000 0.2500  plane waves:  151827
 k-point     6 :   0.5000 0.0000 0.2500  plane waves:  151870
 k-point     7 :   0.0000 0.5000 0.2500  plane waves:  151870
 k-point     8 :   0.5000 0.5000 0.2500  plane waves:  151980
 k-point     9 :   0.0000 0.0000 0.5000  plane waves:  151794
 k-point    10 :   0.5000 0.0000 0.5000  plane waves:  151812
 k-point    11 :   0.0000 0.5000 0.5000  plane waves:  151812
 k-point    12 :   0.5000 0.5000 0.5000  plane waves:  151872

 maximum and minimum number of plane-waves per node :      9576     9390

 maximum number of plane-waves:    151980
 maximum index in each direction: 
   IXMAX=   41   IYMAX=   41   IZMAX=   21
   IXMIN=  -41   IYMIN=  -41   IZMIN=  -21


 parallel 3D FFT for wavefunctions:
    minimum data exchange during FFTs selected (reduces bandwidth)
 parallel 3D FFT for charge:
    minimum data exchange during FFTs selected (reduces bandwidth)


 total amount of memory used by VASP MPI-rank0   148478. kBytes
=======================================================================

   base                                    :      30000. kBytes
   nonl-proj                               :      25259. kBytes
   fftplans                                :      30753. kBytes
   grid                                    :      23712. kBytes
   one-center                              :         15. kBytes
   wavefun                                 :      38739. kBytes

     INWAV:  cpu time      6.8055: real time      6.8076
 Broyden mixing: mesh for mixing (old mesh)
   NGX = 83   NGY = 83   NGZ = 43
  (NGX  =336   NGY  =336   NGZ  =180)
  gives a total of 296227 points

 initial charge density was supplied:
 number of electron     254.9999999 magnetization 
 keeping initial charge density in first step


--------------------------------------------------------------------------------------------------------


 Maximum index for augmentation-charges        11763 (set IRDMAX)


--------------------------------------------------------------------------------------------------------


 First call to EWALD:  gamma=   0.151
 Maximum number of real-space cells   2x   2x   4
 Maximum number of reciprocal cells   3x   3x   2

    FEWALD:  cpu time      0.0104: real time      0.0106


--------------------------------------- Ionic step        1  -------------------------------------------




--------------------------------------- Iteration      1(   1)  ---------------------------------------


    POTLOK:  cpu time      0.5446: real time      0.5449
    SETDIJ:  cpu time      0.9959: real time      0.9962
    EDDIAG:  cpu time     13.6306: real time     13.6424
     EDDAV:  cpu time     62.6831: real time     62.7354
       DOS:  cpu time      0.0094: real time      0.0097
    CHARGE:  cpu time      5.0430: real time      5.0464
    MIXING:  cpu time      0.0200: real time      0.0201
    --------------------------------------------
      LOOP:  cpu time     82.9266: real time     82.9951

 eigenvalue-minimisations  :  4032
 total energy-change (2. order) :-0.6659503E+03  (-0.7232630E+00)
 number of electron     254.9999999 magnetization 
 augmentation part      -13.7052815 magnetization 

 Broyden mixing:
  rms(total) = 0.99620E+00    rms(broyden)= 0.47113E+02
  rms(prec ) = 0.11059E+01
  weight for this iteration     100.00
  WARNING: grid for Broyden might be to small

 Free energy of the ion-electron system (eV)
  ---------------------------------------------------
  alpha Z        PSCENC =        85.40508439
  Ewald energy   TEWEN  =     -3968.53303283
  -Hartree energ DENC   =     -3119.59410519
  -exchange      EXHF   =         0.00000000
  -V(xc)+E(xc)   XCENC  =      -282.16119895
  PAW double counting   =     23201.40396437   -22583.24341484
  entropy T*S    EENTRO =        -0.12085410
  eigenvalues    EBANDS =      -476.66909149
  atomic energy  EATOM  =      6477.56235275
  Solvation  Ediel_sol  =         0.00000000
  ---------------------------------------------------
  free energy    TOTEN  =      -665.95029590 eV

  energy without entropy =     -665.82944180  energy(sigma->0) =     -665.88986885


--------------------------------------------------------------------------------------------------------




--------------------------------------- Iteration      1(   2)  ---------------------------------------


    POTLOK:  cpu time      0.5324: real time      0.5557
    SETDIJ:  cpu time      0.9918: real time      0.9927
    EDDIAG:  cpu time     13.7554: real time     13.7652
     EDDAV:  cpu time     62.9367: real time     62.9907
       DOS:  cpu time      0.0036: real time      0.0036
    CHARGE:  cpu time      5.2270: real time      5.2308
    MIXING:  cpu time      0.0124: real time      0.0124
    --------------------------------------------
      LOOP:  cpu time     83.4594: real time     83.5511

 eigenvalue-minimisations  :  4040
 total energy-change (2. order) : 0.4540781E+02  (-0.6755416E+00)
 number of electron     254.9999999 magnetization 
 augmentation part      -13.6502736 magnetization 

 Broyden mixing:
  rms(total) = 0.66657E+00    rms(broyden)= 0.27100E+02
  rms(prec ) = 0.72262E+00
  weight for this iteration     100.00
  WARNING: grid for Broyden might be to small

 eigenvalues of (default mixing * dielectric matrix)
  average eigenvalue GAMMA=   0.6348
  0.6348

 Free energy of the ion-electron system (eV)
  ---------------------------------------------------
  alpha Z        PSCENC =        85.40508439
  Ewald energy   TEWEN  =     -3968.53303283
  -Hartree energ DENC   =     -3113.04897668
  -exchange      EXHF   =         0.00000000
  -V(xc)+E(xc)   XCENC  =      -275.84219827
  PAW double counting   =     27849.18290116   -27230.84851417
  entropy T*S    EENTRO =        -0.12172936
  eigenvalues    EBANDS =      -444.29837416
  atomic energy  EATOM  =      6477.56235275
  Solvation  Ediel_sol  =         0.00000000
  ---------------------------------------------------
  free energy    TOTEN  =      -620.54248718 eV

  energy without entropy =     -620.42075782  energy(sigma->0) =     -620.48162250


--------------------------------------------------------------------------------------------------------




--------------------------------------- Iteration      1(   3)  ---------------------------------------


    POTLOK:  cpu time      0.5785: real time      0.6015
    SETDIJ:  cpu time      0.9902: real time      0.9908
    EDDIAG:  cpu time     13.8215: real time     13.8341
     EDDAV:  cpu time     63.0864: real time     63.1426
       DOS:  cpu time      0.0035: real time      0.0035
    CHARGE:  cpu time      5.0721: real time      5.0760
    MIXING:  cpu time      0.0099: real time      0.0099
    --------------------------------------------
      LOOP:  cpu time     83.5622: real time     83.6585

 eigenvalue-minimisations  :  4032
 total energy-change (2. order) :-0.2154842E+01  (-0.5262894E+00)
 number of electron     254.9999999 magnetization 
 augmentation part      -13.6078019 magnetization 

 Broyden mixing:
  rms(total) = 0.41867E+00    rms(broyden)= 0.16206E+02
  rms(prec ) = 0.45737E+00
  weight for this iteration     100.00
  WARNING: grid for Broyden might be to small

 eigenvalues of (default mixing * dielectric matrix)
  average eigenvalue GAMMA=   0.6869
  0.7524  0.6214

 Free energy of the ion-electron system (eV)
  ---------------------------------------------------
  alpha Z        PSCENC =        85.40508439
  Ewald energy   TEWEN  =     -3968.53303283
  -Hartree energ DENC   =     -3115.07172093
  -exchange      EXHF   =         0.00000000
  -V(xc)+E(xc)   XCENC  =      -279.20038959
  PAW double counting   =     31301.40693860   -30683.12684962
  entropy T*S    EENTRO =        -0.11838521
  eigenvalues    EBANDS =      -441.02132641
  atomic energy  EATOM  =      6477.56235275
  Solvation  Ediel_sol  =         0.00000000
  ---------------------------------------------------
  free energy    TOTEN  =      -622.69732886 eV

  energy without entropy =     -622.57894364  energy(sigma->0) =     -622.63813625


--------------------------------------------------------------------------------------------------------




--------------------------------------- Iteration      1(   4)  ---------------------------------------


    POTLOK:  cpu time      0.5352: real time      0.5593
    SETDIJ:  cpu time      0.9900: real time      0.9903
    EDDIAG:  cpu time     13.7625: real time     13.7734
     EDDAV:  cpu time     66.8668: real time     66.9252
       DOS:  cpu time      0.0043: real time      0.0043
    CHARGE:  cpu time      5.0199: real time      5.0235
    MIXING:  cpu time      0.0105: real time      0.0105
    --------------------------------------------
      LOOP:  cpu time     87.1892: real time     87.2865

 eigenvalue-minimisations  :  4512
 total energy-change (2. order) :-0.3356704E+00  (-0.8350888E-01)
 number of electron     254.9999999 magnetization 
 augmentation part      -13.5998072 magnetization 

 Broyden mixing:
  rms(total) = 0.12127E+00    rms(broyden)= 0.97150E+00
  rms(prec ) = 0.24175E+00
  weight for this iteration     100.00
  WARNING: grid for Broyden might be to small

 eigenvalues of (default mixing * dielectric matrix)
  average eigenvalue GAMMA=   0.8812
  1.3205  0.6950  0.6281

 Free energy of the ion-electron system (eV)
  ---------------------------------------------------
  alpha Z        PSCENC =        85.40508439
  Ewald energy   TEWEN  =     -3968.53303283
  -Hartree energ DENC   =     -3119.74379032
  -exchange      EXHF   =         0.00000000
  -V(xc)+E(xc)   XCENC  =      -279.42152194
  PAW double counting   =     37125.38514342   -36507.15248358
  entropy T*S    EENTRO =        -0.10867505
  eigenvalues    EBANDS =      -436.42607606
  atomic energy  EATOM  =      6477.56235275
  Solvation  Ediel_sol  =         0.00000000
  ---------------------------------------------------
  free energy    TOTEN  =      -623.03299923 eV

  energy without entropy =     -622.92432418  energy(sigma->0) =     -622.97866171


--------------------------------------------------------------------------------------------------------




--------------------------------------- Iteration      1(   5)  ---------------------------------------


    POTLOK:  cpu time      0.5379: real time      0.5553
    SETDIJ:  cpu time      0.9884: real time      0.9889
    EDDIAG:  cpu time     13.8036: real time     13.8138
     EDDAV:  cpu time     68.7628: real time     68.8188
       DOS:  cpu time      0.0058: real time      0.0059
    CHARGE:  cpu time      4.9570: real time      4.9609
    MIXING:  cpu time      0.0104: real time      0.0104
    --------------------------------------------
      LOOP:  cpu time     89.0659: real time     89.1540

 eigenvalue-minimisations  :  4704
 total energy-change (2. order) : 0.2506543E-01  (-0.3466847E-01)
 number of electron     254.9999999 magnetization 
 augmentation part      -13.6004532 magnetization 

 Broyden mixing:
  rms(total) = 0.51167E-01    rms(broyden)= 0.13636E+01
  rms(prec ) = 0.91060E-01
  weight for this iteration     100.00
  WARNING: grid for Broyden might be to small

 eigenvalues of (default mixing * dielectric matrix)
  average eigenvalue GAMMA=   0.9081
  1.8527  0.7266  0.6194  0.4338

 Free energy of the ion-electron system (eV)
  ---------------------------------------------------
  alpha Z        PSCENC =        85.40508439
  Ewald energy   TEWEN  =     -3968.53303283
  -Hartree energ DENC   =     -3119.86626268
  -exchange      EXHF   =         0.00000000
  -V(xc)+E(xc)   XCENC  =      -280.12317477
  PAW double counting   =     37313.28028881   -36695.04090562
  entropy T*S    EENTRO =        -0.11752000
  eigenvalues    EBANDS =      -435.57476384
  atomic energy  EATOM  =      6477.56235275
  Solvation  Ediel_sol  =         0.00000000
  ---------------------------------------------------
  free energy    TOTEN  =      -623.00793380 eV

  energy without entropy =     -622.89041379  energy(sigma->0) =     -622.94917380


--------------------------------------------------------------------------------------------------------




--------------------------------------- Iteration      1(   6)  ---------------------------------------


    POTLOK:  cpu time      0.5264: real time      0.5524
    SETDIJ:  cpu time      0.9899: real time      0.9904
    EDDIAG:  cpu time     13.7700: real time     13.7820
     EDDAV:  cpu time     64.7596: real time     64.8155
       DOS:  cpu time      0.0059: real time      0.0059
    CHARGE:  cpu time      5.0397: real time      5.0438
    MIXING:  cpu time      0.0105: real time      0.0105
    --------------------------------------------
      LOOP:  cpu time     85.1020: real time     85.2006

 eigenvalue-minimisations  :  4248
 total energy-change (2. order) :-0.4791654E-03  (-0.6377843E-02)
 number of electron     254.9999999 magnetization 
 augmentation part      -13.6002604 magnetization 

 Broyden mixing:
  rms(total) = 0.28639E-01    rms(broyden)= 0.28697E+00
  rms(prec ) = 0.46746E-01
  weight for this iteration     100.00
  WARNING: grid for Broyden might be to small

 eigenvalues of (default mixing * dielectric matrix)
  average eigenvalue GAMMA=   0.9787
  2.4283  0.8774  0.6253  0.6253  0.3372

 Free energy of the ion-electron system (eV)
  ---------------------------------------------------
  alpha Z        PSCENC =        85.40508439
  Ewald energy   TEWEN  =     -3968.53303283
  -Hartree energ DENC   =     -3120.12238209
  -exchange      EXHF   =         0.00000000
  -V(xc)+E(xc)   XCENC  =      -280.33767805
  PAW double counting   =     37084.89650160   -36466.64377401
  entropy T*S    EENTRO =        -0.12278889
  eigenvalues    EBANDS =      -435.11269583
  atomic energy  EATOM  =      6477.56235275
  Solvation  Ediel_sol  =         0.00000000
  ---------------------------------------------------
  free energy    TOTEN  =      -623.00841296 eV

  energy without entropy =     -622.88562407  energy(sigma->0) =     -622.94701852


--------------------------------------------------------------------------------------------------------




--------------------------------------- Iteration      1(   7)  ---------------------------------------


    POTLOK:  cpu time      0.5278: real time      0.5542
    SETDIJ:  cpu time      0.9878: real time      0.9889
    EDDIAG:  cpu time     13.8359: real time     13.8471
     EDDAV:  cpu time     64.5477: real time     64.6067
       DOS:  cpu time      0.0046: real time      0.0046
    CHARGE:  cpu time      4.9583: real time      4.9623
    MIXING:  cpu time      0.0108: real time      0.0108
    --------------------------------------------
      LOOP:  cpu time     84.8729: real time     84.9745

 eigenvalue-minimisations  :  4232
 total energy-change (2. order) : 0.1104518E-02  (-0.9207839E-03)
 number of electron     254.9999999 magnetization 
 augmentation part      -13.6002862 magnetization 

 Broyden mixing:
  rms(total) = 0.15247E-01    rms(broyden)= 0.17981E+00
  rms(prec ) = 0.18372E-01
  weight for this iteration     100.00
  WARNING: grid for Broyden might be to small

 eigenvalues of (default mixing * dielectric matrix)
  average eigenvalue GAMMA=   0.9289
  2.6024  0.9684  0.6416  0.6416  0.3596  0.3596

 Free energy of the ion-electron system (eV)
  ---------------------------------------------------
  alpha Z        PSCENC =        85.40508439
  Ewald energy   TEWEN  =     -3968.53303283
  -Hartree energ DENC   =     -3120.17974733
  -exchange      EXHF   =         0.00000000
  -V(xc)+E(xc)   XCENC  =      -280.38085443
  PAW double counting   =     37048.90219132   -36430.64438008
  entropy T*S    EENTRO =        -0.12265360
  eigenvalues    EBANDS =      -435.01626862
  atomic energy  EATOM  =      6477.56235275
  Solvation  Ediel_sol  =         0.00000000
  ---------------------------------------------------
  free energy    TOTEN  =      -623.00730845 eV

  energy without entropy =     -622.88465485  energy(sigma->0) =     -622.94598165


--------------------------------------------------------------------------------------------------------




--------------------------------------- Iteration      1(   8)  ---------------------------------------


    POTLOK:  cpu time      0.5342: real time      0.5576
    SETDIJ:  cpu time      0.9892: real time      0.9899
    EDDIAG:  cpu time     13.7554: real time     13.7671
     EDDAV:  cpu time     64.6670: real time     64.7282
       DOS:  cpu time      0.0040: real time      0.0040
    CHARGE:  cpu time      5.0078: real time      5.0117
    MIXING:  cpu time      0.0109: real time      0.0109
    --------------------------------------------
      LOOP:  cpu time     84.9685: real time     85.0694

 eigenvalue-minimisations  :  4240
 total energy-change (2. order) :-0.5140380E-03  (-0.4080150E-03)
 number of electron     254.9999999 magnetization 
 augmentation part      -13.5989490 magnetization 

 Broyden mixing:
  rms(total) = 0.66124E-02    rms(broyden)= 0.13794E+00
  rms(prec ) = 0.80767E-02
  weight for this iteration     100.00
  WARNING: grid for Broyden might be to small

 eigenvalues of (default mixing * dielectric matrix)
  average eigenvalue GAMMA=   0.9550
  2.5814  1.2589  0.8645  0.6383  0.6383  0.3518  0.3518

 Free energy of the ion-electron system (eV)
  ---------------------------------------------------
  alpha Z        PSCENC =        85.40508439
  Ewald energy   TEWEN  =     -3968.53303283
  -Hartree energ DENC   =     -3120.43789013
  -exchange      EXHF   =         0.00000000
  -V(xc)+E(xc)   XCENC  =      -280.27733492
  PAW double counting   =     37046.47881407   -36428.21068801
  entropy T*S    EENTRO =        -0.12269608
  eigenvalues    EBANDS =      -434.87243172
  atomic energy  EATOM  =      6477.56235275
  Solvation  Ediel_sol  =         0.00000000
  ---------------------------------------------------
  free energy    TOTEN  =      -623.00782248 eV

  energy without entropy =     -622.88512641  energy(sigma->0) =     -622.94647445


--------------------------------------------------------------------------------------------------------




--------------------------------------- Iteration      1(   9)  ---------------------------------------


    POTLOK:  cpu time      0.5285: real time      0.5551
    SETDIJ:  cpu time      0.9914: real time      0.9926
    EDDIAG:  cpu time     13.7527: real time     13.7643
     EDDAV:  cpu time     71.6191: real time     71.6815
       DOS:  cpu time      0.0036: real time      0.0036
    CHARGE:  cpu time      4.9846: real time      4.9887
    MIXING:  cpu time      0.0114: real time      0.0114
    --------------------------------------------
      LOOP:  cpu time     91.8915: real time     91.9974

 eigenvalue-minimisations  :  5024
 total energy-change (2. order) :-0.2046114E-03  (-0.4836394E-04)
 number of electron     254.9999999 magnetization 
 augmentation part      -13.5986030 magnetization 

 Broyden mixing:
  rms(total) = 0.23897E-02    rms(broyden)= 0.89366E-01
  rms(prec ) = 0.28959E-02
  weight for this iteration     100.00
  WARNING: grid for Broyden might be to small

 eigenvalues of (default mixing * dielectric matrix)
  average eigenvalue GAMMA=   1.0191
  2.6429  1.7932  0.9949  0.3520  0.3520  0.7527  0.6386  0.6265

 Free energy of the ion-electron system (eV)
  ---------------------------------------------------
  alpha Z        PSCENC =        85.40508439
  Ewald energy   TEWEN  =     -3968.53303283
  -Hartree energ DENC   =     -3120.58484831
  -exchange      EXHF   =         0.00000000
  -V(xc)+E(xc)   XCENC  =      -280.24596466
  PAW double counting   =     37061.11808201   -36442.84461624
  entropy T*S    EENTRO =        -0.12271338
  eigenvalues    EBANDS =      -434.76237082
  atomic energy  EATOM  =      6477.56235275
  Solvation  Ediel_sol  =         0.00000000
  ---------------------------------------------------
  free energy    TOTEN  =      -623.00802709 eV

  energy without entropy =     -622.88531371  energy(sigma->0) =     -622.94667040


--------------------------------------------------------------------------------------------------------




--------------------------------------- Iteration      1(  10)  ---------------------------------------


    POTLOK:  cpu time      0.5336: real time      0.5569
    SETDIJ:  cpu time      0.9874: real time      0.9886
    EDDIAG:  cpu time     13.7843: real time     13.7964
     EDDAV:  cpu time     66.4406: real time     66.4971
       DOS:  cpu time      0.0057: real time      0.0057
    CHARGE:  cpu time      4.9948: real time      4.9985
    MIXING:  cpu time      0.0110: real time      0.0110
    --------------------------------------------
      LOOP:  cpu time     86.7573: real time     86.8541

 eigenvalue-minimisations  :  4424
 total energy-change (2. order) :-0.5271354E-04  (-0.1430272E-04)
 number of electron     254.9999999 magnetization 
 augmentation part      -13.5986131 magnetization 

 Broyden mixing:
  rms(total) = 0.10464E-02    rms(broyden)= 0.60920E-01
  rms(prec ) = 0.15189E-02
  weight for this iteration     100.00
  WARNING: grid for Broyden might be to small

 eigenvalues of (default mixing * dielectric matrix)
  average eigenvalue GAMMA=   1.1031
  2.8958  2.4113  1.0801  0.9097  0.3513  0.3513  0.6837  0.6374  0.6069

 Free energy of the ion-electron system (eV)
  ---------------------------------------------------
  alpha Z        PSCENC =        85.40508439
  Ewald energy   TEWEN  =     -3968.53303283
  -Hartree energ DENC   =     -3120.59721376
  -exchange      EXHF   =         0.00000000
  -V(xc)+E(xc)   XCENC  =      -280.24939956
  PAW double counting   =     37064.34083661   -36446.06466853
  entropy T*S    EENTRO =        -0.12269880
  eigenvalues    EBANDS =      -434.74934008
  atomic energy  EATOM  =      6477.56235275
  Solvation  Ediel_sol  =         0.00000000
  ---------------------------------------------------
  free energy    TOTEN  =      -623.00807981 eV

  energy without entropy =     -622.88538101  energy(sigma->0) =     -622.94673041


--------------------------------------------------------------------------------------------------------




--------------------------------------- Iteration      1(  11)  ---------------------------------------


    POTLOK:  cpu time      0.5261: real time      0.5542
    SETDIJ:  cpu time      0.9893: real time      0.9906
    EDDIAG:  cpu time     13.7406: real time     13.7520
     EDDAV:  cpu time     68.0952: real time     68.1557
       DOS:  cpu time      0.0037: real time      0.0037
    CHARGE:  cpu time      5.0343: real time      5.0387
    MIXING:  cpu time      0.0111: real time      0.0111
    --------------------------------------------
      LOOP:  cpu time     88.4004: real time     88.5061

 eigenvalue-minimisations  :  4640
 total energy-change (2. order) :-0.8976760E-05  (-0.3642793E-05)
 number of electron     254.9999999 magnetization 
 augmentation part      -13.5985916 magnetization 

 Broyden mixing:
  rms(total) = 0.58543E-03    rms(broyden)= 0.15210E-01
  rms(prec ) = 0.80591E-03
  weight for this iteration     100.00
  WARNING: grid for Broyden might be to small

 eigenvalues of (default mixing * dielectric matrix)
  average eigenvalue GAMMA=   1.1641
  3.3877  2.5620  1.3017  0.9963  0.8057  0.3513  0.3513  0.6607  0.6272  0.5972

 Free energy of the ion-electron system (eV)
  ---------------------------------------------------
  alpha Z        PSCENC =        85.40508439
  Ewald energy   TEWEN  =     -3968.53303283
  -Hartree energ DENC   =     -3120.57976021
  -exchange      EXHF   =         0.00000000
  -V(xc)+E(xc)   XCENC  =      -280.24895527
  PAW double counting   =     37063.26674114   -36444.98949989
  entropy T*S    EENTRO =        -0.12270037
  eigenvalues    EBANDS =      -434.76831849
  atomic energy  EATOM  =      6477.56235275
  Solvation  Ediel_sol  =         0.00000000
  ---------------------------------------------------
  free energy    TOTEN  =      -623.00808879 eV

  energy without entropy =     -622.88538842  energy(sigma->0) =     -622.94673860


--------------------------------------------------------------------------------------------------------




--------------------------------------- Iteration      1(  12)  ---------------------------------------


    POTLOK:  cpu time      0.5313: real time      0.5572
    SETDIJ:  cpu time      0.9911: real time      0.9914
    EDDIAG:  cpu time     13.7512: real time     13.7622
     EDDAV:  cpu time     66.4957: real time     66.5530
       DOS:  cpu time      0.0050: real time      0.0050
    CHARGE:  cpu time      5.0470: real time      5.0509
    MIXING:  cpu time      0.0113: real time      0.0113
    --------------------------------------------
      LOOP:  cpu time     86.8326: real time     86.9311

 eigenvalue-minimisations  :  4448
 total energy-change (2. order) :-0.9651096E-05  (-0.1554950E-05)
 number of electron     254.9999999 magnetization 
 augmentation part      -13.5986591 magnetization 

 Broyden mixing:
  rms(total) = 0.24934E-03    rms(broyden)= 0.11807E-01
  rms(prec ) = 0.40887E-03
  weight for this iteration     100.00
  WARNING: grid for Broyden might be to small

 eigenvalues of (default mixing * dielectric matrix)
  average eigenvalue GAMMA=   1.1694
  3.5678  2.5813  1.4169  1.0121  1.0121  0.3513  0.3513  0.7281  0.6507  0.6220
  0.5700

 Free energy of the ion-electron system (eV)
  ---------------------------------------------------
  alpha Z        PSCENC =        85.40508439
  Ewald energy   TEWEN  =     -3968.53303283
  -Hartree energ DENC   =     -3120.53803470
  -exchange      EXHF   =         0.00000000
  -V(xc)+E(xc)   XCENC  =      -280.25528087
  PAW double counting   =     37060.59731599   -36442.31940802
  entropy T*S    EENTRO =        -0.12270313
  eigenvalues    EBANDS =      -434.80439201
  atomic energy  EATOM  =      6477.56235275
  Solvation  Ediel_sol  =         0.00000000
  ---------------------------------------------------
  free energy    TOTEN  =      -623.00809844 eV

  energy without entropy =     -622.88539531  energy(sigma->0) =     -622.94674687


--------------------------------------------------------------------------------------------------------




--------------------------------------- Iteration      1(  13)  ---------------------------------------


    POTLOK:  cpu time      0.5322: real time      0.5578
    SETDIJ:  cpu time      0.9896: real time      0.9899
    EDDIAG:  cpu time     13.7844: real time     13.7958
     EDDAV:  cpu time     65.9950: real time     66.0540
       DOS:  cpu time      0.0039: real time      0.0039
    CHARGE:  cpu time      5.1189: real time      5.1239
    MIXING:  cpu time      0.0114: real time      0.0114
    --------------------------------------------
      LOOP:  cpu time     86.4356: real time     86.5367

 eigenvalue-minimisations  :  4384
 total energy-change (2. order) :-0.3763966E-05  (-0.6940854E-06)
 number of electron     254.9999999 magnetization 
 augmentation part      -13.5986767 magnetization 

 Broyden mixing:
  rms(total) = 0.14639E-03    rms(broyden)= 0.10761E-01
  rms(prec ) = 0.27290E-03
  weight for this iteration     100.00
  WARNING: grid for Broyden might be to small

 eigenvalues of (default mixing * dielectric matrix)
  average eigenvalue GAMMA=   1.1806
  3.7019  2.6065  1.6451  1.0740  1.0740  0.8412  0.3513  0.3513  0.6960  0.6247
  0.6247  0.5765

 Free energy of the ion-electron system (eV)
  ---------------------------------------------------
  alpha Z        PSCENC =        85.40508439
  Ewald energy   TEWEN  =     -3968.53303283
  -Hartree energ DENC   =     -3120.51852305
  -exchange      EXHF   =         0.00000000
  -V(xc)+E(xc)   XCENC  =      -280.25760615
  PAW double counting   =     37060.09529459   -36441.81740527
  entropy T*S    EENTRO =        -0.12269498
  eigenvalues    EBANDS =      -434.82157164
  atomic energy  EATOM  =      6477.56235275
  Solvation  Ediel_sol  =         0.00000000
  ---------------------------------------------------
  free energy    TOTEN  =      -623.00810220 eV

  energy without entropy =     -622.88540722  energy(sigma->0) =     -622.94675471


--------------------------------------------------------------------------------------------------------




--------------------------------------- Iteration      1(  14)  ---------------------------------------


    POTLOK:  cpu time      0.5529: real time      0.5532
    SETDIJ:  cpu time      0.9882: real time      0.9890
    EDDIAG:  cpu time     13.7805: real time     13.7923
     EDDAV:  cpu time     60.3191: real time     60.3728
       DOS:  cpu time      0.0039: real time      0.0039
    CHARGE:  cpu time      5.0518: real time      5.0561
    MIXING:  cpu time      0.0118: real time      0.0118
    --------------------------------------------
      LOOP:  cpu time     80.7083: real time     80.7791

 eigenvalue-minimisations  :  3728
 total energy-change (2. order) :-0.1725555E-05  (-0.3675708E-06)
 number of electron     254.9999999 magnetization 
 augmentation part      -13.5986899 magnetization 

 Broyden mixing:
  rms(total) = 0.78847E-04    rms(broyden)= 0.29651E-02
  rms(prec ) = 0.15826E-03
  weight for this iteration     100.00
  WARNING: grid for Broyden might be to small

 eigenvalues of (default mixing * dielectric matrix)
  average eigenvalue GAMMA=   1.2127
  3.8118  2.6105  2.1109  1.1573  1.0456  1.0456  0.3513  0.3513  0.8040  0.6749
  0.6243  0.6179  0.5593

 Free energy of the ion-electron system (eV)
  ---------------------------------------------------
  alpha Z        PSCENC =        85.40508439
  Ewald energy   TEWEN  =     -3968.53303283
  -Hartree energ DENC   =     -3120.50208637
  -exchange      EXHF   =         0.00000000
  -V(xc)+E(xc)   XCENC  =      -280.25990898
  PAW double counting   =     37060.10207287   -36441.82428966
  entropy T*S    EENTRO =        -0.12269391
  eigenvalues    EBANDS =      -434.83560219
  atomic energy  EATOM  =      6477.56235275
  Solvation  Ediel_sol  =         0.00000000
  ---------------------------------------------------
  free energy    TOTEN  =      -623.00810393 eV

  energy without entropy =     -622.88541002  energy(sigma->0) =     -622.94675697


--------------------------------------------------------------------------------------------------------




--------------------------------------- Iteration      1(  15)  ---------------------------------------


    POTLOK:  cpu time      0.5277: real time      0.5561
    SETDIJ:  cpu time      0.9892: real time      0.9900
    EDDIAG:  cpu time     13.7866: real time     13.7990
     EDDAV:  cpu time     53.4790: real time     53.5275
       DOS:  cpu time      0.0035: real time      0.0035
    CHARGE:  cpu time      5.0299: real time      5.0337
    MIXING:  cpu time      0.0120: real time      0.0120
    --------------------------------------------
      LOOP:  cpu time     73.8280: real time     73.9218

 eigenvalue-minimisations  :  2960
 total energy-change (2. order) :-0.1455657E-05  (-0.1470341E-06)
 number of electron     254.9999999 magnetization 
 augmentation part      -13.5986928 magnetization 

 Broyden mixing:
  rms(total) = 0.61673E-04    rms(broyden)= 0.31935E-02
  rms(prec ) = 0.12577E-03
  weight for this iteration     100.00
  WARNING: grid for Broyden might be to small

 eigenvalues of (default mixing * dielectric matrix)
  average eigenvalue GAMMA=   1.2318
  3.9084  2.5825  2.5825  1.3245  1.0248  1.0248  0.9031  0.3513  0.3513  0.7460
  0.6404  0.6404  0.6142  0.5516

 Free energy of the ion-electron system (eV)
  ---------------------------------------------------
  alpha Z        PSCENC =        85.40508439
  Ewald energy   TEWEN  =     -3968.53303283
  -Hartree energ DENC   =     -3120.48883492
  -exchange      EXHF   =         0.00000000
  -V(xc)+E(xc)   XCENC  =      -280.26050193
  PAW double counting   =     37060.28240522   -36442.00474393
  entropy T*S    EENTRO =        -0.12269692
  eigenvalues    EBANDS =      -434.84813721
  atomic energy  EATOM  =      6477.56235275
  Solvation  Ediel_sol  =         0.00000000
  ---------------------------------------------------
  free energy    TOTEN  =      -623.00810538 eV

  energy without entropy =     -622.88540846  energy(sigma->0) =     -622.94675692


--------------------------------------------------------------------------------------------------------




--------------------------------------- Iteration      1(  16)  ---------------------------------------


    POTLOK:  cpu time      0.5713: real time      0.5948
    SETDIJ:  cpu time      0.9911: real time      0.9916
    EDDIAG:  cpu time     13.7184: real time     13.7307
     EDDAV:  cpu time     53.6738: real time     53.7219
       DOS:  cpu time      0.0034: real time      0.0034
    --------------------------------------------
      LOOP:  cpu time     68.9584: real time     69.0428

 eigenvalue-minimisations  :  2984
 total energy-change (2. order) :-0.6913979E-06  (-0.9245892E-07)
 number of electron     254.9999999 magnetization 
 augmentation part      -13.5986928 magnetization 

 Free energy of the ion-electron system (eV)
  ---------------------------------------------------
  alpha Z        PSCENC =        85.40508439
  Ewald energy   TEWEN  =     -3968.53303283
  -Hartree energ DENC   =     -3120.47901828
  -exchange      EXHF   =         0.00000000
  -V(xc)+E(xc)   XCENC  =      -280.26095599
  PAW double counting   =     37060.38504073   -36442.10747414
  entropy T*S    EENTRO =        -0.12269421
  eigenvalues    EBANDS =      -434.85740850
  atomic energy  EATOM  =      6477.56235275
  Solvation  Ediel_sol  =         0.00000000
  ---------------------------------------------------
  free energy    TOTEN  =      -623.00810607 eV

  energy without entropy =     -622.88541186  energy(sigma->0) =     -622.94675897


--------------------------------------------------------------------------------------------------------




 average (electrostatic) potential at core
  the test charge radii are     0.5201  0.9892
  (the norm of the test charge is              1.0000)
       1 -35.3494       2 -34.8325       3 -34.6648       4 -35.2878       5 -34.8411
       6 -34.4679       7 -34.5940       8 -88.2753       9 -88.6275      10 -88.6083
      11 -89.1764      12 -88.6880      13 -88.7411      14 -88.4956      15 -89.0416
      16 -88.7941      17 -88.7401      18 -88.4746      19 -88.6241      20 -89.0975
      21 -88.5281      22 -88.7241      23 -88.5238      24 -88.7007      25 -88.8049
      26 -88.8207      27 -89.1161      28 -88.7020      29 -88.6293      30 -88.4520
      31 -88.7174      32 -88.7932      33 -88.5977      34 -88.3036      35 -88.9505
      36 -88.5552      37 -88.9886      38 -88.6987      39 -88.4277      40 -88.8612
      41 -88.7615      42 -88.8817      43 -88.6366      44 -88.5364      45 -88.7209
      46 -88.8705      47 -88.6912      48 -88.4758      49 -88.8103      50 -88.7783
      51 -88.6448      52 -88.5237      53 -88.5455      54 -88.3580      55 -88.7132
      56 -88.5486      57 -88.7725      58 -88.6180      59 -88.5848      60 -88.7510
      61 -88.7235      62 -88.7143      63 -88.4450      64 -88.6128      65 -88.5518
      66 -88.9486      67 -89.1405      68 -88.6210      69 -88.9091



 E-fermi :   3.3433     XC(G=0):  -8.3954     alpha+bet : -9.3631

 val. band max:        3.3420432978   @ k =   0.0000   0.5000   0.2500
 cond. band min:       3.3470301146   @ k =   0.5000   0.0000   0.2500
 fundamental gap:      0.0049868168
 Fermi energy:         3.3433082991

[...]
   -.394E+02 0.310E+02 0.574E+00   0.415E+02 -.320E+02 -.952E+00   -.247E+01 0.152E+01 0.326E+00   -.839E-04 0.428E-04 -.160E-05
   0.415E+02 -.277E+02 0.121E+02   -.428E+02 0.285E+02 -.133E+02   0.215E+01 -.109E+01 0.124E+01   0.598E-04 -.115E-03 0.358E-05
   -.220E+02 0.441E+02 -.944E+01   0.230E+02 -.465E+02 0.107E+02   -.109E+01 0.241E+01 -.147E+01   -.679E-04 0.906E-04 0.361E-05
   0.844E+02 0.808E+02 0.246E+02   -.833E+02 -.804E+02 -.239E+02   -.149E+01 0.387E-01 -.400E+00   0.812E-04 0.967E-04 0.365E-04
   -.726E+02 -.424E+02 -.209E+02   0.717E+02 0.435E+02 0.206E+02   0.188E+01 -.821E+00 0.126E+01   0.190E-03 -.469E-05 -.194E-04
   -.498E+02 0.106E+03 0.100E+02   0.507E+02 -.108E+03 -.740E+01   -.854E+00 0.182E+00 -.232E+01   -.956E-04 0.272E-03 -.226E-04
   -.114E+02 -.634E+00 -.116E+02   0.105E+02 -.299E+01 0.949E+01   0.648E+00 0.340E+01 0.180E+01   0.874E-04 0.716E-04 0.335E-04
   0.136E+02 0.603E+01 -.360E+01   -.122E+02 -.476E+01 0.275E+01   -.198E+01 -.139E+01 0.121E+01   0.140E-03 0.452E-04 -.351E-04
   -.107E+01 0.248E+02 0.274E+01   -.218E+01 -.260E+02 -.145E+01   0.367E+01 0.439E+00 -.124E+01   0.456E-04 0.892E-04 -.781E-04
   -.577E+02 0.280E+01 -.105E+02   0.568E+02 -.431E+01 0.114E+02   0.129E+01 0.105E+01 -.133E+01   0.803E-04 -.132E-03 0.423E-05
   -.180E+01 0.247E+02 0.110E+02   0.218E+01 -.240E+02 -.109E+02   -.665E+00 0.119E+00 -.158E+00   0.720E-04 0.110E-03 0.239E-05
   -.294E+02 0.461E+02 0.523E+01   0.290E+02 -.441E+02 -.454E+01   -.320E+00 -.241E+01 -.610E+00   0.734E-04 0.177E-03 -.345E-04
   0.125E+03 -.104E+03 -.660E+01   -.122E+03 0.105E+03 0.583E+01   -.286E+01 -.976E+00 0.131E+01   0.242E-04 -.271E-03 0.496E-04
   -.134E+02 -.124E+02 -.148E+01   0.115E+02 0.118E+02 0.122E+01   0.195E+01 0.364E+00 0.209E+00   0.136E-03 -.103E-03 -.326E-04
   -.315E+02 -.136E+02 0.239E+02   0.313E+02 0.118E+02 -.225E+02   0.181E+01 0.149E+01 -.191E+01   0.267E-03 0.109E-03 -.259E-04
   -.264E+02 0.110E+03 0.235E+02   0.247E+02 -.110E+03 -.206E+02   0.164E+01 0.322E+00 -.347E+01   -.975E-04 0.320E-03 -.278E-04
   -.310E+02 -.932E+01 0.236E+02   0.301E+02 0.110E+02 -.219E+02   0.337E+00 -.127E+01 -.326E+01   0.266E-03 0.263E-03 0.858E-05
   -.156E+02 0.480E+02 -.908E+01   0.174E+02 -.488E+02 0.773E+01   -.944E+00 -.786E+00 0.157E+01   0.857E-04 0.111E-03 0.160E-04
   0.141E+02 -.509E+00 -.235E+02   -.135E+02 -.203E+01 0.214E+02   -.471E+00 0.315E+01 0.290E+01   0.598E-04 -.324E-04 -.364E-04
   0.112E+02 -.555E+02 0.616E+01   -.128E+02 0.535E+02 -.531E+01   0.136E+01 0.139E+01 -.420E+00   -.175E-03 0.177E-04 0.160E-04
   -.351E+02 0.429E+02 0.846E+01   0.358E+02 -.439E+02 -.746E+01   -.682E+00 0.156E+01 -.526E+00   0.211E-04 0.639E-04 -.274E-04
   0.374E+02 -.251E+02 -.157E+01   -.378E+02 0.230E+02 0.235E+01   0.134E+01 0.196E+01 -.155E+01   -.106E-03 0.458E-04 0.397E-05
   0.724E+02 -.846E+02 -.139E+02   -.700E+02 0.837E+02 0.121E+02   -.274E+01 0.234E+00 0.159E+01   -.195E-03 -.611E-04 0.329E-04
   -.909E+01 -.982E+01 0.534E+01   0.821E+01 0.987E+01 -.374E+01   0.861E+00 0.294E+00 -.195E+01   0.165E-03 0.634E-04 0.391E-04
   -.679E+02 0.189E+02 0.145E+02   0.690E+02 -.203E+02 -.154E+02   -.120E+01 0.186E+01 0.470E+00   -.251E-04 -.543E-04 -.395E-04
   0.578E+02 0.489E+02 0.188E+02   -.584E+02 -.467E+02 -.184E+02   0.263E+00 -.318E+01 -.750E+00   0.140E-03 -.886E-04 0.851E-04
   -.959E+02 -.536E+02 -.921E+01   0.946E+02 0.508E+02 0.938E+01   0.149E+01 0.282E+01 -.147E+01   0.117E-03 -.111E-03 -.271E-04
   -.922E+02 -.679E+02 0.144E+02   0.926E+02 0.674E+02 -.152E+02   -.129E+01 0.604E+00 0.172E+01   0.343E-03 -.232E-03 -.788E-04
   -.255E+02 -.656E+02 -.167E+02   0.258E+02 0.671E+02 0.143E+02   -.955E+00 -.117E+01 0.286E+01   -.144E-03 0.583E-04 0.465E-04
   0.718E+01 -.263E+02 0.123E+02   -.823E+01 0.247E+02 -.119E+02   0.341E+01 0.151E+01 -.832E+00   0.142E-03 -.668E-04 -.263E-04
   0.402E+02 0.954E+02 -.334E+02   -.382E+02 -.953E+02 0.295E+02   -.229E+01 -.601E+00 0.386E+01   -.137E-03 0.301E-03 0.297E-05
   -.348E+02 0.566E+02 -.984E+01   0.331E+02 -.560E+02 0.941E+01   0.166E+01 0.147E+00 0.700E-01   0.364E-04 0.233E-03 0.192E-04
   0.133E+02 -.691E+02 0.782E+01   -.141E+02 0.661E+02 -.594E+01   0.114E+01 0.229E+01 -.213E+01   -.212E-03 0.509E-04 -.216E-04
   0.783E+02 -.388E+02 0.178E+01   -.749E+02 0.368E+02 0.468E+00   -.362E+01 0.226E+01 -.112E+01   0.147E-03 -.713E-04 0.211E-04
   -.504E+02 -.229E+02 0.682E+01   0.499E+02 0.246E+02 -.770E+01   -.133E+00 -.179E+01 0.104E+01   0.162E-03 -.114E-03 0.124E-04
   0.337E+02 -.139E+02 -.593E+01   -.347E+02 0.141E+02 0.728E+01   0.924E+00 0.103E+01 -.687E+00   0.269E-04 0.160E-04 0.142E-04
   0.966E+02 -.578E+02 -.211E+02   -.969E+02 0.562E+02 0.186E+02   0.153E+01 0.189E+01 0.266E+01   0.113E-03 -.806E-04 -.186E-04
   0.251E+02 0.546E+01 0.111E+02   -.244E+02 -.409E+01 -.114E+02   -.688E+00 -.133E+01 -.341E+00   -.151E-04 0.697E-04 -.223E-04
   -.608E+02 -.850E+02 -.152E+02   0.626E+02 0.856E+02 0.128E+02   -.175E+01 -.114E+01 0.290E+01   -.201E-03 -.146E-03 0.295E-03
   0.915E+01 0.487E+02 0.898E+01   -.857E+01 -.473E+02 -.832E+01   -.368E+00 -.104E+01 0.208E+00   -.165E-03 0.175E-03 -.251E-04
   0.930E+02 -.757E+02 0.149E+02   -.959E+02 0.743E+02 -.155E+02   0.205E+01 0.270E+01 -.705E+00   0.142E-03 -.189E-03 0.371E-04
   0.274E+02 -.273E+02 -.435E+01   -.269E+02 0.278E+02 0.365E+01   -.197E+00 0.540E+00 0.883E+00   -.161E-03 0.417E-04 -.243E-05
   -.113E+03 -.985E+02 0.636E+01   0.114E+03 0.100E+03 -.502E+01   -.725E+00 -.188E+01 -.211E+01   0.128E-04 -.164E-03 0.467E-04
   -.377E+01 -.205E+02 -.115E+02   0.353E+01 0.214E+02 0.106E+02   -.636E-01 -.487E+00 0.820E+00   0.157E-03 -.284E-04 -.725E-05
   0.190E+02 0.226E+02 -.129E+02   -.180E+02 -.229E+02 0.123E+02   -.210E+01 0.739E+00 0.658E+00   -.126E-03 0.102E-03 -.198E-04
   0.112E+01 0.253E+02 -.786E+01   -.328E-01 -.243E+02 0.734E+01   -.295E+00 -.105E+01 0.567E+00   0.135E-03 0.971E-04 -.232E-04
   0.592E+02 -.459E+01 -.937E+01   -.576E+02 0.593E+01 0.871E+01   -.158E+01 -.518E+00 0.165E+01   0.140E-03 -.116E-03 0.182E-04
   0.133E+03 -.161E+02 0.185E+02   -.130E+03 0.161E+02 -.133E+02   -.304E+01 0.148E+00 -.613E+01   0.278E-03 -.104E-03 -.824E-04
   -.280E+02 -.523E+02 0.133E+02   0.271E+02 0.524E+02 -.117E+02   0.948E-01 0.102E+01 -.182E+01   -.945E-04 0.975E-04 -.691E-04
   0.673E+02 0.972E+02 -.906E+01   -.689E+02 -.979E+02 0.801E+01   0.160E+01 0.545E+00 0.551E+00   0.913E-04 0.290E-03 0.165E-04
   0.674E+01 0.482E+02 -.648E+01   -.594E+01 -.485E+02 0.527E+01   -.164E+00 0.118E+01 0.606E+00   -.144E-03 0.205E-03 0.360E-04
   -.187E+02 0.123E+02 0.105E+02   0.169E+02 -.123E+02 -.956E+01   0.317E+01 0.231E+00 -.442E+00   0.777E-04 -.278E-04 0.305E-04
   -.208E+02 -.288E+02 0.592E+00   0.211E+02 0.263E+02 -.254E+00   -.422E+00 0.274E+01 -.331E+00   0.129E-03 0.214E-03 0.601E-04
   0.531E+02 -.296E+02 0.596E+01   -.532E+02 0.302E+02 -.660E+01   0.912E-01 -.189E+01 0.541E+00   -.217E-04 -.406E-04 0.267E-05
   0.100E+03 0.539E+02 -.108E+02   -.993E+02 -.516E+02 0.993E+01   -.147E+01 -.254E+01 0.857E-03   0.204E-03 0.423E-04 -.311E-04
   -.209E+02 -.698E+01 -.244E+02   0.218E+02 0.666E+01 0.229E+02   -.130E+01 0.658E+00 0.137E+01   0.209E-03 0.110E-03 0.364E-05
   -.482E+02 0.293E+02 -.905E+01   0.484E+02 -.296E+02 0.852E+01   -.856E+00 0.605E+00 0.753E-01   0.535E-04 -.504E-04 0.316E-04
   -.119E+03 0.180E+02 -.513E-01   0.119E+03 -.153E+02 0.103E+01   -.671E+00 -.264E+01 -.444E+00   -.160E-03 -.188E-03 -.685E-05
   0.283E+02 -.313E+02 -.166E+01   -.286E+02 0.325E+02 -.335E+00   0.940E+00 -.161E+01 0.184E+01   0.123E-03 -.214E-04 0.255E-04
   -.714E+02 0.631E+02 -.180E+01   0.718E+02 -.634E+02 0.282E+01   -.483E+00 0.226E+00 -.988E+00   -.799E-04 0.526E-04 0.187E-04
   0.356E+02 0.468E+02 0.172E+02   -.358E+02 -.487E+02 -.182E+02   0.149E+00 0.103E+01 0.117E+01   -.110E-03 0.177E-03 0.773E-04
   0.492E+01 0.221E+02 -.360E+01   -.752E+01 -.203E+02 0.397E+01   0.280E+01 -.287E+01 -.727E-01   -.669E-04 0.695E-04 0.163E-04
   0.221E+02 0.276E+02 0.383E+01   -.180E+02 -.253E+02 -.323E+01   -.455E+01 -.249E+01 0.246E+00   0.157E-03 0.107E-03 -.111E-04
   -.801E+02 -.618E+02 -.502E+00   0.787E+02 0.604E+02 -.316E+00   0.217E+01 0.111E+01 0.158E+01   0.969E-04 0.206E-03 -.226E-03
   0.749E+00 0.253E+02 0.630E+01   0.176E+00 -.240E+02 -.390E+01   -.109E+01 -.210E+01 -.233E+01   0.156E-03 0.992E-04 -.227E-04
 -----------------------------------------------------------------------------------------------
   0.688E+01 -.826E+01 0.350E+01   0.213E-12 0.355E-13 0.240E-13   -.687E+01 0.826E+01 -.350E+01   0.243E-02 0.209E-02 0.122E-03


 POSITION                                       TOTAL-FORCE (eV/Angst)
 -----------------------------------------------------------------------------------
     11.30770      8.15683      4.00033        -0.548627     -0.009585      1.176430
      5.68485      5.96673      5.94462         0.027942      0.166431     -0.055762
      8.78432     10.99690      1.16245        -0.210572     -0.005639     -0.104256
      4.40035      8.87734      6.13540         0.128611     -0.299406     -0.031749
      4.64756     10.73180      2.34636        -0.394050      0.536895     -0.052212
      9.63605      6.28079      5.09580         0.845137     -0.295555      0.040103
      5.87844     11.25930      0.00730        -0.096504     -0.013138     -0.173306
     11.29950     12.11340      6.10214        -0.239648      0.599351      0.402716
      3.12926      4.54949      4.82562         1.010246      0.246997      1.018788
      5.34666     12.46540      6.88958        -0.016105     -1.276285      0.186334
     14.12230      0.03856      0.86677        -0.272027     -0.106182     -0.203514
      0.02412      4.28399      3.38968        -0.694008     -0.156864      0.409608
     12.53840     13.51840      4.74984         0.546570     -0.802158     -0.028481
      1.28414      9.20147      7.18958         0.453353     -0.423933     -0.459623
     13.87400      0.50189      6.09756        -0.355320      0.857856      0.000376
      5.06940      0.12187      4.35077        -0.723489     -0.538178      0.027666
      9.88991      5.65062      0.30397        -0.547686     -0.327528      0.614784
      0.07163     10.23520      4.16482         0.084162     -0.227977     -0.039553
      1.24070      4.09291      1.50309         1.684405     -0.236090     -0.590015
      6.94418     13.31110      5.38776         0.071781      0.909503     -0.749838
      2.93452      2.40226      1.70026        -0.490525      0.311645     -1.656297
      3.47760     13.91310      2.59858         0.886946     -1.648460      0.272400
     13.39320     11.83890      3.05935         0.078357      0.725622      0.946352
      8.35385      2.27059      6.45001        -0.204227     -0.589988      0.431360
      3.05618     12.18590      6.20722         0.000838      0.621504      0.475359
     11.15240      2.75607      1.12206         1.078835     -0.057738     -0.854043
      8.99265      3.51912      0.79622        -0.344853     -0.700749     -0.157060
     14.36790      4.00788      7.28315         0.061149      0.366192     -0.473289
      2.40527     10.61450      4.49037        -0.175698      0.621675     -0.404537
     12.66820     10.92430      7.52538        -0.390300     -1.084991     -0.426060
      2.34497      6.68320      4.53429         0.180463      0.066312     -1.400131
      2.59313      6.23624      1.88853        -0.997413      0.027134      1.006245
      6.05535      2.77316      6.16496        -0.719843      0.178414      0.608247
     13.99900      8.30645      2.92565         2.541946     -0.070989     -0.416260
      8.77347     13.37570      3.39806        -0.399595     -0.548681      0.023337
      5.17684     14.04510      1.02785         0.068158      0.746287     -0.374510
      7.91642      2.23064      2.65893         0.468156     -0.556315     -0.336219
     12.93620      6.92845      5.71522        -0.320708      0.314758      1.115307
      0.79348      7.55208      1.09276        -0.627598     -0.265371      0.222287
     12.31180      3.89366      2.78917        -0.144948      1.350589      0.630031
     11.58240      6.02879      1.75906         1.354010      0.370481      0.202681
     12.57490      2.58764      6.71975        -0.056589      0.007352     -0.623321
      4.90038      4.84660      6.52182        -0.021566     -0.552231      0.560088
      8.18220     14.53930      7.04873         0.209823      0.222101      0.899912
     10.84730      5.65756      5.85144        -0.839587      1.484919     -1.357308
      9.60173      1.95305      4.39516         0.325461      1.132290      0.234629
      4.72610      5.49546      1.38206         0.000925     -0.162884     -0.873627
      0.06672      6.45560      4.20897        -0.318308      0.318178     -0.044848
     10.88390      0.06925      3.60378        -1.268870      0.457978      0.095042
      3.08751      0.10051      5.82452         0.822484     -0.041759      0.040603
     13.68690      9.21835      6.04901         0.029948      0.813629      1.086738
     11.79990      8.29107      2.66886        -0.859772      0.075918     -1.048690
      5.92859      2.22786      3.89556        -0.823503      1.157052     -0.332930
      9.71643     11.96510      1.79534         0.129000     -0.212526     -0.491280
      7.37988     14.48080      1.78314         0.637442      1.041315     -0.597675
     14.25290     12.25890      0.91645         1.467450      0.206980      0.507354
      4.34246      1.38769      7.46568        -0.101042      0.336357     -0.000464
     11.30930      3.63940      4.88800        -0.042365     -1.336397     -0.077950
     11.65720     10.63880      2.11682        -0.679201     -0.409704     -0.958811
      1.16652      3.45255      5.32260        -0.471655      0.369779     -0.070783
      1.97324     11.27310      0.58640        -0.726010      0.353338     -0.489184
      3.05464      8.68264      5.55041        -0.941211      0.007008      0.529514
     13.48270      6.21616      0.24929         0.679759     -0.453102     -0.074610
      3.33861     11.49850      2.52622        -0.027655     -0.112144     -0.041458
     10.30340     13.62430      0.03011        -0.107630     -0.858400      0.284769
     11.66100      0.56470      1.38348         0.319159     -1.177520      0.314388
      1.55727      0.69294      2.34508        -0.619785     -0.325761      0.871516
      4.28298      3.73144      2.92171         0.843639     -0.242827      0.855290
      1.26381      1.21135      4.79844        -0.217664     -0.874783     -0.020597
 -----------------------------------------------------------------------------------
    total drift:                                0.011233     -0.003708      0.006754


--------------------------------------------------------------------------------------------------------



  FREE ENERGIE OF THE ION-ELECTRON SYSTEM (eV)
  ---------------------------------------------------
  free  energy   TOTEN  =      -623.00810607 eV

  energy  without entropy=     -622.88541186  energy(sigma->0) =     -622.94675897



--------------------------------------------------------------------------------------------------------


    POTLOK:  cpu time      1.5035: real time      1.5051


--------------------------------------------------------------------------------------------------------


     LOOP+:  cpu time   1463.4699: real time   1465.0794
    4ORBIT:  cpu time      0.0000: real time      0.0000



 total charge

# of ion       s       p       d       tot
------------------------------------------
    1        0.597   0.020   0.000   0.617
    2        0.571   0.016   0.000   0.586
    3        0.570   0.015   0.000   0.586
    4        0.564   0.016   0.000   0.580
    5        0.548   0.014   0.000   0.561
    6        0.542   0.012   0.000   0.554
    7        0.565   0.015   0.000   0.580
    8        0.794   0.881   0.000   1.675
    9        0.751   0.943   0.000   1.695
   10        0.747   0.942   0.000   1.689
   11        0.754   0.854   0.000   1.607
   12        0.755   0.958   0.000   1.713
   13        0.753   0.913   0.000   1.666
   14        0.753   0.919   0.000   1.672
   15        0.756   0.857   0.000   1.613
   16        0.760   0.871   0.000   1.631
   17        0.794   0.898   0.000   1.693
   18        0.749   0.954   0.000   1.703
   19        0.767   0.919   0.000   1.686
   20        0.759   0.839   0.000   1.597
   21        0.755   0.942   0.000   1.697
   22        0.754   0.913   0.000   1.667
   23        0.755   0.937   0.000   1.692
   24        0.749   0.917   0.000   1.666
   25        0.748   0.886   0.000   1.634
   26        0.755   0.948   0.000   1.703
   27        0.755   0.890   0.000   1.645
   28        0.748   0.924   0.000   1.672
   29        0.745   0.947   0.000   1.692
   30        0.755   0.926   0.000   1.681
   31        0.751   0.925   0.000   1.676
   32        0.770   0.854   0.000   1.625
   33        0.750   0.908   0.000   1.658
   34        0.761   0.974   0.000   1.735
   35        0.761   0.853   0.000   1.614
   36        0.759   0.933   0.000   1.691
   37        0.753   0.870   0.000   1.623
   38        0.750   0.924   0.000   1.674
   39        0.750   0.932   0.000   1.683
   40        0.753   0.919   0.000   1.672
   41        0.756   0.903   0.000   1.660
   42        0.758   0.867   0.000   1.625
   43        0.749   0.898   0.000   1.647
   44        0.753   0.908   0.000   1.661
   45        0.746   0.952   0.000   1.697
   46        0.753   0.880   0.000   1.633
   47        0.803   0.815   0.000   1.618
   48        0.754   0.971   0.000   1.725
   49        0.758   0.911   0.000   1.669
   50        0.756   0.877   0.000   1.633
   51        0.757   0.891   0.000   1.649
   52        0.750   0.995   0.000   1.745
   53        0.751   0.944   0.000   1.696
   54        0.748   0.943   0.000   1.691
   55        0.753   0.883   0.000   1.636
   56        0.759   0.933   0.000   1.691
   57        0.761   0.851   0.000   1.613
   58        0.753   0.930   0.000   1.683
   59        0.754   0.920   0.000   1.674
   60        0.755   0.935   0.000   1.690
   61        0.748   0.894   0.000   1.643
   62        0.735   0.969   0.000   1.705
   63        0.763   0.907   0.000   1.670
   64        0.737   0.944   0.000   1.681
   65        0.754   0.895   0.000   1.649
   66        0.760   0.890   0.000   1.650
   67        0.751   0.885   0.000   1.636
   68        0.756   0.933   0.000   1.689
   69        0.749   0.903   0.000   1.652
--------------------------------------------------
tot         50.806  56.609   0.000 107.416


 total amount of memory used by VASP MPI-rank0   148478. kBytes
=======================================================================

   base                                    :      30000. kBytes
   nonl-proj                               :      25259. kBytes
   fftplans                                :      30753. kBytes
   grid                                    :      23712. kBytes
   one-center                              :         15. kBytes
   wavefun                                 :      38739. kBytes

  
  
 General timing and accounting informations for this job:
 ========================================================
  
                  Total CPU time used (sec):     1513.732
                            User time (sec):     1507.190
                          System time (sec):        6.543
                         Elapsed time (sec):     1515.349
  
                   Maximum memory used (kb):      318392.
                   Average memory used (kb):          N/A
  
                          Minor page faults:       228294
                          Major page faults:         1146
                 Voluntary context switches:         2790
