/u/vld/spet5633/Silicon/a-Si_potential/DFT_1200eV/Testing/Paper/surfaces/amorphous/anneals/6/cleaved_surface.data (written by ASE) 

2508 	 atoms 
2  atom types
0.0      42.803955704057834  xlo xhi
0.0      42.803955704057834  ylo yhi
0.0      41.399647993507585  zlo zhi


Atoms 

     1   1      21.392762293024827      5.1081578572991369      20.238678941839598
     2   2      3.4778758885567105      1.1854411295546909      11.227835123389395
     3   2      2.4378410983281444      3.3851370695086276      11.550825515725631
     4   2      3.8039344596786311      1.4553645264166317       13.52550514122769
     5   2     0.18790680380452793       2.810257653995861      11.625370111022296
     6   1      5.0015741129449953      2.3235877299908783      13.753483859282396
     7   1      5.1851019712435988       3.236482435520363      11.119472672729881
     8   2      6.0787585406743334      4.0080392950543322      12.012922564248456
     9   2      7.8404602902789584      2.4975430934736265      12.663169408440355
    10   2      7.9383771016203086      1.7355017587814008      10.440165865818825
    11   1      9.2568142488303486      1.8328543812735927       12.79446738183646
    12   2      11.309957101425198      2.6959945598588888      11.789502889639545
    13   2      11.162522717950679       1.297762397967811      13.623626772975856
    14   1      10.457441214621255      3.8017838159063579      12.332463194457389
    15   1      8.6160022430427325      3.7124832631159719      13.108725615625438
    16   1      13.563604710958616      2.2664112948740325      13.020782104877894
    17   2      15.265661874920731      3.6801703343859389      10.745162820601719
    18   2      15.007986369913343      2.6373073321654141      12.818009846257869
    19   2      15.895352763370072     0.59213094915401354      13.357316424140432
    20   2       12.92476449360321       4.017890464707059      10.822679781924162
    21   1      16.572481285232854      0.1328264219853599      10.682966460859177
    22   1      17.318669528227613      0.5697966396657177      12.934492853146541
    23   2      17.885371948782094      3.9344842947987884       12.02526693779804
    24   2      20.684793667085582      2.5689352368842062      12.401149833372742
    25   2       18.91006914182061      2.2464779587470836      10.848991286703225
    26   2      17.982535535349566      0.1965121375161599      10.224059234010623
    27   2      19.376636067123364    0.049464489162110624      13.853519191860659
    28   1      2.5148339551017296      7.1175110940039019      12.161448566423308
    29   2       2.709739385176412      4.4487741128251832      13.585064472868261
    30   2      2.9231759550306053      8.4932350762923186      11.746966296841366
    31   2     0.36085073952606839      6.7032064710484827      10.335388645237201
    32   1      8.3672625094000779      5.9931483207984577      11.556566138109428
    33   2      7.0974128292150231      5.6810461935566696      10.812433179655741
    34   1      8.2678032364304066      7.6550747024424854      13.268127597607593
    35   2      5.2268020370369275      7.9939872075495044      12.912591257666767
    36   2      4.9480207136181846      4.9398731523595281      13.742785368649532
    37   1      4.7567064211308452      6.5809286334280763      13.558852999437388
    38   2      5.6485158534617286      7.4755411815175288       10.67547662070271
    39   2      11.165219459159012      5.4336197025799908      10.138688323278215
    40   2      10.534055875810477      6.4496792311413396      12.259004665887801
    41   2      11.884221837273968      8.3481916970846122      13.350224974567254
    42   2      11.182358736284746      5.2948651787821666      14.150513402726354
    43   2      12.960462966342408      5.5790630498660194      12.536528567541339
    44   2      16.545325244821182      5.6924318320208211        10.9927371703189
    45   2      16.349218596874348      7.1350035592575356      12.885414147636794
    46   2      14.582874775674242       6.195799828814768      14.111683941379646
    47   2      13.411995489890131      7.8749097420961629      11.585754598721758
    48   2      20.134531867803549      4.8323659829558965      12.393717051742247
    49   2      20.275500312307024       6.234954288553185      10.540986150037261
    50   2      20.854727391669279      8.1964875092486498      11.536917868619353
    51   2      3.3953281546244369      12.154526725429745      10.651109463197505
    52   2      1.1630078947696791      9.7137276094426284      10.797065753819016
    53   2      1.0901834991489501      12.074892990326596      10.402775983882599
    54   2      3.5162944233063747      11.686211789905752      12.909678052259174
    55   2      3.6980265855497207      9.5107483081838176      13.818339441017804
    56   2    0.095490084886440979      12.242918890972149      12.510563615442251
    57   2      6.4026165707739242      9.6259831922313559      10.235302351093338
    58   1      4.7537000289217808      12.352593637160258      13.406641936130688
    59   2      7.2632767375351444      8.6738611661633733      13.706150778142909
    60   2      7.2324024397414304      10.488753239808462      12.263492333531529
    61   2      7.0919471881719574      12.273331044879358      13.899620067716212
    62   1      10.926834165272075      9.6473910255386528      12.115238624334483
    63   1      10.412835312381867      9.0067755437219521      13.973306078175074
    64   2      8.9128881261151136       11.89925785623616      11.448724358439241
    65   2      12.296248632376386      12.634243760435169      12.947994220316126
    66   1      11.705205021905515      11.003335129736278      10.313338916913224
    67   2      10.477030241088293      10.344954588210109       10.86853344999424
    68   2      13.135138799198613      10.424698099407223      13.671241487603123
    69   2      14.436286347484163      10.149296034376489      11.586636216701802
    70   2      16.579806229134299      9.3170158706065624      12.055420267886845
    71   2       15.28856498387572      12.414489808385794       11.87740627619516
    72   2      18.312641188874764      10.557853173642977      13.057750005741571
    73   2      18.807826027846414      12.469196970036807      11.640217745273183
    74   2      20.840773914949441      11.430777630889365      12.433505431151318
    75   2      19.588988231615264       8.598005248761126      13.422227963127046
    76   2      20.780683224015888      10.158876660807907      10.413629954431887
    77   2      1.8818435235574338      13.189370099908984      13.585416580814643
    78   1     0.42808030292553745      15.178000078880945      11.260256562367882
    79   1      2.7892696002593098       15.10785376721145      11.245287976270056
    80   2      1.7368361742417195       15.12785311223938      12.280800707170444
    81   2      2.1376282910160196      16.865617150323224      13.737794686209545
    82   2      6.4779991557412373      13.934553409410681      12.331296262722116
    83   2      4.8958033218415586      13.931654797198579       10.66445913576513
    84   2      8.1882972486091994      15.452806446059471      11.769480697976144
    85   2      5.6766592281694068      15.235583968863152      14.021832906522201
    86   1      7.7537315105693345      15.451595590684505       10.21549000714586
    87   2      4.5441242004124307      16.161208957894868      10.167093526652412
    88   2      4.4242415181253829      17.103993245433816      13.789168427429598
    89   2      7.6367403267314593      16.480576319602321      14.168533191093296
    90   2      10.058947955600797      13.063905192497325      13.126406829135277
    91   2      10.516293073936639      15.707382021597017      11.155821315274203
    92   2      10.712393545735916      16.852652169318393      13.452221360307767
    93   2      13.361653159104605      13.307015466062071      11.014914511344816
    94   2      16.910278389506985      12.873022487186461      10.367493141948879
    95   2      13.783657504763379       16.52389259579865      13.839136006748449
    96   2      13.382256704238646      14.221030323473371      14.258626781976965
    97   2      12.856913523312567      15.534755738775756      10.605072579225066
    98   2      16.896177693881775      14.710515402937874      14.210792826199889
    99   1      16.270171376097718      15.774748587818106      10.251721884758268
   100   2      15.341366707346944      13.045049741054074      14.036568659896346
   101   2      19.048667334513233      16.313445255820966        11.7211853450173
   102   2      18.817682473007043      14.310872710410068      13.012583812521941
   103   1      2.5536324171423175      21.218374705348435      10.257804127338732
   104   1      2.6670077606326035      19.564975506762412      12.277093455208373
   105   1      1.2561401696739398      18.284185247254573      11.625903336177174
   106   2      1.1647015435740893      18.363030463759952      10.147575512701108
   107   2      2.5138892865080122      19.188024839098265      13.706243118508727
   108   2      5.1669415942560013      17.796698436761876      11.706908259648186
   109   2      6.2419215266424883      20.711316297323556      13.649972811359154
   110   2      7.4652097479750434      17.662243350109812      11.683359137521547
   111   2      5.1348281101640891       19.80587908191384      10.440751592047189
   112   2      8.1191735915667795      19.374638119583111      13.132928457253353
   113   1      9.7179830473808799      17.820593673248634      12.801803082824463
   114   2      8.7446000637567316      20.921394694588489      11.465947520417226
   115   2      11.511910343068385      20.026926446017022      13.898937645051349
   116   2      12.181851610111828       19.34526999091252      11.754763438309189
   117   2      10.380729319785447      19.683680617781693      10.371864884768859
   118   2      13.560255522826813      21.043980667161605      13.537202611085062
   119   1      14.899534150214052      17.903808449871036      11.192671987931176
   120   2      15.729325816578555      20.237229512194315      13.443600456273769
   121   2       13.58191071379902      17.446372823335693      11.732422795777415
   122   2      18.190826648406201       18.13089524803792      10.513107179080432
   123   2      21.319151929346042      20.935020572382534      12.250552854076208
   124   2      18.192319793952631      17.338683215031377      13.794895266314432
   125   2      17.473056501290845      19.970158117040892      11.811716973827927
   126   2      18.507388118051338      19.631364556590338      13.905480573300755
   127   2       21.02983273065632      17.244678792368788      12.456828738640667
   128   2      20.862766407855599      19.233537676641138      13.728719681358568
   129   2      20.400900292142101      21.077900180410737      10.134223682524791
   130   1      2.8476420288743713       2.786893216349748      16.060681862176715
   131   2      2.1906208934755154      2.5353444185679495      14.746529769982299
   132   2     0.12116523757276194       2.960342761731432      17.037162097678294
   133   2      2.0128768265527155      2.5665134233499405      18.336933945881192
   134   2      3.8086993738822765      4.0695780045629704      18.310530590015496
   135   2      2.5932102169575262     0.38584398284836907       17.78743768802601
   136   2      4.5107827550961908     0.47018231340952565      16.583542913456078
   137   2      7.0143610090039461      2.8729679593899777      15.912958061082687
   138   2      7.1016100582020893      1.0650535510657837      14.383735597752565
   139   2      5.3422005751041208      2.4542879765416292      17.433528840468565
   140   2      9.8750526316210863     0.73048983888384889      17.005539055199687
   141   2      9.0861215301282279      2.9223916494947368      16.985195505277058
   142   1      11.758142746047614      3.1140199887452233      15.999212365772859
   143   2      10.629814326190804       3.154935703467578      15.025707495240855
   144   1      9.7265707735160589      4.2442725342318059      17.312898143928464
   145   2      15.669071859790813     0.71668281393061473      15.697225671698913
   146   1       13.11799154373081      2.5540362093004667      16.080883987792898
   147   2      14.583623788015332      2.6726368314620581      16.242336031212332
   148   2      15.367217300759371      4.0885186693450484      14.612293272979461
   149   2      14.917776650055968      3.5500244475237568      18.319286831909942
   150   2      21.310871400228965    0.037239604406054685       17.48284242237262
   151   2      20.456043853545328      3.4470619874379995      15.500810199050754
   152   2      17.728884552735742     0.88829814204993884      16.752229153768894
   153   2      17.622433007372695      3.8310515344520231      14.311267118107789
   154   2      18.786886800418582      1.9430201076759044      14.951061375295534
   155   2      20.088231842001729      3.9700050496028618      17.771065776040452
   156   2      18.536869072201394       2.309075121420729      18.400147808218598
   157   2      1.3238264485762841      6.0980137487207662      14.345677016839755
   158   1      3.4249292967992306      5.5849759827937779      15.690612450132551
   159   2     0.23590489933595726      5.1331977508644844      16.236161789357574
   160   2      3.8083147584504773      6.0334263225415503      17.053543826429465
   161   2      2.2918219588194346      7.9435169218002146      17.262207379310837
   162   2      2.0811555258328149      8.2198819421505949      14.906694442131757
   163   2     0.81636232602839076      6.3704160085433683      18.091229650424143
   164   1      7.9718578520562824      5.5628717905661782      14.555352661108477
   165   2      6.8686022125098738      8.2888862861948578      17.685508866049883
   166   2      6.7287940105684019      5.0539324016218874      15.201640183850477
   167   2      6.1092167509139284      6.1815521734291439      17.111096966758225
   168   1      11.628844518184529      4.9116446725304019      18.381977978341673
   169   1      9.5407037991121602      7.7287029557206122      15.537366951897228
   170   2      12.041967488180898      7.7196905180364137      17.178548599148737
   171   2      10.906073685297935      6.2086010857034069      18.444261606293288
   172   2      12.586657805075074      6.9304303349074061      15.089960075206484
   173   1      13.372215087474947      5.7805356048608569      17.436077827668296
   174   1      15.497430819265832      6.5395950261240987      17.074475596717907
   175   2      14.700957664754149      5.8043225606996813      18.092850963510301
   176   2        18.0562057340255      7.2102693971432181      14.455662101049256
   177   1      17.395234260472062      5.3517219252310397      17.146722036627622
   178   2      19.441310039466337      5.3559151872317026      14.587917956782704
   179   2      19.447283246752065      7.7948041613682379       17.67212195010012
   180   2      18.578823989541743      5.6844021743507902      17.980973323639283
   181   1      1.1790404297778136      9.0918393316353576      17.242679445490054
   182   2      4.1472197166173626      10.364699024564715      16.000701837180308
   183   2      2.1714451681064162      11.567403703974783      16.640999909700206
   184   2    0.062583119838365953      9.2909137505804757      14.545907895018505
   185   2      7.3737723646340712      9.6215667369233397      15.906771906918248
   186   2       5.652950087601611      12.105058242150726      15.720670770828967
   187   2      5.2271408013344187       9.771181406993076      18.438835548091873
   188   2      4.5269185652990043      11.995897227895894      18.046710658411858
   189   2      7.2072055655097378       11.66904826839111      17.373896325907939
   190   2      9.2284950330621012      11.581069462081642      14.709450581186541
   191   2      9.2318893119563263      12.569562541642293      16.794696518644059
   192   2      9.6006779496458314      9.2596854892537248      15.359012783762442
   193   2      11.195577014505668      9.8156479483102679       16.87171863631167
   194   2      10.551637354372158      11.428055252401835      18.334515342734868
   195   1       14.51642696295219      9.9352653143434519      14.143696299376861
   196   2      12.948458033465524      11.000376335287683      15.983896590043749
   197   2      14.368533275423584      10.049813125726144      17.664604275851204
   198   2      16.383122105249999      12.175328006367426      15.866845776147919
   199   2      16.589126483839681      9.3883982369373182      18.090373608273389
   200   1      15.576539077257122      11.723206445431234      17.061267523397891
   201   2      14.069033244635314      12.710040868458574      18.256484133985325
   202   2       17.86705501374129      8.7234113139806624      16.256925235252758
   203   2       18.15575084495153      10.839857292808034       15.32814230668917
   204   2      19.312355532619069      11.938268433979466       16.99220273229686
   205   1      2.6702512700481265      16.639096571307185      16.740866671029089
   206   2       1.655519016249513      15.956913866622386      15.797298186583827
   207   2      2.3384482960373991      13.743744936269664      15.779044157920874
   208   1     0.79035528044965397      13.708449494200043      18.235669705265074
   209   1      7.6825703273169896      13.562223984983648      14.631681831445396
   210   2       5.512068882266516      15.282472666273096      17.557119743946124
   211   2      4.6443889826779374      14.162165432262382      15.748104462833881
   212   2      7.6942935424558483      16.118413006628902      17.549053049807522
   213   2      9.4801791340242296      14.867045569076103      16.656044393512591
   214   2      9.5089646421331633      15.071840736349191      14.317619964398657
   215   2       11.57407718311503      14.755465331215404         17.662299729653
   216   2      13.295119655700219      16.283474351467007      17.664619335534429
   217   2      12.895933288345843       13.34973262060447      16.322063745916445
   218   2      16.026070294571085      16.834473503135378       14.35263346312122
   219   2      17.016869238665002      14.308061000857892      16.486662753380905
   220   2      15.531178397697547      15.558562053738413      17.762546503323989
   221   2      19.301371163895837      14.397313820006966      16.701741901893314
   222   2      19.514640395983648      16.686352121019244      15.636288651438321
   223   2      21.032084426969863      15.139699803178187       18.08278544718867
   224   2        20.4217139446868      14.041391940345939      14.692858318391615
   225   2      4.1193006370079575      17.203218328654053      17.813426690043038
   226   2     0.68791552952579793      20.054488164791014      14.777212533008036
   227   2      2.4326835566894403      21.229590343541691      18.451532490287725
   228   2      7.8873757196587224      19.982140269166855      16.551767300549614
   229   2      6.6196906853874662      20.516168221837194      18.449871788839868
   230   2      7.2299721711108056      17.847325286474945      16.027414518700738
   231   2      4.9426053765753561      18.130056291028339      15.833423672158261
   232   2      4.3402587666952472      20.153600399782459      14.920544866591573
   233   2      10.904815193503852      18.318893313536943      15.350746151517381
   234   2      10.003609550430747      19.406866033240711       17.23808527765086
   235   2      12.966962549593411       17.48897087176222      15.738837207526746
   236   1      16.024196690848978      17.256622781037187      15.794528069134508
   237   1      13.824675861202111      18.834539728382577      16.029241763647793
   238   2      16.169949092590077      19.408754910853048      17.597570534138512
   239   2      13.911349765919983      19.631460896862858      17.515590956568658
   240   2      16.840852672637702      20.211795701759829      15.494378443866376
   241   2      16.868335070475791      17.337667705798491      18.315450816707191
   242   2      18.952039749071645      17.983218730740866      17.503124966487924
   243   2       20.61243433739709      20.713413295620537      15.540442250033175
   244   2      19.306604850618687      20.296198362270406      17.398977351194034
   245   1      21.351554478928907      18.915780361953054      16.721276283626374
   246   2      3.9940296495392515   0.0058005360081712278      21.528351813903448
   247   2      1.1803642815606681      3.0275182662503748      20.435854734607812
   248   2      1.9234310786414879       2.711907481392605      22.734377129495151
   249   1      4.3854604114513105      3.0068918966297375      20.606533122575144
   250   2       7.883777551976789      2.9276152502581225       19.14676384326134
   251   2      6.6861978122546928      2.3409154340803706      22.683671525172066
   252   2      5.2199596897808886      1.8425422448760844      20.975817176582289
   253   2      6.3957725200838533      1.1957637728497734      19.117361408182738
   254   2      8.5238548810162946      2.8317870680856663       21.37748440116156
   255   1      11.251523838894913       1.910467946283221      20.846538923361088
   256   2      9.9987337844507831      1.1391932539190048         21.026283634852
   257   2      11.826265058375091      4.2755551205884323      21.140632847723577
   258   2      13.561341221841996      0.7633683126909736      20.667208295700476
   259   2      13.448161064091728      2.9926103512491213      19.982938660174852
   260   1      16.305204974195256      3.2289771166696339      18.748464662445485
   261   2       14.92946817566002      3.6081422787826116      21.676696460381166
   262   2      16.470251863630224      1.9152409422297143      21.456813232253012
   263   2      19.849300030554783     0.51645799616058385       21.53078537642579
   264   2      21.104066031982573      3.6865741887445669      19.853644190328804
   265   2      19.946945285837675      2.8553810895629597      21.680084840040866
   266   2      17.997342578069055      3.2648656396137441      20.437172232922265
   267   2      19.658673178760576     0.44831357585852188      19.147506874402644
   268   2      3.3673940168264229      5.1955556313696025      20.384065933148765
   269   2      1.0548125515146725      5.3247386524225364      20.147773703283136
   270   2      3.9542889518712045      7.4182135783150729      20.487272187943002
   271   2      3.4489401436964231      4.4706362484213598      22.644212870822969
   272   2      3.3956943024084132      7.8976065615933262      22.669161390757242
   273   2     0.29071351160172182       6.172897741466608      22.184263679557461
   274   2      6.7589495452046791       4.969843082581705      18.975254745106771
   275   2      7.9477400327824466      7.9666886368900718      19.729146536479462
   276   2      6.1404835132466902      6.6881288954514178      20.470712161541854
   277   2       6.451000642443776       6.051125748358964      22.649475631772184
   278   2      11.417219118883187      7.7072287650412088      20.277266037334343
   279   2      9.5937644743658765      4.8510191324109018       21.32275732467847
   280   2      8.8733559200438759      5.9147151058559304      19.369382493128313
   281   2      13.199672144044282      8.5762425023046678       19.01704451347031
   282   2       12.91739184882069      6.2658215176257102      21.627221518133133
   283   2      16.729387351314333       8.006721247836543      19.973297959985331
   284   2      14.591303895257614      7.0269193672030585       20.07064025336426
   285   2       16.56861746975823      5.1894419509607923      21.816224815788516
   286   2      17.979133514232458      5.9983867070251726      20.171863540197823
   287   2      19.455603809853873      6.2775937473364127      21.968719138305719
   288   1      19.651144707639354      8.4960881808866677      18.970889349785487
   289   1      1.4917215363943725       8.624527224396461      20.435212261525386
   290   2      2.0722565176065628      11.259827922311388      18.925109538209909
   291   2      3.1455611371730865      9.0928900450678132      19.067289352632006
   292   2      2.7982508975897589      10.138637993862256      22.603863170586855
   293   2      3.9391730846167068      11.760725627354727      21.373727054636756
   294   2    0.021185069528492168      8.9767514995723996      20.584581969121309
   295   2      5.8417150972305203      10.607132850359655      20.599152342646548
   296   2      7.4108267406678445      9.9633123388812432      22.173124775428249
   297   2      6.9260611169414856      12.398133055069588       19.61187665471931
   298   2      9.4116115837789263       9.059797275253155      21.187293382258396
   299   2      12.018032419808142      10.917626420513086       21.92353208592192
   300   2      10.029057602455536      11.174226956816032      20.546408527318476
   301   1      14.550590107822838      9.1227890585041447      21.931784491065009
   302   1      13.002982899878756      10.290023151843075      20.985603871547326
   303   1      14.431466499173709      11.213860210433429      18.825332925612098
   304   1      15.229090688822096      11.085461834983731      20.430723282428254
   305   2      16.173848259372559      11.118968650242703      21.573564921629803
   306   1      19.064768966402081      10.550655494292362      19.692891924413889
   307   2      18.064455878798405      11.150005496331943      18.759812922007121
   308   1      20.576280375834074      9.8735415226444534      21.982664950335536
   309   2      17.642612406237724      9.4113038194681859      21.669583846218824
   310   2     0.38487503336071288      16.542026716224637      18.720068910983347
   311   2      1.0801378253284928      12.877151841847212      21.452662547332416
   312   2      2.8846359548668312      13.255143362362499      19.816203035497431
   313   2      1.6257656219165331      16.179046135507324       21.72402694489157
   314   2      2.6108288312667716      15.728863402927903      19.490852512263835
   315   1      4.4415973566661773      15.160953874874442       22.05734582811116
   316   2      4.6493188960033063      15.729241192063723      20.694515163092184
   317   2      5.2267373599440337       13.92096413768378      19.382551188690769
   318   2      8.2063391480594134       16.80082242619708      19.717127851356569
   319   2      12.298726367002606      13.233877599772324      21.438961601515569
   320   1      9.3198993400551302      13.679519785402114       19.06108023821788
   321   2      8.9117712912017915      13.214913661984291      20.434534141711932
   322   1       11.18833508216443      13.879599393523701       22.17669734883804
   323   2      10.988047552959184      16.617689239498503       22.13269371421589
   324   2      11.975217081720764      13.077627751293544       19.16081693692017
   325   2      9.2065330487753592      15.367081100026322      21.262278451431733
   326   1      13.839288126085831      15.797902555982144      21.077989406568495
   327   2      15.500881408610592       14.02639071968836      19.444891281494506
   328   2      14.280178748343655      14.394880752772925      21.369164842773287
   329   2      16.499826943144623      16.450280882123206      22.626651425153156
   330   1       20.82235277126486      12.911571414553579      20.353821569473435
   331   2      17.563746227373965      12.964163899288105      22.071558286577208
   332   1      18.615321110224176      14.263599618770867      19.348715215631586
   333   2      17.614400529586351      13.216745442318286      19.747617244652588
   334   2      21.064854889307789       16.35140509097009      20.049762871304665
   335   2      20.384735127034624      15.437802341806357      22.162294610098019
   336   2      19.909859180177779      12.971496582972589      21.895060137173104
   337   2      2.3174891130203288      18.425587539390659      21.196505116690631
   338   2     0.32221311928287738      19.609607782103762      21.245974667165591
   339   2      2.9727604594229233      19.010201641053914      19.064586157636871
   340   2      6.1898052541346349      17.420761832967209      20.681573532725256
   341   1      7.3436519826507372      19.820850732400782       21.24798690072884
   342   2      8.1918418679667457      20.352111659431415      20.140768176346846
   343   2      5.2564281326799742      18.838816691432591      19.154959726199223
   344   1       11.28306168618278      21.378695844115249      19.113037212291054
   345   1      8.7390487779361905      18.392765324566575      21.832975005417786
   346   2      9.6017148211082866       18.66014059824326      19.412220537063298
   347   2      11.867418995244838      20.373067052079858      21.769164628609758
   348   2      11.522663753610347      18.348791989752257       20.62571810920441
   349   2      13.246132403793064      18.083813532025399      19.135177598040414
   350   2      17.062319248866128      17.555443311061037      20.643957109439377
   351   2      14.676944582543339      18.278419337298729      20.943694895206072
   352   2      14.204340422479373      20.430952589422883      21.690158729785061
   353   2      16.744130523746865      20.849069667282137      19.347738027478997
   354   2      20.322618534199147      18.080686481749296      22.593357292360224
   355   2      19.639219280298359      19.879445320954261      21.190546153930381
   356   2       17.35198603690484      19.764686923859593      21.338536201777405
   357   2      19.466000694504817      17.998563695882144      19.798697512966712
   358   2      21.185027145495237      20.923200975099061       18.60737470179701