 vasp.6.5.0 16Dec24 (build Jan 20 2025 08:32:48) complex                         
 executed on        HPECrayEX_GCC date 2025.07.21  22:04:41
 running  128 mpi-ranks, with    1 threads/rank, on    1 nodes
 distrk:  each k-point on  128 cores,    1 groups
 distr:  one band on NCORE=  16 cores,    8 groups


--------------------------------------------------------------------------------------------------------


 INCAR:
   SYSTEM = a-Si SPC
   NCORE = 16
   ISTART = 1
   ICHARG = 1
   ISPIN = 1
   ISYM = 1
   EDIFF = 1E-6
   NELM = 150
   EDIFFG = -0.01
   NSW = 0
   ISIF = 2
   IBRION = -1
   PREC = Accurate
   ENCUT = 1200
   KSPACING = 0.23
   KGAMMA = .TRUE.
   METAGGA = SCAN
   LASPH = .TRUE.
   LDIAG = .FALSE.
   LMIXTAU = .TRUE.
   ADDGRID = .TRUE.
   ALGO = Normal
   ISMEAR = 0
   SIGMA = 0.1
   LORBIT = 11
   NEDOS = 2000
   LWAVE = .FALSE.
   LCHARG = .FALSE.

 POTCAR:    PAW_PBE H 15Jun2001                   
 POTCAR:    PAW_PBE Si 05Jan2001                  
 POTCAR:    PAW_PBE H 15Jun2001                   
   SHA256 =  030f79b5d3ab3cf0e668861823c8fb652ff669f3e15e46930bd03bfd63a607b6 H/POTCAR              
   COPYR  = (c) Copyright 15Jun2001 Georg Kresse                                                    
   COPYR  = This file is part of the software VASP. Any use, copying, and all other rights are regul
   COPYR  = If you do not have a valid VASP license, you may not use, copy or distribute this file. 
   VRHFIN =H: ultrasoft test                                                                        
   LEXCH  = PE                                                                                      
   EATOM  =    12.4884 eV,    0.9179 Ry                                                             
                                                                                                    
   TITEL  = PAW_PBE H 15Jun2001                                                                     
   LULTRA =        F    use ultrasoft PP ?                                                          
   IUNSCR =        0    unscreen: 0-lin 1-nonlin 2-no                                               
   RPACOR =    0.000    partial core radius                                                         
   POMASS =    1.000; ZVAL   =    1.000    mass and valenz                                          
   RCORE  =    1.100    outmost cutoff radius                                                       
   RWIGS  =    0.700; RWIGS  =    0.370    wigner-seitz radius (au A)                               
   ENMAX  =  250.000; ENMIN  =  200.000 eV                                                          
   RCLOC  =    0.701    cutoff for local pot                                                        
   LCOR   =        T    correct aug charges                                                         
   LPAW   =        T    paw PP                                                                      
   EAUG   =  400.000                                                                                
   RMAX   =    1.123    core radius for proj-oper                                                   
   RAUG   =    1.200    factor for augmentation sphere                                              
   RDEP   =    1.112    radius for radial grids                                                     
   RDEPT  =    0.926    core radius for aug-charge                                                  
                                                                                                    
   Atomic configuration                                                                             
    2 entries                                                                                       
     n  l   j            E        occ.                                                              
     1  0  0.50        -6.4927   1.0000                                                             
     2  1  0.50        -3.4015   0.0000                                                             
   Description                                                                                      
     l       E           TYP  RCUT    TYP  RCUT                                                     
     0     -6.4927494     23  1.100                                                                 
     0      6.8029130     23  1.100                                                                 
     1     -4.0817478     23  1.100                                                                 
  local pseudopotential read in
  atomic valenz-charges read in
  non local Contribution for L=           0  read in
    real space projection operators read in
  non local Contribution for L=           0  read in
    real space projection operators read in
  non local Contribution for L=           1  read in
    real space projection operators read in
    PAW grid and wavefunctions read in

   number of l-projection  operators is LMAX  =           3
   number of lm-projection operators is LMMAX =           5

 POTCAR:    PAW_PBE Si 05Jan2001                  
   SHA256 =  79d9987ad8750f624c4d6acb2a16d13abf6a777132adc04dc6c8399be72b42bb Si/POTCAR             
   COPYR  = (c) Copyright 05Jan2001 Georg Kresse                                                    
   COPYR  = This file is part of the software VASP. Any use, copying, and all other rights are regul
   COPYR  = If you do not have a valid VASP license, you may not use, copy or distribute this file. 
   VRHFIN =Si: s2p2                                                                                 
   LEXCH  = PE                                                                                      
   EATOM  =   103.0669 eV,    7.5752 Ry                                                             
                                                                                                    
   TITEL  = PAW_PBE Si 05Jan2001                                                                    
   LULTRA =        F    use ultrasoft PP ?                                                          
   IUNSCR =        1    unscreen: 0-lin 1-nonlin 2-no                                               
   RPACOR =    1.500    partial core radius                                                         
   POMASS =   28.085; ZVAL   =    4.000    mass and valenz                                          
   RCORE  =    1.900    outmost cutoff radius                                                       
   RWIGS  =    2.480; RWIGS  =    1.312    wigner-seitz radius (au A)                               
   ENMAX  =  245.345; ENMIN  =  184.009 eV                                                          
   ICORE  =        2    local potential                                                             
   LCOR   =        T    correct aug charges                                                         
   LPAW   =        T    paw PP                                                                      
   EAUG   =  322.069                                                                                
   DEXC   =    0.000                                                                                
   RMAX   =    1.950    core radius for proj-oper                                                   
   RAUG   =    1.300    factor for augmentation sphere                                              
   RDEP   =    1.993    radius for radial grids                                                     
   RDEPT  =    1.837    core radius for aug-charge                                                  
                                                                                                    
   Atomic configuration                                                                             
    6 entries                                                                                       
     n  l   j            E        occ.                                                              
     1  0  0.50     -1785.8828   2.0000                                                             
     2  0  0.50      -139.4969   2.0000                                                             
     2  1  1.50       -95.5546   6.0000                                                             
     3  0  0.50       -10.8127   2.0000                                                             
     3  1  0.50        -4.0811   2.0000                                                             
     3  2  1.50        -4.0817   0.0000                                                             
   Description                                                                                      
     l       E           TYP  RCUT    TYP  RCUT                                                     
     0    -10.8127223     23  1.900                                                                 
     0     -7.6451159     23  1.900                                                                 
     1     -4.0811372     23  1.900                                                                 
     1      2.4879257     23  1.900                                                                 
     2     -4.0817478      7  1.900                                                                 
  local pseudopotential read in
  partial core-charges read in
  partial kinetic energy density read in
  atomic valenz-charges read in
  non local Contribution for L=           0  read in
    real space projection operators read in
  non local Contribution for L=           0  read in
    real space projection operators read in
  non local Contribution for L=           1  read in
    real space projection operators read in
  non local Contribution for L=           1  read in
    real space projection operators read in
    PAW grid and wavefunctions read in

   number of l-projection  operators is LMAX  =           4
   number of lm-projection operators is LMMAX =           8

 -----------------------------------------------------------------------------
|                                                                             |
|               ----> ADVICE to this user running VASP <----                  |
|                                                                             |
|     You have a (more or less) 'large supercell' and for larger cells it     |
|     might be more efficient to use real-space projection operators.         |
|     Therefore, try LREAL= Auto in the INCAR file.                           |
|     Mind: For very accurate calculation, you might also keep the            |
|     reciprocal projection scheme (i.e. LREAL=.FALSE.).                      |
|                                                                             |
 -----------------------------------------------------------------------------

 -----------------------------------------------------------------------------
|                                                                             |
|               ----> ADVICE to this user running VASP <----                  |
|                                                                             |
|     You enforced a specific xc type in the INCAR file but a different       |
|     type was found in the POTCAR file.                                      |
|     I HOPE YOU KNOW WHAT YOU ARE DOING!                                     |
|                                                                             |
 -----------------------------------------------------------------------------

  PAW_PBE H 15Jun2001                   :
 energy of atom  1       EATOM=  -12.4884
 kinetic energy error for atom=    0.0000 (will be added to EATOM!!)
  PAW_PBE Si 05Jan2001                  :
 energy of atom  2       EATOM= -103.0669
 kinetic energy error for atom=    0.0001 (will be added to EATOM!!)


 POSCAR:  H Si
  positions in cartesian coordinates
  No initial velocities read in


 exchange-correlation table for SCAN
   RHO(1)=    0.500       N(1)  =     2000
   RHO(2)=  100.500       N(2)  =     4000



--------------------------------------------------------------------------------------------------------


 ion  position               nearest neighbor table
   1  0.127  0.317  0.547-   9 1.60
   2  0.767  0.119  0.464-  23 1.50
   3  0.937  0.752  0.531-  42 1.42
   4  0.971  0.332  0.576-  11 1.51
   5  0.662  0.237  0.419-  43 1.64
   6  0.789  0.429  0.405-  21 2.47  19 2.48
   7  0.621  0.875  0.552-  35 2.27   8 2.35  44 2.35  18 2.39
   8  0.554  0.797  0.619-   7 2.35  57 2.48
   9  0.111  0.289  0.490-   1 1.60  69 2.25  27 2.34  48 2.35
  10  0.898  0.880  0.402-  47 2.36  64 2.41
  11  0.949  0.417  0.545-   4 1.51  14 2.31  48 2.40  36 2.47  70 3.12
  12  0.604  0.078  0.480-  43 2.30  28 2.34  16 2.35  35 2.36
  13  0.916  0.157  0.627-  68 2.55
  14  0.031  0.525  0.590-  70 2.19  61 2.27  11 2.31
  15  0.112  0.895  0.617-  65 2.31  31 2.33  58 2.54
  16  0.700  0.982  0.433-  12 2.35  71 2.40  64 2.50
  17  0.590  0.721  0.412-  71 2.19  46 2.38  33 2.46
  18  0.743  0.774  0.528-  64 2.32  37 2.35   7 2.39  33 2.41
  19  0.803  0.556  0.466-  33 2.26  49 2.42  36 2.47   6 2.48
  20  0.009  0.502  0.409-  48 2.24  49 2.32
  21  0.877  0.291  0.429-  23 2.23  48 2.29   6 2.47
  22  0.737  0.376  0.592-  52 2.29  36 2.33
  23  0.806  0.205  0.486-   2 1.50  21 2.23  52 2.32  68 2.40  28 3.03
  24  0.531  0.425  0.423-  32 2.33  25 2.34  66 2.37
  25  0.409  0.528  0.411-  46 2.29  75 2.33  24 2.34
  26  0.395  0.610  0.587-  74 2.28  45 2.34  57 2.37  50 3.05  76 3.14
  27  0.063  0.136  0.494-  67 2.23  78 2.33   9 2.34  68 2.39
  28  0.657  0.136  0.556-  12 2.34  59 2.37  52 2.41  44 2.41  23 3.03
  29  0.282  0.885  0.387-  55 2.25  41 2.39
  30  0.092  0.854  0.468-  47 2.32  42 2.35  55 2.36  31 2.46
  31  0.175  0.923  0.539-  63 2.26  15 2.33  30 2.46  67 2.62
  32  0.459  0.285  0.405-  24 2.33  34 2.37  43 2.55
  33  0.682  0.649  0.479-  62 2.26  19 2.26  18 2.41  17 2.46
  34  0.375  0.259  0.480-  69 2.27  32 2.37  40 2.38  72 2.46
  35  0.521  0.942  0.498-   7 2.27  38 2.31  71 2.32  12 2.36
  36  0.804  0.503  0.554-  22 2.33  70 2.42  19 2.47  11 2.47  62 2.64
  37  0.770  0.745  0.613-  18 2.35  70 3.02
  38  0.393  0.989  0.541-  35 2.31  72 2.32  51 2.37  63 2.42
  39  0.191  0.135  0.373-  78 2.26  60 2.26  41 2.40
  40  0.440  0.355  0.543-  54 2.29  34 2.38  45 2.44  66 2.50
  41  0.310  0.042  0.408-  56 2.32  72 2.34  29 2.39  39 2.40
  42  0.014  0.727  0.502-   3 1.42  61 2.33  30 2.35  49 2.44
  43  0.581  0.160  0.408-   5 1.64  12 2.30  56 2.42  32 2.55
  44  0.717  0.991  0.585-  53 2.35   7 2.35  28 2.41
  45  0.326  0.475  0.556-  26 2.34  40 2.44  73 2.44  50 2.48
  46  0.430  0.684  0.414-  25 2.29  17 2.38  76 2.38
  47  0.044  0.950  0.404-  78 2.22  30 2.32  10 2.36
  48  0.991  0.383  0.461-  20 2.24  21 2.29   9 2.35  11 2.40
  49  0.939  0.636  0.437-  20 2.32  19 2.42  42 2.44
  50  0.240  0.596  0.511-  75 2.41  61 2.42  76 2.44  45 2.48  26 3.05
  51  0.447  0.040  0.620-  38 2.37  59 2.42
  52  0.690  0.288  0.526-  22 2.29  66 2.29  23 2.32  28 2.41
  53  0.864  0.962  0.551-  64 2.35  44 2.35  65 2.36  68 2.48
  54  0.484  0.306  0.620-  59 2.24  40 2.29
  55  0.220  0.774  0.435-  29 2.25  30 2.36  76 2.50
  56  0.457  0.067  0.376-  41 2.32  43 2.42
  57  0.554  0.628  0.604-  62 2.34  26 2.37   8 2.48
  58  0.162  0.728  0.625-  74 2.25  61 2.27  15 2.54
  59  0.553  0.168  0.622-  54 2.24  28 2.37  51 2.42
  60  0.239  0.282  0.382-  39 2.26  69 2.29
  61  0.108  0.649  0.558-  14 2.27  58 2.27  42 2.33  50 2.42
  62  0.631  0.554  0.539-  33 2.26  57 2.34  66 2.46  36 2.64
  63  0.309  0.845  0.540-  31 2.26  74 2.34  76 2.39  38 2.42
  64  0.814  0.886  0.479-  18 2.32  53 2.35  10 2.41  16 2.50
  65  0.953  0.901  0.617-  15 2.31  53 2.36
  66  0.590  0.403  0.504-  52 2.29  24 2.37  62 2.46  40 2.50
  67  0.196  0.102  0.531-  72 2.21  27 2.23  77 2.41  31 2.62
  68  0.917  0.121  0.535-  27 2.39  23 2.40  53 2.48  13 2.55
  69  0.247  0.341  0.461-   9 2.25  34 2.27  60 2.29  75 2.31
  70  0.899  0.582  0.614-  14 2.19  36 2.42  37 3.02  11 3.12
  71  0.580  0.869  0.428-  17 2.19  35 2.32  16 2.40
  72  0.327  0.098  0.489-  67 2.21  38 2.32  41 2.34  34 2.46
  73  0.245  0.369  0.611-  45 2.44  77 2.53
  74  0.312  0.739  0.606-  58 2.25  26 2.28  63 2.34
  75  0.263  0.495  0.441-  69 2.31  25 2.33  50 2.41
  76  0.348  0.717  0.489-  46 2.38  63 2.39  50 2.44  55 2.50  26 3.14
  77  0.218  0.198  0.603-  67 2.41  73 2.53
  78  0.056  0.102  0.410-  47 2.22  39 2.26  27 2.33

  LATTYP: Found a simple tetragonal cell.
 ALAT       =    14.5353600448
 C/A-ratio  =     1.8468444275
  
  Lattice vectors:
  
 A1 = (  14.5353600448,   0.0000000000,   0.0000000000)
 A2 = (   0.0000000000,  14.5353600448,   0.0000000000)
 A3 = (   0.0000000000,   0.0000000000,  26.8445487000)


Analysis of symmetry for initial positions (statically):
=====================================================================
 Subroutine PRICEL returns:
 Original cell was already a primitive cell.
 

 Routine SETGRP: Setting up the symmetry group for a 
 simple tetragonal supercell.


 Subroutine GETGRP returns: Found  1 space group operations
 (whereof  1 operations were pure point group operations)
 out of a pool of 16 trial point group operations.


The static configuration has the point symmetry C_1 .


Analysis of symmetry for dynamics (positions and initial velocities):
=====================================================================
 Subroutine PRICEL returns:
 Original cell was already a primitive cell.
 

 Routine SETGRP: Setting up the symmetry group for a 
 simple tetragonal supercell.


 Subroutine GETGRP returns: Found  1 space group operations
 (whereof  1 operations were pure point group operations)
 out of a pool of 16 trial point group operations.


The dynamic configuration has the point symmetry C_1 .


 Subroutine INISYM returns: Found  1 space group operations
 (whereof  1 operations are pure point group operations),
 and found     1 'primitive' translations


----------------------------------------------------------------------------------------

                                     Primitive cell                                     

  volume of cell :    5671.6274

  direct lattice vectors                    reciprocal lattice vectors
    14.535360045  0.000000000  0.000000000     0.068797745  0.000000000  0.000000000
     0.000000000 14.535360045  0.000000000     0.000000000  0.068797745  0.000000000
     0.000000000  0.000000000 26.844548700     0.000000000  0.000000000  0.037251511

  length of vectors
    14.535360045 14.535360045 26.844548700     0.068797745  0.068797745  0.037251511

  position of ions in fractional coordinates (direct lattice)
     0.126665593  0.317053034  0.546690833
     0.766654556  0.118793067  0.463951502
     0.936722583  0.751670407  0.531395735
     0.971169614  0.331642284  0.575742169
     0.662031761  0.236718594  0.418574692
     0.788607916  0.428682880  0.404965374
     0.621273224  0.875272436  0.551507454
     0.554432775  0.796526537  0.618676398
     0.110783634  0.289074367  0.489871849
     0.898003211  0.880191475  0.401895142
     0.949374488  0.416572412  0.545350524
     0.603599083  0.078002196  0.480135421
     0.916255253  0.157064565  0.627484890
     0.030861981  0.525494379  0.589512563
     0.112295808  0.895182504  0.617056702
     0.699927623  0.981530554  0.432837923
     0.590226178  0.720993492  0.412289989
     0.743270202  0.773940237  0.528031924
     0.803110481  0.555536978  0.466239118
     0.008872845  0.502392096  0.408719805
     0.877143735  0.290626444  0.429231232
     0.736528023  0.375578588  0.591862016
     0.805889910  0.204690492  0.486439495
     0.531176385  0.424932027  0.422830677
     0.409340393  0.528060535  0.410590203
     0.394793798  0.609564536  0.586665802
     0.063053753  0.135854908  0.494228413
     0.656737774  0.135847340  0.556059588
     0.281558901  0.884828443  0.386691608
     0.092221314  0.853876338  0.468320732
     0.175337934  0.923066230  0.538868389
     0.458778453  0.285432902  0.405146453
     0.681715483  0.649454845  0.478772761
     0.374891986  0.259293199  0.479663445
     0.521221351  0.941882413  0.497648847
     0.803557667  0.502964493  0.553832693
     0.769626619  0.745045184  0.612968349
     0.392848198  0.988995110  0.541164944
     0.190965342  0.135482712  0.372515110
     0.440139080  0.354823684  0.542636006
     0.310493857  0.042140339  0.407559867
     0.014178046  0.726903219  0.502019194
     0.581298294  0.160097169  0.407688571
     0.717299053  0.990577458  0.584551034
     0.326032516  0.475124798  0.556061451
     0.430499140  0.684256184  0.413737211
     0.044469211  0.949938629  0.404238299
     0.990639376  0.383065847  0.460739305
     0.939130504  0.636186511  0.437451895
     0.239534486  0.595909559  0.510854135
     0.447024359  0.040134403  0.619559259
     0.690185862  0.287856647  0.525662728
     0.863927688  0.962129590  0.551209442
     0.484346447  0.306207069  0.620302427
     0.219702848  0.774421821  0.434850995
     0.456836981  0.067253098  0.375513733
     0.553617521  0.628415118  0.603781382
     0.161839816  0.728416769  0.624983824
     0.553225374  0.168050189  0.622233545
     0.239348044  0.282158129  0.381687724
     0.107808131  0.648586617  0.558285366
     0.631369293  0.553571427  0.538960027
     0.309356630  0.844788155  0.540134195
     0.813719094  0.885640257  0.479172097
     0.953454194  0.900713843  0.616557532
     0.589545768  0.402737874  0.504184624
     0.196193971  0.101572303  0.531098468
     0.917411055  0.121494067  0.534536783
     0.246642669  0.341051063  0.460794809
     0.898622391  0.582189225  0.614009156
     0.580090206  0.868812328  0.427679706
     0.326981924  0.097752653  0.488942424
     0.244695693  0.369038674  0.610937397
     0.312266087  0.738536917  0.605665190
     0.262739966  0.494688813  0.440820922
     0.348113840  0.716783070  0.488506953
     0.217610709  0.197904970  0.603119795
     0.055748395  0.101686508  0.409534868

  ion indices of the primitive-cell ions
   primitive index   ion index
                 1           1
                 2           2
                 3           3
                 4           4
                 5           5
                 6           6
                 7           7
                 8           8
                 9           9
                10          10
                11          11
                12          12
                13          13
                14          14
                15          15
                16          16
                17          17
                18          18
                19          19
                20          20
                21          21
                22          22
                23          23
                24          24
                25          25
                26          26
                27          27
                28          28
                29          29
                30          30
                31          31
                32          32
                33          33
                34          34
                35          35
                36          36
                37          37
                38          38
                39          39
                40          40
                41          41
                42          42
                43          43
                44          44
                45          45
                46          46
                47          47
                48          48
                49          49
                50          50
                51          51
                52          52
                53          53
                54          54
                55          55
                56          56
                57          57
                58          58
                59          59
                60          60
                61          61
                62          62
                63          63
                64          64
                65          65
                66          66
                67          67
                68          68
                69          69
                70          70
                71          71
                72          72
                73          73
                74          74
                75          75
                76          76
                77          77
                78          78

----------------------------------------------------------------------------------------


 -----------------------------------------------------------------------------
|                                                                             |
|           W    W    AA    RRRRR   N    N  II  N    N   GGGG   !!!           |
|           W    W   A  A   R    R  NN   N  II  NN   N  G    G  !!!           |
|           W    W  A    A  R    R  N N  N  II  N N  N  G       !!!           |
|           W WW W  AAAAAA  RRRRR   N  N N  II  N  N N  G  GGG   !            |
|           WW  WW  A    A  R   R   N   NN  II  N   NN  G    G                |
|           W    W  A    A  R    R  N    N  II  N    N   GGGG   !!!           |
|                                                                             |
|     The requested file  could not be found or opened for reading            |
|     k-point information. Automatic k-point generation is used as a          |
|     fallback, which may lead to unwanted results.                           |
|                                                                             |
 -----------------------------------------------------------------------------



Automatic generation of k-mesh.
 Grid dimensions derived from KSPACING:
 generate k-points for:    2    2    2

 Generating k-lattice:

  Cartesian coordinates                     Fractional coordinates (reciprocal lattice)
     0.034398873  0.000000000  0.000000000     0.500000000  0.000000000  0.000000000
     0.000000000  0.034398873  0.000000000     0.000000000  0.500000000  0.000000000
     0.000000000  0.000000000  0.018625755     0.000000000  0.000000000  0.500000000

  Length of vectors
     0.034398873  0.034398873  0.018625755

  Shift w.r.t. Gamma in fractional coordinates (k-lattice)
     0.000000000  0.000000000  0.000000000

 
 Subroutine IBZKPT returns following result:
 ===========================================
 
 Found      8 irreducible k-points:
 
 Following reciprocal coordinates:
            Coordinates               Weight
  0.000000  0.000000  0.000000      1.000000
  0.500000  0.000000  0.000000      1.000000
  0.000000  0.500000  0.000000      1.000000
  0.500000  0.500000  0.000000      1.000000
  0.000000  0.000000  0.500000      1.000000
  0.500000  0.000000  0.500000      1.000000
  0.000000  0.500000  0.500000      1.000000
  0.500000  0.500000  0.500000      1.000000
 
 Following cartesian coordinates:
            Coordinates               Weight
  0.000000  0.000000  0.000000      1.000000
  0.034399  0.000000  0.000000      1.000000
  0.000000  0.034399  0.000000      1.000000
  0.034399  0.034399  0.000000      1.000000
  0.000000  0.000000  0.018626      1.000000
  0.034399  0.000000  0.018626      1.000000
  0.000000  0.034399  0.018626      1.000000
  0.034399  0.034399  0.018626      1.000000
 


--------------------------------------------------------------------------------------------------------




 Dimension of arrays:
   k-points           NKPTS =      8   k-points in BZ     NKDIM =      8   number of bands    NBANDS=    192
   number of dos      NEDOS =   2000   number of ions     NIONS =     78
   non local maximal  LDIM  =      4   non local SUM 2l+1 LMDIM =      8
   total plane-waves  NPLWV = ******
   max r-space proj   IRMAX =      1   max aug-charges    IRDMAX= 426092
   dimension x,y,z NGX =   168 NGY =  168 NGZ =  320
   dimension x,y,z NGXF=   336 NGYF=  336 NGZF=  640
   support grid    NGXF=   672 NGYF=  672 NGZF= 1280
   ions per type =               5  73
   NGX,Y,Z   is equivalent  to a cutoff of  19.21, 19.21, 19.82 a.u.
   NGXF,Y,Z  is equivalent  to a cutoff of  38.43, 38.43, 39.63 a.u.

 SYSTEM =  a-Si SPC                                
 POSCAR =   H Si                                   

 Startparameter for this run:
   NWRITE =      2    write-flag & timer
   PREC   = accura    normal or accurate (medium, high low for compatibility)
   ISTART =      0    job   : 0-new  1-cont  2-samecut
   ICHARG =      1    charge: 1-file 2-atom 10-const
   ISPIN  =      1    spin polarized calculation?
   LNONCOLLINEAR =      F non collinear calculations
   LSORBIT =      F    spin-orbit coupling
   INIWAV =      1    electr: 0-lowe 1-rand  2-diag
   LASPH  =      T    aspherical Exc in radial PAW
 Electronic Relaxation 1
   ENCUT  = 1200.0 eV  88.20 Ry    9.39 a.u.  41.06 41.06 75.82*2*pi/ulx,y,z
   ENINI  = 1200.0     initial cutoff
   ENAUG  =  400.0 eV  augmentation charge cutoff
   NELM   =    150;   NELMIN=  2; NELMDL=  0     # of ELM steps 
   EDIFF  = 0.1E-05   stopping-criterion for ELM
   LREAL  =      F    real-space projection
   NLSPLINE    = F    spline interpolate recip. space projectors
   LCOMPAT=      F    compatible to vasp.4.4
   GGA_COMPAT  = T    GGA compatible to vasp.4.4-vasp.4.6
   LMAXPAW     = -100 max onsite density
   LMAXMIX     =    2 max onsite mixed and CHGCAR
   VOSKOWN=      0    Vosko Wilk Nusair interpolation
   ROPT   =    0.00000   0.00000
 Ionic relaxation
   EDIFFG = -.1E-01   stopping-criterion for IOM
   NSW    =      0    number of steps for IOM
   NBLOCK =      1;   KBLOCK =      1    inner block; outer block 
   IBRION =     -1    ionic relax: 0-MD 1-quasi-New 2-CG
   NFREE  =      0    steps in history (QN), initial steepest desc. (CG)
   ISIF   =      2    stress and relaxation
   IWAVPR =     10    prediction:  0-non 1-charg 2-wave 3-comb
   ISYM   =      1    0-nonsym 1-usesym 2-fastsym
   LCORR  =      T    Harris-Foulkes like correction to forces

   POTIM  = 0.5000    time-step for ionic-motion
   TEIN   =    0.0    initial temperature
   TEBEG  =    0.0;   TEEND  =   0.0 temperature during run
   SMASS  =  -3.00    Nose mass-parameter (am)
   estimated Nose-frequenzy (Omega)   =  0.10E-29 period in steps = 0.13E+47 mass=  -0.483E-26a.u.
   SCALEE = 1.0000    scale energy and forces
   NPACO  =    256;   APACO  = 10.0  distance and # of slots for P.C.
   PSTRESS=    0.0 pullay stress

  Mass of Ions in am
   POMASS =   1.00 28.09
  Ionic Valenz
   ZVAL   =   1.00  4.00
  Atomic Wigner-Seitz radii
   RWIGS  =  -1.00 -1.00
  virtual crystal weights 
   VCA    =   1.00  1.00
   NELECT =     297.0000    total number of electrons
   NUPDOWN=      -1.0000    fix difference up-down

 DOS related values:
   EMIN   =  10.00;   EMAX   =-10.00  energy-range for DOS
   EFERMI =   0.00;   METHOD = LEGACY      
   ISMEAR =     0;   SIGMA  =   0.10  broadening in eV -4-tet -1-fermi 0-gaus
   EFERMI_NEDOS =   21; number of points for ismear=-14 and -15

 Electronic relaxation 2 (details)
   IALGO  =     38    algorithm
   LDIAG  =      F    sub-space diagonalisation (order eigenvalues)
   LSUBROT=      F    optimize rotation matrix (better conditioning)
   TURBO    =      0    0=normal 1=particle mesh
   IRESTART =      0    0=no restart 2=restart with 2 vectors
   NREBOOT  =      0    no. of reboots
   NMIN     =      0    reboot dimension
   EREF     =   0.00    reference energy to select bands
   IMIX   =      4    mixing-type and parameters
     AMIX     =   0.40;   BMIX     =  1.00
     AMIX_MAG =   1.60;   BMIX_MAG =  1.00
     AMIN     =   0.10
     WC   =   100.;   INIMIX=   1;  MIXPRE=   1;  MAXMIX= -45

 Intra band minimization:
   WEIMIN = 0.0000     energy-eigenvalue tresh-hold
   EBREAK =  0.13E-08  absolut break condition
   DEPER  =   0.30     relativ break condition  

   TIME   =   0.40     timestep for ELM

  volume/ion in A,a.u.               =      72.71       490.69
  Fermi-wavevector in a.u.,A,eV,Ry     =   0.612479  1.157417  5.103958  0.375130
  Thomas-Fermi vector in A             =   1.668781

 Write flags
   LWAVE        =      F    write WAVECAR
   LDOWNSAMPLE  =      F    k-point downsampling of WAVECAR
   LCHARG       =      F    write CHGCAR
   LVTOT        =      F    write LOCPOT, total local potential
   LVHAR        =      F    write LOCPOT, Hartree potential only
   WRT_POTENTIAL= false  ! write potential to hdf5 file
   LELF         =      F    write electronic localiz. function (ELF)
   LORBIT       =     11    0 simple, 1 ext, 2 COOP (PROOUT), +10 PAW based schemes


 Python interface
   PLUGINS active      =      F    recompile with -DPLUGINS to activate

 Dipole corrections
   LMONO      =      F    monopole corrections only (constant potential shift)
   LDIPOL     =      F    correct potential (dipole corrections)
   IDIPOL     =      0    1-x, 2-y, 3-z, 4-all directions 
   EPSILON    =  1.0000000 bulk dielectric constant
   LVACPOTAV  =      F  vacuum potentials using an averaging scheme for the charge density
   VACPOTFLAT =  0.1000000 required flatness to determine vacuum potential

Coulomb truncation method
  LTRUNCATE          =      F  Coulomb kernel truncation to be used
  IDIMENSIONALITY    =      3  Dimensionality of cutoff (0 molecules / 2 surfaces)
  ISURFACE           =     -1  Direction of surface normal
  LCOARSEN           =      F  Coarsen the charge grid before padding, preferred


 Exchange correlation treatment:
   METAGGA = SCAN    functional components
   XC_C    = 1    coefficients multiplying the functional components
   LIBXC   =     F    Libxc                    
   VOSKOWN =     0    Vosko Wilk Nusair interpolation
   LHFCALC =     F    Hartree Fock is set to
   LHFONE  =     F    Hartree Fock one center treatment
   AEXX    =    0.0000 exact exchange contribution

 Parameters of functionals:
   SCAN:
     P1 =  0.000000E+00
     P2 =  0.000000E+00
     P3 =  0.000000E+00

 Accuracy and mixing parameters for tau-dependent meta-GGA functionals:
   LMAXTAU = 6
   LMIXTAU = T

 Van der Waals corrections
   IVDW    =     0    specifies the selected vdW correction

 Linear response parameters
   LEPSILON=     F    determine dielectric tensor
   LRPA    =     F    only Hartree local field effects (RPA)
   LNABLA  =     F    use nabla operator in PAW spheres
   LVEL    =     F    velocity operator in full k-point grid
   CSHIFT  =0.1000    complex shift for real part using Kramers Kronig
   OMEGAMAX=  -1.0    maximum frequency
   DEG_THRESHOLD= 0.2000000E-02 threshold for treating states as degnerate
   RTIME   =   -0.100 relaxation time in fs
  (WPLASMAI=    0.000 imaginary part of plasma frequency in eV, 0.658/RTIME)
   DFIELD  = 0.0000000 0.0000000 0.0000000 field for delta impulse in time

  Optional k-point grid parameters
   LKPOINTS_OPT  =     F    use optional k-point grid
   KPOINTS_OPT_MODE=     1    mode for optional k-point grid

 Orbital magnetization related:
   ORBITALMAG=     F  switch on orbital magnetization
   LCHIMAG   =     F  perturbation theory with respect to B field
   DQ        =  0.001000  dq finite difference perturbation B field
   LLRAUG    =     F  two centre corrections for induced B field
   LBONE     =     F  B-component reconstruction in AE one-centre
   LVGVCALC  =     T  calculate vGv susceptibility
   LVGVAPPL  =     F  apply vGv susceptibility instead of pGv for G=0

 Random number generation:
   RANDOM_GENERATOR = DEFAULT
   PCG_SEED         = not used


--------------------------------------------------------------------------------------------------------


 Static calculation
 charge density and potential will be updated during run
 non-spin polarized calculation
 Variant of blocked Davidson
 perform Loewdin sub-space diagonalisation
    ordering is kept fixed
    before iterative eigenvector-optimisation
 modified Broyden-mixing scheme, WC =      100.0
 initial mixing is a Kerker type mixing with AMIX =  0.4000 and BMIX =      1.0000
 Hartree-type preconditioning will be used
 using additional bands           43
 reciprocal scheme for non local part
 use partial core corrections
 calculate Harris-corrections to forces   (improved forces if not selfconsistent)
 use gradient corrections 
 use of overlap-Matrix (Vanderbilt PP)
 Gauss-broadening in eV      SIGMA  =   0.10


--------------------------------------------------------------------------------------------------------


  energy-cutoff  :     1200.00
  volume of cell :     5671.63
      direct lattice vectors                 reciprocal lattice vectors
    14.535360045  0.000000000  0.000000000     0.068797745  0.000000000  0.000000000
     0.000000000 14.535360045  0.000000000     0.000000000  0.068797745  0.000000000
     0.000000000  0.000000000 26.844548700     0.000000000  0.000000000  0.037251511

  length of vectors
    14.535360045 14.535360045 26.844548700     0.068797745  0.068797745  0.037251511



 k-points in units of 2pi/SCALE and weight: read from INCAR                         
   0.00000000  0.00000000  0.00000000       0.125
   0.03439887  0.00000000  0.00000000       0.125
   0.00000000  0.03439887  0.00000000       0.125
   0.03439887  0.03439887  0.00000000       0.125
   0.00000000  0.00000000  0.01862576       0.125
   0.03439887  0.00000000  0.01862576       0.125
   0.00000000  0.03439887  0.01862576       0.125
   0.03439887  0.03439887  0.01862576       0.125

 k-points in reciprocal lattice and weights: read from INCAR                         
   0.00000000  0.00000000  0.00000000       0.125
   0.50000000  0.00000000  0.00000000       0.125
   0.00000000  0.50000000  0.00000000       0.125
   0.50000000  0.50000000  0.00000000       0.125
   0.00000000  0.00000000  0.50000000       0.125
   0.50000000  0.00000000  0.50000000       0.125
   0.00000000  0.50000000  0.50000000       0.125
   0.50000000  0.50000000  0.50000000       0.125

 position of ions in fractional coordinates (direct lattice) 
   0.12666559  0.31705303  0.54669083
   0.76665456  0.11879307  0.46395150
   0.93672258  0.75167041  0.53139574
   0.97116961  0.33164228  0.57574217
   0.66203176  0.23671859  0.41857469
   0.78860792  0.42868288  0.40496537
   0.62127322  0.87527244  0.55150745
   0.55443277  0.79652654  0.61867640
   0.11078363  0.28907437  0.48987185
   0.89800321  0.88019148  0.40189514
   0.94937449  0.41657241  0.54535052
   0.60359908  0.07800220  0.48013542
   0.91625525  0.15706456  0.62748489
   0.03086198  0.52549438  0.58951256
   0.11229581  0.89518250  0.61705670
   0.69992762  0.98153055  0.43283792
   0.59022618  0.72099349  0.41228999
   0.74327020  0.77394024  0.52803192
   0.80311048  0.55553698  0.46623912
   0.00887285  0.50239210  0.40871980
   0.87714374  0.29062644  0.42923123
   0.73652802  0.37557859  0.59186202
   0.80588991  0.20469049  0.48643949
   0.53117638  0.42493203  0.42283068
   0.40934039  0.52806053  0.41059020
   0.39479380  0.60956454  0.58666580
   0.06305375  0.13585491  0.49422841
   0.65673777  0.13584734  0.55605959
   0.28155890  0.88482844  0.38669161
   0.09222131  0.85387634  0.46832073
   0.17533793  0.92306623  0.53886839
   0.45877845  0.28543290  0.40514645
   0.68171548  0.64945484  0.47877276
   0.37489199  0.25929320  0.47966344
   0.52122135  0.94188241  0.49764885
   0.80355767  0.50296449  0.55383269
   0.76962662  0.74504518  0.61296835
   0.39284820  0.98899511  0.54116494
   0.19096534  0.13548271  0.37251511
   0.44013908  0.35482368  0.54263601
   0.31049386  0.04214034  0.40755987
   0.01417805  0.72690322  0.50201919
   0.58129829  0.16009717  0.40768857
   0.71729905  0.99057746  0.58455103
   0.32603252  0.47512480  0.55606145
   0.43049914  0.68425618  0.41373721
   0.04446921  0.94993863  0.40423830
   0.99063938  0.38306585  0.46073930
   0.93913050  0.63618651  0.43745190
   0.23953449  0.59590956  0.51085413
   0.44702436  0.04013440  0.61955926
   0.69018586  0.28785665  0.52566273
   0.86392769  0.96212959  0.55120944
   0.48434645  0.30620707  0.62030243
   0.21970285  0.77442182  0.43485099
   0.45683698  0.06725310  0.37551373
   0.55361752  0.62841512  0.60378138
   0.16183982  0.72841677  0.62498382
   0.55322537  0.16805019  0.62223354
   0.23934804  0.28215813  0.38168772
   0.10780813  0.64858662  0.55828537
   0.63136929  0.55357143  0.53896003
   0.30935663  0.84478816  0.54013419
   0.81371909  0.88564026  0.47917210
   0.95345419  0.90071384  0.61655753
   0.58954577  0.40273787  0.50418462
   0.19619397  0.10157230  0.53109847
   0.91741106  0.12149407  0.53453678
   0.24664267  0.34105106  0.46079481
   0.89862239  0.58218923  0.61400916
   0.58009021  0.86881233  0.42767971
   0.32698192  0.09775265  0.48894242
   0.24469569  0.36903867  0.61093740
   0.31226609  0.73853692  0.60566519
   0.26273997  0.49468881  0.44082092
   0.34811384  0.71678307  0.48850695
   0.21761071  0.19790497  0.60311979
   0.05574840  0.10168651  0.40953487

 position of ions in cartesian coordinates  (Angst):
   1.84113000  4.60848000 14.67566870
  11.14360000  1.72670000 12.45456870
  13.61560000 10.92580000 14.26507870
  14.11630000  4.82054000 15.45553870
   9.62287000  3.44079000 11.23644870
  11.46270000  6.23106000 10.87111270
   9.03043000 12.72240000 14.80496870
   8.05888000 11.57780000 16.60808870
   1.61028000  4.20180000 13.15038870
  13.05280000 12.79390000 10.78869370
  13.79950000  6.05503000 14.63968870
   8.77353000  1.13379000 12.88901870
  13.31810000  2.28299000 16.84454870
   0.44859000  7.63825000 15.82519870
   1.63226000 13.01180000 16.56460870
  10.17370000 14.26690000 11.61933870
   8.57915000 10.47990000 11.06773870
  10.80370000 11.24950000 14.17477870
  11.67350000  8.07493000 12.51597870
   0.12897000  7.30245000 10.97189870
  12.74960000  4.22436000 11.52251870
  10.70570000  5.45917000 15.88826870
  11.71390000  2.97525000 13.05824870
   7.72084000  6.17654000 11.35069870
   5.94991000  7.67555000 11.02210870
   5.73847000  8.86024000 15.74877870
   0.91650900  1.97470000 13.26733870
   9.54592000  1.97459000 14.92716870
   4.09256000 12.86130000 10.38056170
   1.34047000 12.41140000 12.57185870
   2.54860000 13.41710000 14.46567870
   6.66851000  4.14887000 10.87597370
   9.90898000  9.44006000 12.85243870
   5.44919000  3.76892000 12.87634870
   7.57614000 13.69060000 13.35915870
  11.68000000  7.31077000 14.86738870
  11.18680000 10.82950000 16.45485870
   5.71019000 14.37540000 14.52732870
   2.77575000  1.96929000 10.00000000
   6.39758000  5.15749000 14.56681870
   4.51314000  0.61252500 10.94076070
   0.20608300 10.56580000 13.47647870
   8.44938000  2.32707000 10.94421570
  10.42620000 14.39840000 15.69200870
   4.73900000  6.90611000 14.92721870
   6.25746000  9.94591000 11.10658870
   0.64637600 13.80770000 10.85159470
  14.39930000  5.56800000 12.36833870
  13.65060000  9.24720000 11.74319870
   3.48172000  8.66176000 13.71364870
   6.49766000  0.58336800 16.63178870
  10.03210000  4.18410000 14.11117870
  12.55750000 13.98490000 14.79696870
   7.04015000  4.45083000 16.65173870
   3.19346000 11.25650000 11.67337870
   6.64029000  0.97754800 10.08049670
   8.04703000  9.13424000 16.20823870
   2.35240000 10.58780000 16.77740870
   8.04133000  2.44267000 16.70357870
   3.47901000  4.10127000 10.24623470
   1.56703000  9.42744000 14.98691870
   9.17718000  8.04636000 14.46813870
   4.49661000 12.27930000 14.49965870
  11.82770000 12.87310000 12.86315870
  13.85880000 13.09220000 16.55120870
   8.56926000  5.85394000 13.53460870
   2.85175000  1.47639000 14.25709870
  13.33490000  1.76596000 14.34939870
   3.58504000  4.95730000 12.36982870
  13.06180000  8.46233000 16.48279870
   8.43182000 12.62850000 11.48086870
   4.75280000  1.42087000 13.12543870
   3.55674000  5.36411000 16.40033870
   4.53890000 10.73490000 16.25880870
   3.81902000  7.19048000 11.83363870
   5.05996000 10.41870000 13.11374870
   3.16305000  2.87662000 16.19047870
   0.81032300  1.47805000 10.99377870



--------------------------------------------------------------------------------------------------------


 k-point     1 :   0.0000 0.0000 0.0000  plane waves:  535247
 k-point     2 :   0.5000 0.0000 0.0000  plane waves:  535334
 k-point     3 :   0.0000 0.5000 0.0000  plane waves:  535334
 k-point     4 :   0.5000 0.5000 0.0000  plane waves:  535572
 k-point     5 :   0.0000 0.0000 0.5000  plane waves:  535032
 k-point     6 :   0.5000 0.0000 0.5000  plane waves:  535312
 k-point     7 :   0.0000 0.5000 0.5000  plane waves:  535312
 k-point     8 :   0.5000 0.5000 0.5000  plane waves:  535392

 maximum and minimum number of plane-waves per node :     33512    33393

 maximum number of plane-waves:    535572
 maximum index in each direction: 
   IXMAX=   41   IYMAX=   41   IZMAX=   75
   IXMIN=  -41   IYMIN=  -41   IZMIN=  -76


 parallel 3D FFT for wavefunctions:
    minimum data exchange during FFTs selected (reduces bandwidth)
 parallel 3D FFT for charge:
    minimum data exchange during FFTs selected (reduces bandwidth)


 total amount of memory used by VASP MPI-rank0   401872. kBytes
=======================================================================

   base                                    :      30000. kBytes
   nonl-proj                               :      76066. kBytes
   fftplans                                :     108827. kBytes
   grid                                    :      83991. kBytes
   one-center                              :         15. kBytes
   wavefun                                 :     102973. kBytes

     INWAV:  cpu time      0.0001: real time      0.0003
 Broyden mixing: mesh for mixing (old mesh)
   NGX = 83   NGY = 83   NGZ =151
  (NGX  =336   NGY  =336   NGZ  =640)
  gives a total of ****** points

 initial charge density was supplied:
 charge density of overlapping atoms calculated
 number of electron     297.0000000 magnetization 
 keeping initial charge density in first step


--------------------------------------------------------------------------------------------------------


 Maximum index for augmentation-charges        11276 (set IRDMAX)


--------------------------------------------------------------------------------------------------------


 First call to EWALD:  gamma=   0.099
 Maximum number of real-space cells   3x   3x   2
 Maximum number of reciprocal cells   2x   2x   4

    FEWALD:  cpu time      0.0132: real time      0.0134


--------------------------------------- Ionic step        1  -------------------------------------------




--------------------------------------- Iteration      1(   1)  ---------------------------------------


    POTLOK:  cpu time      2.2259: real time      2.2270
    SETDIJ:  cpu time      1.5470: real time      1.5485
    EDDIAG:  cpu time     63.6251: real time     63.6660
     EDDAV:  cpu time    280.3159: real time    280.4772
       DOS:  cpu time      0.0078: real time      0.0080
    --------------------------------------------
      LOOP:  cpu time    347.7223: real time    347.9353

 eigenvalue-minimisations  :  3072
 total energy-change (2. order) : 0.2095143E+04  (-0.1109775E+05)
 number of electron     297.0000000 magnetization 
 augmentation part      297.0000000 magnetization 

 Free energy of the ion-electron system (eV)
  ---------------------------------------------------
  alpha Z        PSCENC =        32.80897688
  Ewald energy   TEWEN  =     37581.38047203
  -Hartree energ DENC   =    -43783.37554589
  -exchange      EXHF   =         0.00000000
  -V(xc)+E(xc)   XCENC  =      -383.86864462
  PAW double counting   =      6095.76118577    -5361.31030974
  entropy T*S    EENTRO =        -0.11839011
  eigenvalues    EBANDS =       327.54450009
  atomic energy  EATOM  =      7586.32082211
  Solvation  Ediel_sol  =         0.00000000
  ---------------------------------------------------
  free energy    TOTEN  =      2095.14306651 eV

  energy without entropy =     2095.26145662  energy(sigma->0) =     2095.20226156


--------------------------------------------------------------------------------------------------------




--------------------------------------- Iteration      1(   2)  ---------------------------------------


    EDDIAG:  cpu time     63.6450: real time     63.7086
     EDDAV:  cpu time    345.7287: real time    345.9369
       DOS:  cpu time      0.0029: real time      0.0029
    --------------------------------------------
      LOOP:  cpu time    409.3766: real time    409.6403

 eigenvalue-minimisations  :  4360
 total energy-change (2. order) :-0.2431586E+04  (-0.2302649E+04)
 number of electron     297.0000000 magnetization 
 augmentation part      297.0000000 magnetization 

 Free energy of the ion-electron system (eV)
  ---------------------------------------------------
  alpha Z        PSCENC =        32.80897688
  Ewald energy   TEWEN  =     37581.38047203
  -Hartree energ DENC   =    -43783.37554589
  -exchange      EXHF   =         0.00000000
  -V(xc)+E(xc)   XCENC  =      -383.86864462
  PAW double counting   =      6095.76118577    -5361.31030974
  entropy T*S    EENTRO =        -0.22060074
  eigenvalues    EBANDS =     -2103.93947133
  atomic energy  EATOM  =      7586.32082211
  Solvation  Ediel_sol  =         0.00000000
  ---------------------------------------------------
  free energy    TOTEN  =      -336.44311554 eV

  energy without entropy =     -336.22251480  energy(sigma->0) =     -336.33281517


--------------------------------------------------------------------------------------------------------




--------------------------------------- Iteration      1(   3)  ---------------------------------------


    EDDIAG:  cpu time     63.7623: real time     63.8192
     EDDAV:  cpu time    306.2379: real time    306.4231
       DOS:  cpu time      0.0027: real time      0.0027
    --------------------------------------------
      LOOP:  cpu time    370.0028: real time    370.2450

 eigenvalue-minimisations  :  3584
 total energy-change (2. order) :-0.3720052E+03  (-0.2918215E+03)
 number of electron     297.0000000 magnetization 
 augmentation part      297.0000000 magnetization 

 Free energy of the ion-electron system (eV)
  ---------------------------------------------------
  alpha Z        PSCENC =        32.80897688
  Ewald energy   TEWEN  =     37581.38047203
  -Hartree energ DENC   =    -43783.37554589
  -exchange      EXHF   =         0.00000000
  -V(xc)+E(xc)   XCENC  =      -383.86864462
  PAW double counting   =      6095.76118577    -5361.31030974
  entropy T*S    EENTRO =        -0.16633644
  eigenvalues    EBANDS =     -2475.99897991
  atomic energy  EATOM  =      7586.32082211
  Solvation  Ediel_sol  =         0.00000000
  ---------------------------------------------------
  free energy    TOTEN  =      -708.44835982 eV

  energy without entropy =     -708.28202338  energy(sigma->0) =     -708.36519160


--------------------------------------------------------------------------------------------------------




--------------------------------------- Iteration      1(   4)  ---------------------------------------


    EDDIAG:  cpu time     63.7762: real time     63.8263
     EDDAV:  cpu time    337.6936: real time    337.9029
       DOS:  cpu time      0.0039: real time      0.0039
    --------------------------------------------
      LOOP:  cpu time    401.4738: real time    401.7332

 eigenvalue-minimisations  :  4208
 total energy-change (2. order) :-0.2237686E+02  (-0.1441119E+02)
 number of electron     297.0000000 magnetization 
 augmentation part      297.0000000 magnetization 

 Free energy of the ion-electron system (eV)
  ---------------------------------------------------
  alpha Z        PSCENC =        32.80897688
  Ewald energy   TEWEN  =     37581.38047203
  -Hartree energ DENC   =    -43783.37554589
  -exchange      EXHF   =         0.00000000
  -V(xc)+E(xc)   XCENC  =      -383.86864462
  PAW double counting   =      6095.76118577    -5361.31030974
  entropy T*S    EENTRO =        -0.21136936
  eigenvalues    EBANDS =     -2498.33081106
  atomic energy  EATOM  =      7586.32082211
  Solvation  Ediel_sol  =         0.00000000
  ---------------------------------------------------
  free energy    TOTEN  =      -730.82522389 eV

  energy without entropy =     -730.61385453  energy(sigma->0) =     -730.71953921


--------------------------------------------------------------------------------------------------------




--------------------------------------- Iteration      1(   5)  ---------------------------------------


    EDDIAG:  cpu time     63.6527: real time     63.7115
     EDDAV:  cpu time    358.5190: real time    358.7410
       DOS:  cpu time      0.0034: real time      0.0144
    CHARGE:  cpu time     35.8298: real time     35.8627
    MIXING:  cpu time      0.0509: real time      0.0512
    --------------------------------------------
      LOOP:  cpu time    458.0555: real time    458.3804

 eigenvalue-minimisations  :  4616
 total energy-change (2. order) :-0.8543094E+00  (-0.6250877E+00)
 number of electron     296.9999999 magnetization 
 augmentation part      -17.3159660 magnetization 

 Broyden mixing:
  rms(total) = 0.33490E+01    rms(broyden)= 0.26551E+02
  rms(prec ) = 0.34541E+01
  weight for this iteration     100.00
  WARNING: grid for Broyden might be to small

 Free energy of the ion-electron system (eV)
  ---------------------------------------------------
  alpha Z        PSCENC =        32.80897688
  Ewald energy   TEWEN  =     37581.38047203
  -Hartree energ DENC   =    -43783.37554589
  -exchange      EXHF   =         0.00000000
  -V(xc)+E(xc)   XCENC  =      -383.86864462
  PAW double counting   =      6095.76118577    -5361.31030974
  entropy T*S    EENTRO =        -0.21688725
  eigenvalues    EBANDS =     -2499.17960257
  atomic energy  EATOM  =      7586.32082211
  Solvation  Ediel_sol  =         0.00000000
  ---------------------------------------------------
  free energy    TOTEN  =      -731.67953329 eV

  energy without entropy =     -731.46264604  energy(sigma->0) =     -731.57108966


--------------------------------------------------------------------------------------------------------




--------------------------------------- Iteration      1(   6)  ---------------------------------------


    POTLOK:  cpu time      2.1696: real time      2.1889
    SETDIJ:  cpu time      1.5347: real time      1.5363
    EDDIAG:  cpu time     63.6089: real time     63.6479
     EDDAV:  cpu time    302.6108: real time    302.7947
       DOS:  cpu time      0.0052: real time      0.0052
    CHARGE:  cpu time     36.0108: real time     36.0429
    MIXING:  cpu time      0.0442: real time      0.0443
    --------------------------------------------
      LOOP:  cpu time    405.9842: real time    406.2600

 eigenvalue-minimisations  :  3512
 total energy-change (2. order) : 0.5821721E+02  (-0.2785258E+01)
 number of electron     296.9999999 magnetization 
 augmentation part      -17.0110485 magnetization 

 Broyden mixing:
  rms(total) = 0.20748E+01    rms(broyden)= 0.16216E+02
  rms(prec ) = 0.21211E+01
  weight for this iteration     100.00
  WARNING: grid for Broyden might be to small

 eigenvalues of (default mixing * dielectric matrix)
  average eigenvalue GAMMA=   0.6220
  0.6220

 Free energy of the ion-electron system (eV)
  ---------------------------------------------------
  alpha Z        PSCENC =        32.80897688
  Ewald energy   TEWEN  =     37581.38047203
  -Hartree energ DENC   =    -43938.77342138
  -exchange      EXHF   =         0.00000000
  -V(xc)+E(xc)   XCENC  =      -366.61080521
  PAW double counting   =     14638.36473517   -13906.50774204
  entropy T*S    EENTRO =        -0.21676052
  eigenvalues    EBANDS =     -2300.22859580
  atomic energy  EATOM  =      7586.32082211
  Solvation  Ediel_sol  =         0.00000000
  ---------------------------------------------------
  free energy    TOTEN  =      -673.46231877 eV

  energy without entropy =     -673.24555825  energy(sigma->0) =     -673.35393851


--------------------------------------------------------------------------------------------------------




--------------------------------------- Iteration      1(   7)  ---------------------------------------


    POTLOK:  cpu time      2.1610: real time      2.1803
    SETDIJ:  cpu time      1.5692: real time      1.5700
    EDDIAG:  cpu time     63.6425: real time     63.6810
     EDDAV:  cpu time    306.6893: real time    306.8769
       DOS:  cpu time      0.0037: real time      0.0037
    CHARGE:  cpu time     35.9287: real time     35.9630
    MIXING:  cpu time      0.0415: real time      0.0415
    --------------------------------------------
      LOOP:  cpu time    410.0358: real time    410.3164

 eigenvalue-minimisations  :  3592
 total energy-change (2. order) :-0.3446787E+01  (-0.2046931E+01)
 number of electron     296.9999999 magnetization 
 augmentation part      -16.8392246 magnetization 

 Broyden mixing:
  rms(total) = 0.85301E+00    rms(broyden)= 0.30247E+02
  rms(prec ) = 0.12107E+01
  weight for this iteration     100.00
  WARNING: grid for Broyden might be to small

 eigenvalues of (default mixing * dielectric matrix)
  average eigenvalue GAMMA=   0.6720
  0.6720  0.6720

 Free energy of the ion-electron system (eV)
  ---------------------------------------------------
  alpha Z        PSCENC =        32.80897688
  Ewald energy   TEWEN  =     37581.38047203
  -Hartree energ DENC   =    -44030.17310482
  -exchange      EXHF   =         0.00000000
  -V(xc)+E(xc)   XCENC  =      -362.03283396
  PAW double counting   =     30216.67227903   -29487.38450799
  entropy T*S    EENTRO =        -0.17493179
  eigenvalues    EBANDS =     -2214.32627754
  atomic energy  EATOM  =      7586.32082211
  Solvation  Ediel_sol  =         0.00000000
  ---------------------------------------------------
  free energy    TOTEN  =      -676.90910606 eV

  energy without entropy =     -676.73417427  energy(sigma->0) =     -676.82164017


--------------------------------------------------------------------------------------------------------




--------------------------------------- Iteration      1(   8)  ---------------------------------------


    POTLOK:  cpu time      2.1692: real time      2.1896
    SETDIJ:  cpu time      1.5377: real time      1.5385
    EDDIAG:  cpu time     63.6235: real time     63.6652
     EDDAV:  cpu time    309.0050: real time    309.1901
       DOS:  cpu time      0.0107: real time      0.0107
    CHARGE:  cpu time     36.0209: real time     36.0538
    MIXING:  cpu time      0.0564: real time      0.0575
    --------------------------------------------
      LOOP:  cpu time    412.4233: real time    412.7054

 eigenvalue-minimisations  :  3640
 total energy-change (2. order) : 0.1443272E+01  (-0.1608147E+01)
 number of electron     296.9999999 magnetization 
 augmentation part      -16.7847963 magnetization 

 Broyden mixing:
  rms(total) = 0.42339E+00    rms(broyden)= 0.58253E+01
  rms(prec ) = 0.68527E+00
  weight for this iteration     100.00
  WARNING: grid for Broyden might be to small

 eigenvalues of (default mixing * dielectric matrix)
  average eigenvalue GAMMA=   0.7546
  1.1526  0.6436  0.4677

 Free energy of the ion-electron system (eV)
  ---------------------------------------------------
  alpha Z        PSCENC =        32.80897688
  Ewald energy   TEWEN  =     37581.38047203
  -Hartree energ DENC   =    -44073.81818100
  -exchange      EXHF   =         0.00000000
  -V(xc)+E(xc)   XCENC  =      -359.93415383
  PAW double counting   =     36385.10215614   -35656.53726565
  entropy T*S    EENTRO =        -0.18361780
  eigenvalues    EBANDS =     -2170.60504267
  atomic energy  EATOM  =      7586.32082211
  Solvation  Ediel_sol  =         0.00000000
  ---------------------------------------------------
  free energy    TOTEN  =      -675.46583381 eV

  energy without entropy =     -675.28221600  energy(sigma->0) =     -675.37402491


--------------------------------------------------------------------------------------------------------




--------------------------------------- Iteration      1(   9)  ---------------------------------------


    POTLOK:  cpu time      2.1801: real time      2.2005
    SETDIJ:  cpu time      1.5487: real time      1.5510
    EDDIAG:  cpu time     63.5917: real time     63.6317
     EDDAV:  cpu time    304.4518: real time    304.6412
       DOS:  cpu time      0.0043: real time      0.0043
    CHARGE:  cpu time     35.6621: real time     35.6956
    MIXING:  cpu time      0.0435: real time      0.0435
    --------------------------------------------
      LOOP:  cpu time    407.4822: real time    407.7679

 eigenvalue-minimisations  :  3552
 total energy-change (2. order) :-0.1912140E+00  (-0.4955933E+00)
 number of electron     296.9999999 magnetization 
 augmentation part      -16.7733303 magnetization 

 Broyden mixing:
  rms(total) = 0.27394E+00    rms(broyden)= 0.24398E+01
  rms(prec ) = 0.39049E+00
  weight for this iteration     100.00
  WARNING: grid for Broyden might be to small

 eigenvalues of (default mixing * dielectric matrix)
  average eigenvalue GAMMA=   0.7634
  1.4745  0.6324  0.4734  0.4734

 Free energy of the ion-electron system (eV)
  ---------------------------------------------------
  alpha Z        PSCENC =        32.80897688
  Ewald energy   TEWEN  =     37581.38047203
  -Hartree energ DENC   =    -44085.24228007
  -exchange      EXHF   =         0.00000000
  -V(xc)+E(xc)   XCENC  =      -359.68872808
  PAW double counting   =     37635.18265615   -36906.65443010
  entropy T*S    EENTRO =        -0.23213681
  eigenvalues    EBANDS =     -2159.53239991
  atomic energy  EATOM  =      7586.32082211
  Solvation  Ediel_sol  =         0.00000000
  ---------------------------------------------------
  free energy    TOTEN  =      -675.65704780 eV

  energy without entropy =     -675.42491099  energy(sigma->0) =     -675.54097939


--------------------------------------------------------------------------------------------------------




--------------------------------------- Iteration      1(  10)  ---------------------------------------


    POTLOK:  cpu time      2.1698: real time      2.1875
    SETDIJ:  cpu time      1.5374: real time      1.5387
    EDDIAG:  cpu time     63.5904: real time     63.6296
     EDDAV:  cpu time    297.3208: real time    297.5043
       DOS:  cpu time      0.0087: real time      0.0088
    CHARGE:  cpu time     35.8111: real time     35.8432
    MIXING:  cpu time      0.0557: real time      0.0575
    --------------------------------------------
      LOOP:  cpu time    400.4940: real time    400.7696

 eigenvalue-minimisations  :  3408
 total energy-change (2. order) :-0.1603011E+00  (-0.1489210E+00)
 number of electron     296.9999999 magnetization 
 augmentation part      -16.7649976 magnetization 

 Broyden mixing:
  rms(total) = 0.12978E+00    rms(broyden)= 0.15788E+01
  rms(prec ) = 0.16533E+00
  weight for this iteration     100.00
  WARNING: grid for Broyden might be to small

 eigenvalues of (default mixing * dielectric matrix)
  average eigenvalue GAMMA=   0.9139
  2.3055  0.7238  0.6444  0.4728  0.4230

 Free energy of the ion-electron system (eV)
  ---------------------------------------------------
  alpha Z        PSCENC =        32.80897688
  Ewald energy   TEWEN  =     37581.38047203
  -Hartree energ DENC   =    -44088.51679803
  -exchange      EXHF   =         0.00000000
  -V(xc)+E(xc)   XCENC  =      -359.50156314
  PAW double counting   =     37907.16748889   -37178.58169601
  entropy T*S    EENTRO =        -0.22860679
  eigenvalues    EBANDS =     -2156.66644484
  atomic energy  EATOM  =      7586.32082211
  Solvation  Ediel_sol  =         0.00000000
  ---------------------------------------------------
  free energy    TOTEN  =      -675.81734890 eV

  energy without entropy =     -675.58874211  energy(sigma->0) =     -675.70304551


--------------------------------------------------------------------------------------------------------




--------------------------------------- Iteration      1(  11)  ---------------------------------------


    POTLOK:  cpu time      2.1939: real time      2.1957
    SETDIJ:  cpu time      1.5388: real time      1.5407
    EDDIAG:  cpu time     63.6137: real time     63.6521
     EDDAV:  cpu time    311.4295: real time    311.6036
       DOS:  cpu time      0.0041: real time      0.0041
    CHARGE:  cpu time     35.7956: real time     35.8241
    MIXING:  cpu time      0.0447: real time      0.0447
    --------------------------------------------
      LOOP:  cpu time    414.6204: real time    414.8650

 eigenvalue-minimisations  :  3688
 total energy-change (2. order) :-0.7835095E-01  (-0.4235603E-01)
 number of electron     296.9999999 magnetization 
 augmentation part      -16.7660988 magnetization 

 Broyden mixing:
  rms(total) = 0.80425E-01    rms(broyden)= 0.99569E+00
  rms(prec ) = 0.94669E-01
  weight for this iteration     100.00
  WARNING: grid for Broyden might be to small

 eigenvalues of (default mixing * dielectric matrix)
  average eigenvalue GAMMA=   0.9175
  2.4792  0.7899  0.6129  0.6129  0.6599  0.3503

 Free energy of the ion-electron system (eV)
  ---------------------------------------------------
  alpha Z        PSCENC =        32.80897688
  Ewald energy   TEWEN  =     37581.38047203
  -Hartree energ DENC   =    -44089.63586165
  -exchange      EXHF   =         0.00000000
  -V(xc)+E(xc)   XCENC  =      -359.16323001
  PAW double counting   =     37967.97856036   -37239.26848654
  entropy T*S    EENTRO =        -0.23220003
  eigenvalues    EBANDS =     -2156.08475300
  atomic energy  EATOM  =      7586.32082211
  Solvation  Ediel_sol  =         0.00000000
  ---------------------------------------------------
  free energy    TOTEN  =      -675.89569985 eV

  energy without entropy =     -675.66349981  energy(sigma->0) =     -675.77959983


--------------------------------------------------------------------------------------------------------




--------------------------------------- Iteration      1(  12)  ---------------------------------------


    POTLOK:  cpu time      2.1700: real time      2.1876
    SETDIJ:  cpu time      1.5288: real time      1.5294
    EDDIAG:  cpu time     63.6639: real time     63.6967
     EDDAV:  cpu time    299.2308: real time    299.4199
       DOS:  cpu time      0.0034: real time      0.0034
    CHARGE:  cpu time     35.6655: real time     35.6989
    MIXING:  cpu time      0.0452: real time      0.0452
    --------------------------------------------
      LOOP:  cpu time    402.3077: real time    402.5812

 eigenvalue-minimisations  :  3448
 total energy-change (2. order) :-0.3356529E-01  (-0.1117335E-01)
 number of electron     296.9999999 magnetization 
 augmentation part      -16.7651157 magnetization 

 Broyden mixing:
  rms(total) = 0.48801E-01    rms(broyden)= 0.25312E+00
  rms(prec ) = 0.56196E-01
  weight for this iteration     100.00
  WARNING: grid for Broyden might be to small

 eigenvalues of (default mixing * dielectric matrix)
  average eigenvalue GAMMA=   0.9200
  2.5030  1.1841  0.6027  0.6027  0.3631  0.6355  0.5491

 Free energy of the ion-electron system (eV)
  ---------------------------------------------------
  alpha Z        PSCENC =        32.80897688
  Ewald energy   TEWEN  =     37581.38047203
  -Hartree energ DENC   =    -44093.39101306
  -exchange      EXHF   =         0.00000000
  -V(xc)+E(xc)   XCENC  =      -358.91971510
  PAW double counting   =     37952.24414285   -37223.44914616
  entropy T*S    EENTRO =        -0.23270998
  eigenvalues    EBANDS =     -2152.69109471
  atomic energy  EATOM  =      7586.32082211
  Solvation  Ediel_sol  =         0.00000000
  ---------------------------------------------------
  free energy    TOTEN  =      -675.92926514 eV

  energy without entropy =     -675.69655516  energy(sigma->0) =     -675.81291015


--------------------------------------------------------------------------------------------------------




--------------------------------------- Iteration      1(  13)  ---------------------------------------


    POTLOK:  cpu time      2.1955: real time      2.1978
    SETDIJ:  cpu time      1.5412: real time      1.5421
    EDDIAG:  cpu time     63.6414: real time     63.6831
     EDDAV:  cpu time    294.9414: real time    295.1326
       DOS:  cpu time      0.0029: real time      0.0029
    CHARGE:  cpu time     35.6703: real time     35.7034
    MIXING:  cpu time      0.0457: real time      0.0457
    --------------------------------------------
      LOOP:  cpu time    398.0384: real time    398.3078

 eigenvalue-minimisations  :  3360
 total energy-change (2. order) :-0.2023124E-01  (-0.3601579E-02)
 number of electron     296.9999999 magnetization 
 augmentation part      -16.7626158 magnetization 

 Broyden mixing:
  rms(total) = 0.27826E-01    rms(broyden)= 0.31209E+00
  rms(prec ) = 0.35280E-01
  weight for this iteration     100.00
  WARNING: grid for Broyden might be to small

 eigenvalues of (default mixing * dielectric matrix)
  average eigenvalue GAMMA=   0.9198
  2.5296  1.3059  0.8864  0.5686  0.5686  0.3620  0.6057  0.5312

 Free energy of the ion-electron system (eV)
  ---------------------------------------------------
  alpha Z        PSCENC =        32.80897688
  Ewald energy   TEWEN  =     37581.38047203
  -Hartree energ DENC   =    -44100.39957797
  -exchange      EXHF   =         0.00000000
  -V(xc)+E(xc)   XCENC  =      -358.66347485
  PAW double counting   =     37927.95122898   -37199.09008283
  entropy T*S    EENTRO =        -0.23388297
  eigenvalues    EBANDS =     -2146.02397776
  atomic energy  EATOM  =      7586.32082211
  Solvation  Ediel_sol  =         0.00000000
  ---------------------------------------------------
  free energy    TOTEN  =      -675.94949638 eV

  energy without entropy =     -675.71561341  energy(sigma->0) =     -675.83255490


--------------------------------------------------------------------------------------------------------




--------------------------------------- Iteration      1(  14)  ---------------------------------------


    POTLOK:  cpu time      2.1626: real time      2.1857
    SETDIJ:  cpu time      1.5330: real time      1.5337
    EDDIAG:  cpu time     63.6297: real time     63.6761
     EDDAV:  cpu time    292.2592: real time    292.4411
       DOS:  cpu time      0.0048: real time      0.0048
    CHARGE:  cpu time     35.7922: real time     35.8243
    MIXING:  cpu time      0.0460: real time      0.0460
    --------------------------------------------
      LOOP:  cpu time    395.4274: real time    395.7117

 eigenvalue-minimisations  :  3304
 total energy-change (2. order) :-0.1073857E-01  (-0.1480476E-02)
 number of electron     296.9999999 magnetization 
 augmentation part      -16.7609967 magnetization 

 Broyden mixing:
  rms(total) = 0.13057E-01    rms(broyden)= 0.16134E+00
  rms(prec ) = 0.18502E-01
  weight for this iteration     100.00
  WARNING: grid for Broyden might be to small

 eigenvalues of (default mixing * dielectric matrix)
  average eigenvalue GAMMA=   0.9315
  2.5435  1.4566  1.0232  0.7252  0.5851  0.5851  0.3609  0.6054  0.4987

 Free energy of the ion-electron system (eV)
  ---------------------------------------------------
  alpha Z        PSCENC =        32.80897688
  Ewald energy   TEWEN  =     37581.38047203
  -Hartree energ DENC   =    -44105.91849385
  -exchange      EXHF   =         0.00000000
  -V(xc)+E(xc)   XCENC  =      -358.51041708
  PAW double counting   =     37876.90535550   -37148.00027148
  entropy T*S    EENTRO =        -0.23312619
  eigenvalues    EBANDS =     -2140.71355288
  atomic energy  EATOM  =      7586.32082211
  Solvation  Ediel_sol  =         0.00000000
  ---------------------------------------------------
  free energy    TOTEN  =      -675.96023495 eV

  energy without entropy =     -675.72710876  energy(sigma->0) =     -675.84367186


--------------------------------------------------------------------------------------------------------




--------------------------------------- Iteration      1(  15)  ---------------------------------------


    POTLOK:  cpu time      2.1875: real time      2.1902
    SETDIJ:  cpu time      1.5405: real time      1.5413
    EDDIAG:  cpu time     63.7209: real time     63.7612
     EDDAV:  cpu time    291.3624: real time    291.5403
       DOS:  cpu time      0.0030: real time      0.0030
    CHARGE:  cpu time     35.7014: real time     35.7363
    MIXING:  cpu time      0.0468: real time      0.0468
    --------------------------------------------
      LOOP:  cpu time    394.5624: real time    394.8191

 eigenvalue-minimisations  :  3288
 total energy-change (2. order) :-0.7904074E-02  (-0.7942873E-03)
 number of electron     296.9999999 magnetization 
 augmentation part      -16.7601105 magnetization 

 Broyden mixing:
  rms(total) = 0.77958E-02    rms(broyden)= 0.12412E+00
  rms(prec ) = 0.12035E-01
  weight for this iteration     100.00
  WARNING: grid for Broyden might be to small

 eigenvalues of (default mixing * dielectric matrix)
  average eigenvalue GAMMA=   1.0080
  2.3907  2.3907  1.1420  0.8301  0.3608  0.5759  0.5759  0.6494  0.6494  0.5156

 Free energy of the ion-electron system (eV)
  ---------------------------------------------------
  alpha Z        PSCENC =        32.80897688
  Ewald energy   TEWEN  =     37581.38047203
  -Hartree energ DENC   =    -44110.60643632
  -exchange      EXHF   =         0.00000000
  -V(xc)+E(xc)   XCENC  =      -358.41585677
  PAW double counting   =     37827.41241946   -37098.48174412
  entropy T*S    EENTRO =        -0.23350344
  eigenvalues    EBANDS =     -2136.15328885
  atomic energy  EATOM  =      7586.32082211
  Solvation  Ediel_sol  =         0.00000000
  ---------------------------------------------------
  free energy    TOTEN  =      -675.96813902 eV

  energy without entropy =     -675.73463559  energy(sigma->0) =     -675.85138730


--------------------------------------------------------------------------------------------------------




--------------------------------------- Iteration      1(  16)  ---------------------------------------


    POTLOK:  cpu time      2.1683: real time      2.1860
    SETDIJ:  cpu time      1.5335: real time      1.5348
    EDDIAG:  cpu time     63.6810: real time     63.7217
     EDDAV:  cpu time    294.2762: real time    294.4492
       DOS:  cpu time      0.0031: real time      0.0031
    CHARGE:  cpu time     35.8081: real time     35.8406
    MIXING:  cpu time      0.0475: real time      0.0475
    --------------------------------------------
      LOOP:  cpu time    397.5176: real time    397.7829

 eigenvalue-minimisations  :  3352
 total energy-change (2. order) :-0.6210031E-02  (-0.3970031E-03)
 number of electron     296.9999999 magnetization 
 augmentation part      -16.7587033 magnetization 

 Broyden mixing:
  rms(total) = 0.49050E-02    rms(broyden)= 0.59234E-01
  rms(prec ) = 0.83186E-02
  weight for this iteration     100.00
  WARNING: grid for Broyden might be to small

 eigenvalues of (default mixing * dielectric matrix)
  average eigenvalue GAMMA=   1.0478
  2.6133  2.6133  1.2495  1.0330  0.3608  0.7512  0.5853  0.5853  0.6507  0.5419
  0.5419

 Free energy of the ion-electron system (eV)
  ---------------------------------------------------
  alpha Z        PSCENC =        32.80897688
  Ewald energy   TEWEN  =     37581.38047203
  -Hartree energ DENC   =    -44114.89794834
  -exchange      EXHF   =         0.00000000
  -V(xc)+E(xc)   XCENC  =      -358.33880895
  PAW double counting   =     37804.74761423   -37075.81136879
  entropy T*S    EENTRO =        -0.23311736
  eigenvalues    EBANDS =     -2131.95099085
  atomic energy  EATOM  =      7586.32082211
  Solvation  Ediel_sol  =         0.00000000
  ---------------------------------------------------
  free energy    TOTEN  =      -675.97434906 eV

  energy without entropy =     -675.74123169  energy(sigma->0) =     -675.85779037


--------------------------------------------------------------------------------------------------------




--------------------------------------- Iteration      1(  17)  ---------------------------------------


    POTLOK:  cpu time      2.1855: real time      2.1867
    SETDIJ:  cpu time      1.5414: real time      1.5424
    EDDIAG:  cpu time     63.6374: real time     63.6741
     EDDAV:  cpu time    293.6023: real time    293.7815
       DOS:  cpu time      0.0034: real time      0.0034
    CHARGE:  cpu time     35.6832: real time     35.7153
    MIXING:  cpu time      0.0497: real time      0.0497
    --------------------------------------------
      LOOP:  cpu time    396.7028: real time    396.9531

 eigenvalue-minimisations  :  3336
 total energy-change (2. order) :-0.5781575E-02  (-0.3239536E-03)
 number of electron     296.9999999 magnetization 
 augmentation part      -16.7578050 magnetization 

 Broyden mixing:
  rms(total) = 0.32316E-02    rms(broyden)= 0.46008E-01
  rms(prec ) = 0.55016E-02
  weight for this iteration     100.00
  WARNING: grid for Broyden might be to small

 eigenvalues of (default mixing * dielectric matrix)
  average eigenvalue GAMMA=   1.0817
  2.7546  2.7546  1.3156  1.3156  0.8100  0.8100  0.3608  0.5796  0.5796  0.4995
  0.6001  0.6001

 Free energy of the ion-electron system (eV)
  ---------------------------------------------------
  alpha Z        PSCENC =        32.80897688
  Ewald energy   TEWEN  =     37581.38047203
  -Hartree energ DENC   =    -44119.39481074
  -exchange      EXHF   =         0.00000000
  -V(xc)+E(xc)   XCENC  =      -358.28320928
  PAW double counting   =     37788.15363368   -37059.21277110
  entropy T*S    EENTRO =        -0.23313612
  eigenvalues    EBANDS =     -2127.52010809
  atomic energy  EATOM  =      7586.32082211
  Solvation  Ediel_sol  =         0.00000000
  ---------------------------------------------------
  free energy    TOTEN  =      -675.98013063 eV

  energy without entropy =     -675.74699451  energy(sigma->0) =     -675.86356257


--------------------------------------------------------------------------------------------------------




--------------------------------------- Iteration      1(  18)  ---------------------------------------


    POTLOK:  cpu time      2.1806: real time      2.1973
    SETDIJ:  cpu time      1.5435: real time      1.5445
    EDDIAG:  cpu time     63.7049: real time     63.7438
     EDDAV:  cpu time    299.2012: real time    299.3846
       DOS:  cpu time      0.0040: real time      0.0040
    CHARGE:  cpu time     35.6986: real time     35.7343
    MIXING:  cpu time      0.0488: real time      0.0488
    --------------------------------------------
      LOOP:  cpu time    402.3816: real time    402.6574

 eigenvalue-minimisations  :  3448
 total energy-change (2. order) :-0.3479169E-02  (-0.1214729E-03)
 number of electron     296.9999999 magnetization 
 augmentation part      -16.7570144 magnetization 

 Broyden mixing:
  rms(total) = 0.21915E-02    rms(broyden)= 0.37416E-01
  rms(prec ) = 0.36202E-02
  weight for this iteration     100.00
  WARNING: grid for Broyden might be to small

 eigenvalues of (default mixing * dielectric matrix)
  average eigenvalue GAMMA=   1.1441
  3.0456  2.7729  2.0460  1.1260  1.1260  0.3608  0.7665  0.7665  0.5774  0.5774
  0.5022  0.6220  0.5842

 Free energy of the ion-electron system (eV)
  ---------------------------------------------------
  alpha Z        PSCENC =        32.80897688
[...]
   -.713E+01 0.915E+01 -.255E+03   0.660E+01 -.923E+01 0.258E+03   0.490E+00 0.717E-02 -.177E+01   -.532E-05 -.609E-05 0.346E-05
   -.169E+02 -.721E+01 0.533E+02   0.174E+02 0.605E+01 -.558E+02   -.888E-01 0.511E+00 0.278E+01   0.811E-06 -.459E-05 0.184E-05
   -.394E+02 -.283E+02 0.223E+03   0.383E+02 0.267E+02 -.222E+03   0.131E+01 0.155E+01 -.150E+01   0.125E-05 -.327E-06 0.359E-05
   -.567E+01 -.453E+01 0.248E+03   0.594E+01 0.649E+01 -.245E+03   -.397E+00 -.175E+01 -.208E+01   0.770E-06 0.321E-05 0.150E-05
   -.152E+02 0.186E+02 -.204E+03   0.162E+02 -.184E+02 0.205E+03   0.616E-01 -.484E+00 -.639E+00   0.181E-06 -.510E-07 0.270E-05
   0.328E+02 0.952E+01 0.102E+02   -.306E+02 -.901E+01 -.109E+02   -.298E+01 -.145E-01 0.223E+00   -.201E-05 0.269E-05 -.254E-06
   -.142E+02 -.135E+02 -.148E+03   0.128E+02 0.127E+02 0.147E+03   0.967E+00 0.810E+00 0.137E+01   -.126E-04 -.209E-05 0.575E-05
   -.973E+01 0.247E+02 0.289E+03   0.822E+01 -.266E+02 -.289E+03   0.155E+01 0.206E+01 0.400E-01   0.476E-06 -.999E-06 0.336E-05
   0.249E+02 0.345E+01 0.976E+02   -.238E+02 -.383E+01 -.975E+02   -.892E+00 0.534E+00 0.573E+00   -.249E-05 0.151E-05 -.333E-06
   0.209E+02 -.223E+02 -.854E+02   -.207E+02 0.205E+02 0.873E+02   -.157E+01 0.294E+01 -.217E+01   0.178E-05 0.101E-05 0.408E-05
   -.120E+02 -.120E+02 0.264E+03   0.124E+02 0.131E+02 -.261E+03   -.905E+00 -.207E+01 -.222E+01   0.265E-05 -.352E-05 0.240E-05
   0.105E+02 -.700E+01 0.104E+03   -.915E+01 0.540E+01 -.102E+03   -.185E+01 0.321E+01 -.256E+01   0.514E-06 0.367E-05 -.326E-05
   -.147E+02 0.825E+01 0.361E+02   0.146E+02 -.602E+01 -.378E+02   0.776E+00 -.296E+01 0.168E+01   0.313E-05 -.286E-05 0.957E-05
   0.261E+02 0.195E+02 0.265E+02   -.241E+02 -.189E+02 -.259E+02   -.191E+01 -.867E-01 -.133E+01   0.196E-05 0.256E-05 0.689E-05
   0.248E+01 -.505E+01 -.124E+03   -.183E+01 0.443E+01 0.126E+03   -.283E+00 0.967E+00 -.196E+01   0.129E-05 0.139E-06 -.181E-05
   -.158E+02 0.117E+02 -.274E+03   0.138E+02 -.108E+02 0.276E+03   0.259E+01 -.886E+00 -.161E+01   0.609E-06 0.143E-05 -.714E-06
   0.754E+01 -.463E+00 -.112E+03   -.497E+01 0.701E+00 0.111E+03   -.198E+01 -.571E+00 0.101E+01   0.645E-05 0.212E-05 0.870E-05
   0.197E+02 0.161E+01 0.313E+03   -.199E+02 -.514E+00 -.310E+03   0.928E+00 -.122E+01 -.306E+01   -.263E-05 -.246E-06 0.434E-05
   -.320E+01 -.822E+01 -.103E+03   0.411E+01 0.659E+01 0.103E+03   -.692E+00 0.187E+01 -.910E+00   0.287E-06 -.717E-05 0.927E-05
   0.116E+01 0.212E+02 0.226E+03   -.459E+00 -.207E+02 -.225E+03   -.114E+01 -.521E+00 -.107E+01   0.466E-06 -.259E-05 0.346E-05
   0.533E+01 0.115E+02 0.331E+02   -.763E+01 -.105E+02 -.308E+02   0.264E+01 -.141E+01 -.341E+01   -.589E-06 0.530E-06 0.103E-05
   -.346E+02 -.129E+02 0.260E+03   0.328E+02 0.129E+02 -.256E+03   0.140E+01 0.145E+01 -.352E+01   0.157E-05 -.233E-05 0.292E-05
   -.986E+01 -.119E+02 -.236E+03   0.102E+02 0.109E+02 0.236E+03   -.139E-01 0.164E+01 0.225E+00   -.108E-04 0.306E-05 -.589E-06
   0.573E+01 0.484E+01 -.133E+03   -.611E+01 -.539E+01 0.134E+03   0.360E+00 0.958E-01 -.139E+01   0.110E-05 -.629E-05 0.349E-05
   -.131E+01 -.882E+01 0.241E+03   0.253E+01 0.774E+01 -.240E+03   -.589E+00 0.135E+01 -.150E+00   0.290E-05 0.269E-05 0.103E-05
   0.173E+02 0.190E+02 0.257E+03   -.174E+02 -.173E+02 -.256E+03   0.215E-01 -.283E+01 -.146E+01   -.538E-05 -.205E-05 -.140E-05
   -.715E+01 -.972E+01 0.120E+03   0.683E+01 0.951E+01 -.121E+03   0.223E+00 0.508E-01 0.129E+01   0.163E-05 -.395E-06 0.727E-06
   -.636E+00 -.241E+02 0.202E+03   0.301E+00 0.225E+02 -.202E+03   0.433E+00 0.167E+01 -.282E+00   -.131E-05 0.927E-07 -.691E-06
   0.248E+02 0.127E+02 0.132E+01   -.247E+02 -.125E+02 -.181E+01   0.332E+00 -.319E+00 0.132E+00   -.257E-05 0.411E-06 0.244E-05
   0.181E+02 0.618E+01 -.283E+03   -.190E+02 -.758E+01 0.286E+03   0.837E+00 0.173E+01 -.290E+01   0.679E-05 0.843E-05 -.292E-05
   -.306E+01 -.606E+01 -.446E+02   0.579E+01 0.764E+01 0.473E+02   -.182E+01 -.214E+01 -.227E+01   -.313E-05 -.776E-05 0.479E-05
   -.287E+02 -.546E+01 -.111E+03   0.278E+02 0.489E+01 0.111E+03   0.164E+01 0.190E+01 -.905E-01   -.270E-05 0.140E-05 -.439E-05
   0.495E+01 -.241E+02 -.286E+03   -.508E+01 0.252E+02 0.287E+03   -.671E+00 -.464E+00 0.438E+00   0.323E-05 -.134E-04 -.152E-06
   0.184E+02 0.437E+02 0.200E+03   -.189E+02 -.422E+02 -.201E+03   0.613E+00 -.152E+01 0.781E+00   0.185E-06 0.190E-05 0.402E-06
   -.230E+02 0.181E+02 0.301E+03   0.228E+02 -.199E+02 -.304E+03   0.137E+01 0.136E+01 0.314E+01   0.489E-05 0.517E-06 0.373E-05
   -.111E+02 0.194E+02 -.249E+03   0.975E+01 -.191E+02 0.249E+03   0.580E+00 0.285E+00 -.322E+00   -.583E-06 -.129E-05 0.106E-05
   0.202E+02 0.116E+02 -.303E+03   -.189E+02 -.124E+02 0.302E+03   -.177E+01 0.215E+01 0.196E+01   0.144E-06 0.297E-05 -.164E-05
   -.124E+02 -.584E+00 -.288E+03   0.119E+02 0.163E+01 0.285E+03   0.614E-01 -.207E+01 0.167E+01   -.399E-05 -.307E-05 0.134E-05
   0.108E+02 -.416E+02 0.305E+03   -.125E+02 0.417E+02 -.303E+03   0.285E+01 -.177E+00 -.205E+01   -.253E-05 -.578E-06 0.269E-05
   0.821E+01 0.169E+02 -.119E+03   -.941E+01 -.155E+02 0.120E+03   0.165E+01 -.166E+01 -.139E+01   -.111E-05 -.174E-06 0.202E-05
   0.158E+02 0.790E+01 -.931E+02   -.171E+02 -.494E+01 0.912E+02   0.963E+00 -.412E+01 0.224E+01   -.244E-05 0.190E-06 0.252E-06
   -.203E+02 -.386E+01 -.854E+02   0.184E+02 0.414E+01 0.869E+02   0.295E+01 -.315E+00 -.116E+01   0.378E-05 0.639E-05 0.324E-05
   -.217E+02 0.985E+01 0.969E+02   0.222E+02 -.985E+01 -.958E+02   -.172E+00 0.562E+00 -.176E+01   -.207E-05 0.195E-05 -.279E-05
   0.108E+02 -.797E+00 -.269E+03   -.101E+02 -.735E+00 0.269E+03   -.121E+01 0.103E+01 0.167E+00   0.313E-05 -.519E-05 -.795E-06
   -.576E+01 -.137E+02 0.900E+01   0.376E+01 0.137E+02 -.950E+01   0.685E+00 0.796E+00 0.628E+00   -.170E-05 -.337E-05 0.430E-05
   0.160E+02 0.475E+01 -.106E+03   -.151E+02 -.322E+01 0.103E+03   -.129E+01 -.284E+01 0.335E+01   0.186E-05 0.274E-05 0.706E-05
   -.115E+02 -.636E+01 -.823E+02   0.103E+02 0.587E+01 0.838E+02   0.933E+00 0.353E+00 -.193E-01   -.259E-05 -.106E-05 -.893E-05
   0.160E+02 -.300E+02 0.954E+02   -.157E+02 0.281E+02 -.966E+02   -.515E+00 0.215E+01 0.887E+00   -.377E-05 -.163E-05 0.546E-05
   0.154E+02 -.147E+02 -.281E+03   -.132E+02 0.139E+02 0.279E+03   -.403E+01 0.211E+01 0.163E+01   0.320E-05 0.239E-05 0.213E-05
   0.464E+01 0.140E+02 0.227E+03   -.279E+01 -.157E+02 -.225E+03   -.173E+01 0.321E+01 -.200E+01   0.226E-05 0.410E-07 0.384E-05
   -.164E+02 -.716E+01 0.273E+02   0.135E+02 0.589E+01 -.266E+02   0.356E+01 0.223E+01 -.120E+01   0.466E-05 -.586E-06 0.943E-05
   0.204E+02 -.377E+01 -.266E+03   -.221E+02 0.500E+01 0.269E+03   0.168E+01 -.184E+01 -.341E+01   0.146E-05 -.742E-05 0.885E-06
   -.253E+02 -.789E+01 -.266E+03   0.228E+02 0.751E+01 0.264E+03   0.289E+01 0.789E+00 0.157E+01   -.281E-06 0.345E-05 0.228E-05
   0.359E+02 -.233E+02 0.188E+03   -.350E+02 0.231E+02 -.187E+03   -.105E+01 0.607E+00 -.926E+00   -.115E-05 0.745E-08 0.193E-05
   -.304E+02 0.573E+01 0.488E+02   0.301E+02 -.656E+01 -.500E+02   -.276E+00 0.499E+00 0.122E+01   0.184E-05 0.349E-05 0.161E-06
   0.114E+02 0.390E+01 -.260E+03   -.117E+02 -.534E+01 0.264E+03   0.565E+00 0.190E+01 -.320E+01   0.725E-05 0.172E-05 0.102E-05
   0.574E+02 -.180E+02 0.238E+03   -.565E+02 0.169E+02 -.236E+03   -.155E+01 0.196E+01 -.904E+00   -.469E-05 -.191E-05 0.348E-05
 -----------------------------------------------------------------------------------------------
   -.165E+02 -.265E+01 0.374E+02   -.355E-13 -.142E-13 0.227E-12   0.165E+02 0.265E+01 -.374E+02   -.471E-05 -.745E-05 0.122E-03


 POSITION                                       TOTAL-FORCE (eV/Angst)
 -----------------------------------------------------------------------------------
      1.84113      4.60848     14.67567        -0.278152     -0.135161     -0.570277
     11.14360      1.72670     12.45457        -0.106777      0.194056     -0.304863
     13.61560     10.92580     14.26508        -1.123360      0.452314      0.885900
     14.11630      4.82054     15.45554        -0.551119     -0.066169     -0.023458
      9.62287      3.44079     11.23645        -0.714193     -1.145746     -0.873116
     11.46270      6.23106     10.87111         0.417229      0.015638      0.519673
      9.03043     12.72240     14.80497         0.649000     -0.657464      0.587561
      8.05888     11.57780     16.60809         0.210731     -0.940089      0.108226
      1.61028      4.20180     13.15039        -0.644803      0.669979      1.273825
     13.05280     12.79390     10.78869        -0.250010     -0.334444      0.604905
     13.79950      6.05503     14.63969         0.058070     -0.356744     -0.326972
      8.77353      1.13379     12.88902        -0.511762     -0.483529      0.449607
     13.31810      2.28299     16.84455         0.095394     -0.602320     -1.597506
      0.44859      7.63825     15.82520         0.658502     -0.590231      0.077086
      1.63226     13.01180     16.56461        -0.253307     -1.142186     -0.016505
     10.17370     14.26690     11.61934         0.293590     -1.141226      0.008649
      8.57915     10.47990     11.06774        -0.217498     -1.661598      0.056451
     10.80370     11.24950     14.17478        -0.545816     -0.533867     -0.313008
     11.67350      8.07493     12.51598         1.200146     -0.832273     -0.585975
      0.12897      7.30245     10.97190        -0.145297      0.712868     -0.702159
     12.74960      4.22436     11.52252        -0.141521      1.114051     -0.937653
     10.70570      5.45917     15.88827         0.013184     -0.040518      0.701526
     11.71390      2.97525     13.05825         0.385662     -0.654222      0.382130
      7.72084      6.17654     11.35070         0.159154     -0.067586     -0.363437
      5.94991      7.67555     11.02211        -0.155779      0.144962      0.556428
      5.73847      8.86024     15.74878         1.026288     -0.176048     -0.188336
      0.91651      1.97470     13.26734        -0.911037      0.559283     -0.512235
      9.54592      1.97459     14.92717        -0.442983     -0.012999      0.487744
      4.09256     12.86130     10.38056         0.084915      0.299795     -0.172962
      1.34047     12.41140     12.57186         0.183656      0.139578      0.680197
      2.54860     13.41710     14.46568        -1.434050      1.279643     -0.372746
      6.66851      4.14887     10.87597        -0.505121     -1.149619      0.073830
      9.90898      9.44006     12.85244        -0.563420      1.741775     -0.757667
      5.44919      3.76892     12.87635         0.607408     -0.838142     -0.003475
      7.57614     13.69060     13.35916         0.003614      0.625269     -0.792551
     11.68000      7.31077     14.86739         0.397829      0.354153      0.009030
     11.18680     10.82950     16.45486         0.718639     -0.028433      0.273333
      5.71019     14.37540     14.52733         0.493033     -0.377161      0.128833
      2.77575      1.96929     10.00000         0.833809     -0.114675      0.288128
      6.39758      5.15749     14.56682         0.170943      0.367046     -0.614339
      4.51314      0.61252     10.94076        -0.468254     -0.032837     -0.276836
      0.20608     10.56580     13.47648         0.441258     -0.398950     -1.288594
      8.44938      2.32707     10.94422        -0.383163      1.526423      0.751573
     10.42620     14.39840     15.69201         0.355828      0.659528     -0.481620
      4.73900      6.90611     14.92722         0.055153     -0.416966      0.047410
      6.25746      9.94591     11.10659         0.667645      0.200252      0.409245
      0.64638     13.80770     10.85159        -0.259967     -1.304366      0.118114
     14.39930      5.56800     12.36834        -0.122910     -0.162368      1.117785
     13.65060      9.24720     11.74320         0.180139     -0.023829      0.761258
      3.48172      8.66176     13.71365         0.586172     -0.102663     -0.348360
      6.49766      0.58337     16.63179         0.072752      0.536649      0.173590
     10.03210      4.18410     14.11118         0.820078     -0.680269      0.325352
     12.55750     13.98490     14.79697         0.815528      1.481883      0.122104
      7.04015      4.45083     16.65174        -0.795945      0.411784      0.476441
      3.19346     11.25650     11.67338         0.300509      0.118919      0.469148
      6.64029      0.97755     10.08050         1.169073     -0.235674     -0.299904
      8.04703      9.13424     16.20824        -0.840630      0.645342     -0.245299
      2.35240     10.58780     16.77741        -0.466003      1.494236      0.527661
      8.04133      2.44267     16.70358        -0.515405     -1.121056     -0.948746
      3.47901      4.10127     10.24623         1.336695     -0.327370     -0.396516
      1.56703      9.42744     14.98692         0.555041     -0.369010     -0.900647
      9.17718      8.04636     14.46814        -0.153082     -1.385488      0.477660
      4.49661     12.27930     14.49966         1.218487     -0.064429      0.295355
     11.82770     12.87310     12.86316         0.269643      0.621140     -0.732182
     13.85880     13.09220     16.55121        -0.433340     -0.362956     -0.417371
      8.56926      5.85394     13.53461        -1.271885      0.827575      0.161336
      2.85175      1.47639     14.25710        -0.447059     -1.473628      1.143981
     13.33490      1.76596     14.34940        -0.175056     -0.121224      1.482460
      3.58504      4.95730     12.36983        -0.277161      0.313519     -0.330345
     13.06180      8.46233     16.48280        -1.963140      1.216174     -0.489008
      8.43182     12.62850     11.48087         0.084223      1.706814      0.131730
      4.75280      1.42087     13.12544         0.788795      1.070424     -0.513066
      3.55674      5.36411     16.40034         0.202868     -0.807450     -0.294611
      4.53890     10.73490     16.25881         0.401917      0.380425      0.012674
      3.81902      7.19048     11.83364        -0.009453      0.395868      0.430803
      5.05996     10.41870     13.11375        -0.779931     -0.276486      0.036342
      3.16305      2.87662     16.19048         0.359445      0.647085      0.132472
      0.81032      1.47805     10.99378        -0.483658      0.825022      0.234788
 -----------------------------------------------------------------------------------
    total drift:                               -0.001891      0.002708      0.005250


--------------------------------------------------------------------------------------------------------



  FREE ENERGIE OF THE ION-ELECTRON SYSTEM (eV)
  ---------------------------------------------------
  free  energy   TOTEN  =      -675.98975922 eV

  energy  without entropy=     -675.75666861  energy(sigma->0) =     -675.87321392



--------------------------------------------------------------------------------------------------------


    POTLOK:  cpu time      3.7001: real time      3.7030


--------------------------------------------------------------------------------------------------------


     LOOP+:  cpu time  13615.5835: real time  13624.8733
    4ORBIT:  cpu time      0.0000: real time      0.0000



 total charge

# of ion       s       p       d       tot
------------------------------------------
    1        0.522   0.014   0.000   0.536
    2        0.563   0.019   0.000   0.582
    3        0.598   0.020   0.000   0.618
    4        0.555   0.015   0.000   0.570
    5        0.487   0.011   0.000   0.499
    6        0.856   0.682   0.000   1.538
    7        0.770   0.930   0.000   1.700
    8        0.864   0.699   0.000   1.563
    9        0.765   0.947   0.000   1.712
   10        0.859   0.706   0.000   1.565
   11        0.778   0.883   0.000   1.660
   12        0.781   0.923   0.000   1.703
   13        0.932   0.552   0.000   1.483
   14        0.793   0.927   0.000   1.720
   15        0.801   0.831   0.000   1.631
   16        0.809   0.802   0.000   1.611
   17        0.793   0.871   0.000   1.665
   18        0.769   0.915   0.000   1.683
   19        0.778   0.871   0.000   1.648
   20        0.827   0.792   0.000   1.619
   21        0.806   0.861   0.000   1.668
   22        0.871   0.745   0.000   1.615
   23        0.757   0.965   0.000   1.722
   24        0.793   0.835   0.000   1.627
   25        0.775   0.878   0.000   1.653
   26        0.783   0.851   0.000   1.635
   27        0.760   0.948   0.000   1.708
   28        0.769   0.884   0.000   1.653
   29        0.840   0.762   0.000   1.602
   30        0.769   0.899   0.000   1.668
   31        0.783   0.872   0.000   1.656
   32        0.789   0.831   0.000   1.619
   33        0.767   0.927   0.000   1.694
   34        0.767   0.906   0.000   1.673
   35        0.775   0.934   0.000   1.709
   36        0.760   0.887   0.000   1.647
   37        0.883   0.637   0.000   1.519
   38        0.769   0.921   0.000   1.690
   39        0.786   0.892   0.000   1.678
   40        0.775   0.859   0.000   1.634
   41        0.769   0.882   0.000   1.651
   42        0.760   0.960   0.000   1.721
   43        0.750   0.863   0.000   1.613
   44        0.813   0.822   0.000   1.636
   45        0.769   0.870   0.000   1.639
   46        0.792   0.839   0.000   1.630
   47        0.788   0.887   0.000   1.675
   48        0.761   0.955   0.000   1.716
   49        0.795   0.823   0.000   1.618
   50        0.785   0.824   0.000   1.609
   51        0.859   0.708   0.000   1.567
   52        0.754   0.950   0.000   1.704
   53        0.764   0.892   0.000   1.656
   54        0.841   0.782   0.000   1.623
   55        0.826   0.820   0.000   1.646
   56        0.869   0.696   0.000   1.564
   57        0.800   0.817   0.000   1.617
   58        0.801   0.857   0.000   1.658
   59        0.801   0.854   0.000   1.655
   60        0.836   0.783   0.000   1.619
   61        0.760   0.930   0.000   1.690
   62        0.781   0.853   0.000   1.634
   63        0.766   0.907   0.000   1.673
   64        0.781   0.862   0.000   1.643
   65        0.825   0.761   0.000   1.586
   66        0.767   0.873   0.000   1.640
   67        0.771   0.941   0.000   1.712
   68        0.756   0.879   0.000   1.635
   69        0.766   0.984   0.000   1.749
   70        0.830   0.781   0.000   1.611
   71        0.792   0.871   0.000   1.663
   72        0.766   0.938   0.000   1.704
   73        0.876   0.657   0.000   1.533
   74        0.784   0.891   0.000   1.676
   75        0.795   0.839   0.000   1.633
   76        0.789   0.828   0.000   1.617
   77        0.866   0.680   0.000   1.546
   78        0.786   0.905   0.000   1.691
--------------------------------------------------
tot         60.867  61.967   0.000 122.834


 total amount of memory used by VASP MPI-rank0   401872. kBytes
=======================================================================

   base                                    :      30000. kBytes
   nonl-proj                               :      76066. kBytes
   fftplans                                :     108827. kBytes
   grid                                    :      83991. kBytes
   one-center                              :         15. kBytes
   wavefun                                 :     102973. kBytes

  
  
 General timing and accounting informations for this job:
 ========================================================
  
                  Total CPU time used (sec):    13764.864
                            User time (sec):    12120.981
                          System time (sec):     1643.884
                         Elapsed time (sec):    13774.234
  
                   Maximum memory used (kb):      687932.
                   Average memory used (kb):          N/A
  
                          Minor page faults:     21988022
                          Major page faults:         1241
                 Voluntary context switches:         4068
