144
Lattice="15.288953481291053 -3.4774151234270986e-18 -7.049105141252352e-18 7.644476740650741 13.240622112042256 -1.2111276623730238e-17 -8.926365179444196e-19 3.1778478989719476e-17 31.612785305536484" Properties=species:S:1:pos:R:3:forces:R:3 energy=-13933.51826537727 free_energy=-13933.51826537727 stress="-0.00026691665637070206 -0.000567207107357927 2.845801409625858e-06 -0.000567207107357927 0.0002827538955077441 2.2598020562695384e-06 2.845801409625858e-06 2.2598020562695384e-06 -3.5412459573947477e-06" pbc="T T T"
H       12.82594857      10.45866033      22.45422759      -0.00011914      -0.00000557      -0.00003793
H       -0.00808234       7.05222909      22.55978699      -0.00029312       0.00004791       0.00031341
H        1.62128480      10.15665621      22.62535289       0.00008215      -0.00018947       0.00040162
H       11.89795834       6.49822247      22.82624846      -0.00001397       0.00021651       0.00023482
H       -0.32879098      13.24133077      22.63565365      -0.00009357      -0.00004580      -0.00035237
H        9.48034192       4.12719133      22.79350937       0.00017348      -0.00008931      -0.00007781
H       10.98883859       0.22191634      22.87455614      -0.00032077       0.00001717       0.00015307
H       13.77110488       3.30283276      22.72372561      -0.00003093       0.00028740      -0.00034776
H        3.54768305       6.58365537      22.72440493      -0.00030424      -0.00022925       0.00027618
H        5.12985512       8.72819155      22.63934017       0.00041386      -0.00014314       0.00026450
H        7.99619911       6.28714250      22.68490714      -0.00021669       0.00002023       0.00002282
H        8.87867652      10.30288776      22.74604587       0.00000853      -0.00015157       0.00004804
H        1.91087693       3.47254754      22.76547649      -0.00019110      -0.00009084      -0.00015836
H        3.06093617       0.28997838      22.34394830       0.00031056       0.00013158      -0.00016058
H        5.63045743       3.06452355      22.73010024      -0.00031772       0.00007424      -0.00013682
H        7.34026230      12.52280268      22.67934527      -0.00010174      -0.00051743       0.00020202
Si      -1.10142124       0.92111387      10.08958227      -0.00023977      -0.00016569      -0.00018660
Si      -0.14788401       0.04832656      12.16678664       0.00017438      -0.00003920       0.00033255
Si      13.38027622       1.09210893      13.34062625       0.00015224      -0.00010401      -0.00010493
Si      13.37552565       1.10594065      15.65973820       0.00022971      -0.00028844      -0.00010976
Si       7.53278065      11.01409060      12.89500097       0.00002678       0.00039639       0.00000842
Si       7.59031688      11.06334298      15.34033157      -0.00044060       0.00007543      -0.00007387
Si       1.81544624       1.08155086      13.04651568       0.00008579      -0.00014998       0.00009334
Si       1.85641513       1.07907909      15.43553060       0.00005352       0.00014615      -0.00044592
Si      19.10767759      11.00954799      13.09753688      -0.00020628      -0.00009394      -0.00020812
Si      19.10613047      11.04151592      15.46386755       0.00021014       0.00016506       0.00052716
Si       0.88743279       4.09432192      10.22518092       0.00009001       0.00010630      -0.00008454
Si      17.13260723       3.31440221      12.28185931      -0.00021321      -0.00009480      -0.00003930
Si       2.40499198      -0.50411798      10.35691627      -0.00012371       0.00018115       0.00005819
Si       3.77034188      -0.04659160      12.28989863       0.00003229      -0.00008641      -0.00021806
Si       5.33878781       4.70505974       9.92974347       0.00023928      -0.00020832      -0.00005615
Si       5.68889571       3.55202336      12.06985350       0.00011080       0.00002637      -0.00020005
Si      15.30841353       4.42482510      13.21723945       0.00007512      -0.00001700      -0.00001153
Si      15.26985170       4.40356957      15.53290306      -0.00014384      -0.00015624       0.00009360
Si       4.99829103       8.71256869      10.12942864       0.00012150      -0.00008829      -0.00049532
Si       5.60758083       9.75477530      12.24787013       0.00034771       0.00004815       0.00037892
Si       6.50173803       6.73344542      10.16735721      -0.00001912       0.00001028       0.00004398
Si       7.57382651       6.65524744      12.29506002       0.00006378      -0.00012653       0.00046724
Si      10.17712024      10.44008501       9.80402813      -0.00013818       0.00026292      -0.00046704
Si       9.58296792      10.03639348      12.12370385      -0.00016494       0.00010736      -0.00034151
Si       3.82030644       6.54452552      10.34666469       0.00051315      -0.00003982       0.00000953
Si       3.78838544       6.62867135      12.68329028      -0.00011660      -0.00016777      -0.00004532
Si      17.18987750       7.82213818      13.26585464       0.00015809       0.00035965      -0.00048684
Si      17.17492303       7.76281440      15.56925412       0.00023324      -0.00013315       0.00018670
Si       3.76868328       4.36914387      13.15071569       0.00021577      -0.00012959       0.00006180
Si       3.83085026       4.38338482      15.49021565       0.00016578      -0.00014756      -0.00002780
Si       5.74829892       7.68599171      13.34614774       0.00000896      -0.00014315      -0.00000743
Si       5.73997579       7.70436340      15.65804940      -0.00014253       0.00001669      -0.00049777
Si      11.50437091      11.00845262      13.18158538      -0.00020459       0.00020671      -0.00015626
Si      11.45296924      11.03371394      15.53851330       0.00009627       0.00016994       0.00012288
Si      10.33573348       2.72606204      10.29867098       0.00032987       0.00029618       0.00018347
Si       9.58485538       3.28595937      12.46233044       0.00011598       0.00013974       0.00005680
Si      11.82147866       0.82915310      10.36569981       0.00013141       0.00038583       0.00005242
Si      11.44830789       0.03973608      12.54421842       0.00012656       0.00035033       0.00015762
Si      13.95919283       3.28221159      10.19846222      -0.00030846       0.00053399       0.00006569
Si      13.37103805       3.29644660      12.54032018       0.00011463      -0.00018539       0.00000198
Si       9.46670813       0.37803899      10.40559524      -0.00010981       0.00031173      -0.00016079
Si       7.79411678       0.07280453      12.19508280       0.00007683       0.00007265      -0.00005564
Si       5.75461997       1.23557021      12.69891560      -0.00030043       0.00014750      -0.00016337
Si       5.76587713       1.14317017      15.19078374      -0.00024082      -0.00025122       0.00015531
Si      15.28731252      11.04468670      12.88008197      -0.00018049      -0.00001321       0.00045136
Si      15.27895725      11.03335226      15.29154176      -0.00000611       0.00022457       0.00016525
Si       9.54527697       1.13652515      13.34149387       0.00026565       0.00001061       0.00034749
Si       9.54230928       1.16696735      15.65655802       0.00008813       0.00022225      -0.00019380
Si      11.94709988       4.54014242      10.45601861       0.00005878      -0.00019465      -0.00022765
Si      11.53999436       6.47311353      12.10045806       0.00009886       0.00017408      -0.00009552
Si       9.59996208       7.74104335      12.83410980      -0.00011785      -0.00008948       0.00001581
Si       9.55869476       7.77688069      15.28572343      -0.00023240      -0.00037875      -0.00030717
Si      11.45236455       4.43068915      13.24629960       0.00001766      -0.00002355      -0.00026909
Si      11.44080786       4.43888700      15.57760188      -0.00018291      -0.00017652       0.00033906
Si      13.43196382       7.70046387      12.86609566      -0.00002239      -0.00030683       0.00005260
Si      13.38940620       7.76242840      15.29393635      -0.00017453      -0.00006158       0.00009634
Si       7.61786108       4.44345592      13.07109271      -0.00005897       0.00039683      -0.00006836
Si       7.61360938       4.44421538      15.45501050      -0.00002660      -0.00011266       0.00006128
Si      15.65054492       8.48570553       9.77501754       0.00011173       0.00008011       0.00006428
Si      13.34700232       9.94099468      12.19600851       0.00003885       0.00016074      -0.00012732
Si      16.67819690       6.41754462      10.13906830      -0.00008966       0.00016322      -0.00007675
Si      15.46310247       6.60408731      12.28863055      -0.00002955       0.00010252      -0.00015365
Si      17.90005359       9.09359293      10.05538222       0.00032961      -0.00002871      -0.00013118
Si      17.24697903       9.92070368      12.20405673      -0.00000802      -0.00002666      -0.00001394
Si      15.24580855       8.87495643      16.24513533      -0.00008052       0.00016175      -0.00023554
Si      15.25706186       8.91700834      18.62304952      -0.00004084      -0.00006924       0.00003840
Si      13.34995354      10.00909309      19.42882163      -0.00004958       0.00010548       0.00016378
Si      13.85201755       9.73866319      21.65430531       0.00046462       0.00007029      -0.00056558
Si      15.28189549       6.66849526      19.32097134      -0.00012553      -0.00021466      -0.00010713
Si      15.69057573       6.00671491      21.55557914       0.00020237      -0.00008316       0.00023792
Si      17.18622135      10.03009703      19.37495024       0.00021499      -0.00023890       0.00004869
Si      17.89422067      10.54739692      21.56439631      -0.00013125       0.00025719      -0.00016892
Si      11.54522563       6.57840592      19.41295786       0.00021409      -0.00012386       0.00012942
Si      11.94386095       5.67576579      21.55715022      -0.00026202       0.00004456       0.00004671
Si      17.15643579      12.13660928      16.16642361      -0.00015934      -0.00031362      -0.00012895
Si      17.15849394      12.20389438      18.48866781      -0.00017622       0.00020386       0.00007555
Si      19.09950777       8.84600671      16.30753153       0.00047210      -0.00022402      -0.00013003
Si      19.03664048       8.81553870      18.63711103       0.00013428      -0.00033581       0.00018798
Si      21.00298451      12.10983746      16.34854975      -0.00004255      -0.00005064       0.00003943
Si      20.93343303      12.09193324      18.73877699       0.00020930       0.00010526      -0.00016335
Si      15.26240191      13.27647925      19.39714358       0.00017715      -0.00028438      -0.00000341
Si      15.87359504      13.75429244      21.58130677      -0.00025235       0.00020954      -0.00002239
Si      13.37563614       5.58949049      16.16067329       0.00004091       0.00010852      -0.00049345
Si      13.42241487       5.54706842      18.46989776       0.00019836      -0.00017283       0.00065934
Si      15.31072482       2.20982275      16.35414023       0.00004452      -0.00017527      -0.00011176
Si      15.32898868       2.14915004      18.69887630      -0.00027521      -0.00006978      -0.00015085
Si      17.19717294       5.51224668      16.18380005       0.00012978      -0.00028891      -0.00025479
Si      17.15642583       5.50257245      18.48673404      -0.00002806       0.00005408      -0.00020996
Si      11.48037169       2.25121574      16.42650629       0.00003389       0.00015370       0.00003057
Si      11.51791651       2.32494267      18.78980765       0.00028005       0.00022319      -0.00002060
Si       9.58014854       3.44199920      19.53804867       0.00025059      -0.00005703      -0.00024130
Si      10.43605700       3.89975305      21.67889431      -0.00028704       0.00015174       0.00029765
Si      11.37316326       0.07124191      19.45857876       0.00017548      -0.00035111       0.00048406
Si      10.38976571      -0.29421368      21.56365252      -0.00012986       0.00003834      -0.00039071
Si      13.51897257       3.40643184      19.47020356      -0.00015895      -0.00012601       0.00007548
Si      13.93144763       4.33953924      21.60867241       0.00017023      -0.00033246       0.00022226
Si      18.99208884       6.60215502      19.43715403       0.00018132       0.00042645       0.00033583
Si       2.83580384       6.00086075      21.51263827      -0.00040141      -0.00021386       0.00017213
Si       9.49380139      12.11634991      16.29380574       0.00023341      -0.00023646      -0.00008599
Si       9.51477705      12.07488327      18.72343794      -0.00003004       0.00032581       0.00007565
Si      11.47562739       8.79388838      16.24527700       0.00038971       0.00005150      -0.00018409
Si      11.48240158       8.79521084      18.65896422       0.00004111       0.00016912       0.00004850
Si      13.40701275      12.19749396      16.13721161      -0.00018347      -0.00005729      -0.00005855
Si      13.36006760      12.20202452      18.53349196      -0.00015151       0.00002061      -0.00017002
Si       7.67026541       8.88339951      16.22914269      -0.00007435      -0.00027729      -0.00008322
Si       7.60456551       8.84979366      18.60681697      -0.00000821      -0.00012220       0.00009290
Si      20.93450041       9.86106641      19.52186042      -0.00022402       0.00009606       0.00023358
Si      20.13584395       9.87330253      21.73400330       0.00010598       0.00010863      -0.00022776
Si       7.66031461       6.64274120      19.42936802       0.00008559      -0.00024293      -0.00008619
Si       7.89008960       7.35630476      21.63835799       0.00007507      -0.00009126      -0.00018907
Si       9.53545386       9.84244327      19.52024828      -0.00000961      -0.00018720       0.00002429
Si       9.30993715       9.19663597      21.79425444      -0.00021654       0.00037982       0.00041656
Si       3.83302348       2.13800992      16.11023156      -0.00001732      -0.00006433       0.00016807
Si       3.83738721       2.18617205      18.44657844       0.00018080      -0.00000628      -0.00050481
Si       1.96172016       3.29933390      19.34566295      -0.00003807      -0.00010447       0.00017900
Si       2.75200889       3.64707610      21.53437524      -0.00005509      -0.00015922       0.00028608
Si       3.80243387       0.02656867      19.36674782      -0.00010069       0.00009156       0.00022222
Si       4.34141497       0.27404679      21.62748415      -0.00049373      -0.00005174       0.00034342
Si       5.67824018       3.23796016      19.46807549       0.00030351       0.00034241      -0.00004184
Si       4.85468662       2.56750731      21.53843695       0.00001548       0.00030443       0.00064661
Si      22.87911324      13.18738782      19.54389037      -0.00014386       0.00026280       0.00007860
Si       7.19088908      13.73113967      21.76214430      -0.00020724       0.00030563      -0.00033666
Si       5.71789858       5.47887941      16.39937499      -0.00033354       0.00046948       0.00011381
Si       5.69296180       5.48654740      18.79951969       0.00003868      -0.00034195      -0.00014382
Si       7.57947388       2.25298834      16.29440766       0.00001956      -0.00019123       0.00011207
Si       7.65872564       2.26695199      18.68829855      -0.00007426      -0.00045000       0.00025314
Si       9.51789335       5.60010008      16.20608030      -0.00019928      -0.00006456       0.00001030
Si       9.57374985       5.58940476      18.56151818       0.00002651      -0.00002285      -0.00002686
