144
Lattice="15.129215179542456 1.3017215920039159e-17 1.55195290176892e-18 7.564607589775634 13.102284684768838 4.858717989322191e-18 -4.856879855927274e-18 6.059170895873268e-18 31.282496339420476" Properties=species:S:1:pos:R:3:forces:R:3:energies:R:1 energy=-774.8284487720764 free_energy=-774.8284487720764 stress="-0.00040280225655888737 -6.365861299667774e-05 -1.2042010687504404e-06 -6.365861299667774e-05 0.0003970227659048407 -1.1421138939888137e-06 -1.2042010687504404e-06 -1.1421138939888137e-06 8.127426524970906e-07" pbc="T T T"
H       13.13163050      10.41869213      22.60087968      -0.00025519      -0.00010010       0.00020845      -3.10664343
H        0.18138740       6.62298060      22.53281918       0.00009837       0.00024354       0.00012582      -3.06202241
H        1.47165718      10.01818533      22.55169744       0.00019651      -0.00068041       0.00048511      -3.13733531
H       11.74654320       6.98672920      22.43427852       0.00046340       0.00022340      -0.00020324      -3.04187014
H       -0.14535995      13.11276969      22.41782816      -0.00006567       0.00013378       0.00037627      -2.97786858
H        9.42879629       3.28727577      22.54253671      -0.00006321       0.00011448      -0.00007474      -2.99219574
H       11.20435715       0.09565572      22.62537953      -0.00014599       0.00034568      -0.00019016      -3.13516657
H       13.23595389       3.43100056      22.69068057      -0.00009787       0.00025551      -0.00016795      -3.16745247
H        3.37373613       7.33959279      22.07854097       0.00006551       0.00010607       0.00019067      -2.68850366
H        5.55885767       9.42226160      22.53234200      -0.00036582       0.00008643      -0.00049889      -2.89350074
H        7.05535936       6.47158111      22.71021659       0.00070822       0.00032427       0.00018758      -2.89113680
H        9.34394444       9.34031498      22.49071867       0.00031095       0.00020940       0.00024271      -2.93312675
H        2.47972187       3.58123504      22.58816971       0.00016905      -0.00052270       0.00044910      -3.07622655
H        3.89321354       0.35139996      22.39692527       0.00019608       0.00036549       0.00050475      -3.06459578
H        5.60809188       3.34370443      22.45813836      -0.00025763      -0.00003545      -0.00024805      -2.92256591
H        8.00635102      12.83444800      22.68413213      -0.00035304       0.00007944       0.00038654      -3.11080133
Si       0.34746202       0.13502909      10.08201788       0.00002114      -0.00002277       0.00009851      -4.78996534
Si      -0.04593085      -0.00363970      12.37320167      -0.00007122      -0.00000365       0.00011053      -5.85886118
Si      13.18440973       1.13795889      13.04937712      -0.00022601       0.00010816      -0.00006002      -5.77199222
Si      13.24002143       1.09732662      15.42983031       0.00019587      -0.00016352      -0.00015139      -5.83109541
Si       7.48929172      10.84127626      12.89838613      -0.00027135       0.00008098      -0.00027137      -5.78091299
Si       7.50520857      10.87810357      15.25481109       0.00009659      -0.00003727      -0.00017264      -5.83086243
Si       1.89166613       1.04762764      13.15813389      -0.00040071       0.00019926       0.00019145      -5.85229688
Si       1.89293005       1.09278200      15.47034421      -0.00019312      -0.00024530      -0.00014953      -5.76072405
Si      18.97290561      10.86582293      12.80541166       0.00034791       0.00005652      -0.00054785      -5.78361314
Si      18.97537141      10.91062865      15.20027898       0.00006698       0.00000118      -0.00023562      -5.85079987
Si       1.80149039       1.97293901       9.71433054       0.00056561       0.00021365       0.00024972      -4.40299015
Si      16.99089767       3.04360117      11.96891532       0.00055253      -0.00075317      -0.00027458      -5.70886845
Si       2.94394845      -0.03409061      10.10637381       0.00045655      -0.00012348      -0.00000784      -4.77247432
Si       3.79270312      -0.00090926      12.27948345      -0.00005102       0.00044066      -0.00000153      -5.76834584
Si       5.42568316       4.73816459       9.69933248      -0.00056659       0.00022637       0.00030206      -4.47712802
Si       5.67907607       3.47695192      11.85929150      -0.00062898      -0.00021954       0.00014960      -5.52809806
Si      15.16025148       4.27630217      12.82740775       0.00033081      -0.00014772       0.00018979      -5.78200346
Si      15.13562669       4.28169337      15.21361145      -0.00002017       0.00031603       0.00022465      -5.85329384
Si       5.67234818       8.59144494       9.68427744      -0.00047686      -0.00050964       0.00038671      -4.42050597
Si       5.67442500       9.64383081      11.94705982      -0.00028372       0.00021112       0.00009087      -5.67978496
Si       6.83629509       6.57280763       9.99067866       0.00005264      -0.00003601       0.00032988      -4.73685482
Si       7.59416633       6.56961212      12.19846045       0.00022635       0.00031362      -0.00039287      -5.79185312
Si       9.13523328      11.22391464       9.78483609       0.00019500       0.00009475       0.00019539      -4.48338689
Si       9.45744899      10.03058731      11.95431384      -0.00032293       0.00006473      -0.00006974      -5.59327189
Si       4.23317766       6.74189841      10.03490440      -0.00008874      -0.00032125      -0.00002224      -4.76976413
Si       3.70853882       6.53294326      12.29897074       0.00016832       0.00020418      -0.00019080      -5.84085388
Si      16.94152816       7.71247158      12.94774056      -0.00037878       0.00021962       0.00057581      -5.76951769
Si      16.95070760       7.70049175      15.30156925      -0.00012693       0.00008477       0.00013339      -5.85662994
Si       3.71080962       4.26095891      12.81365630      -0.00021687      -0.00010734      -0.00043909      -5.78535538
Si       3.73319191       4.29212241      15.16694095      -0.00002299      -0.00000516      -0.00013869      -5.84359551
Si       5.66030399       7.59374857      13.02794579       0.00022163      -0.00032948       0.00021859      -5.83640289
Si       5.64932208       7.62874188      15.32030248      -0.00007876      -0.00016680       0.00029780      -5.76728055
Si      11.41549397      10.87194914      12.90855319       0.00026298       0.00000223      -0.00027713      -5.77481277
Si      11.40011315      10.86331227      15.26626872       0.00002919      -0.00015340       0.00012284      -5.86951937
Si      10.54816049       2.68013130      10.06208261      -0.00013951      -0.00030875      -0.00005639      -4.82572991
Si       9.57755698       3.19972944      12.16030559      -0.00009623      -0.00007671      -0.00035136      -5.67752994
Si      10.70718739       0.40597800       9.91880845      -0.00038763       0.00000043       0.00017549      -4.60107360
Si      11.34860928       0.00515649      12.13604712       0.00027110      -0.00009663      -0.00019453      -5.79679646
Si      12.63238211       3.61405672       9.91501761       0.00017835      -0.00005914      -0.00013465      -4.62702642
Si      13.15581298       3.30599672      12.16810960       0.00000409      -0.00000610       0.00003520      -5.80492078
Si       8.67307456      -0.62229982      10.11739983       0.00033245       0.00020071      -0.00036743      -4.88589208
Si       7.65324977      -0.03463608      12.18913184      -0.00020686       0.00037145       0.00001048      -5.70814918
Si       5.71919962       1.23146137      12.67839929       0.00004180      -0.00011990      -0.00017693      -5.69672044
Si       5.66683441       1.13230534      15.10097514       0.00029554      -0.00008284      -0.00007647      -5.86886437
Si      15.12256360      10.92001522      13.13417657       0.00008785      -0.00026239       0.00059189      -5.87629711
Si      15.11530037      10.88782536      15.44337457      -0.00024409      -0.00037174      -0.00027912      -5.75570343
Si       9.50714709       1.06410365      13.10754298       0.00006508      -0.00022265      -0.00000676      -5.89169761
Si       9.50282040       1.09398576      15.41455961      -0.00000308      -0.00039287       0.00000844      -5.77833321
Si      12.45419096       5.88877352      10.12787185      -0.00000605       0.00049862       0.00007038      -4.88212576
Si      11.44604584       6.50558957      12.19405193      -0.00001741      -0.00001202      -0.00026593      -5.69974837
Si       9.52327779       7.76736677      12.70260584       0.00001793      -0.00004975      -0.00017563      -5.70716256
Si       9.49857709       7.65294646      15.12414311      -0.00002290      -0.00013567      -0.00012094      -5.86889666
Si      11.32525225       4.37167790      13.15862204       0.00006972       0.00031575      -0.00011981      -5.88083754
Si      11.31573176       4.35085665      15.47257226      -0.00036180       0.00035558      -0.00006315      -5.77526763
Si      13.27101470       7.61696586      13.15629637      -0.00008515       0.00001015       0.00040736      -5.89746821
Si      13.24714361       7.65794779      15.47594079       0.00015735       0.00011546      -0.00005046      -5.76484509
Si       7.63381814       4.34101760      12.80503603      -0.00044309      -0.00013144      -0.00020806      -5.76239409
Si       7.61416571       4.34771229      15.15248845       0.00013471      -0.00009389       0.00018579      -5.86075338
Si      14.26811221       9.24284148      10.07331694      -0.00025019       0.00004043       0.00002794      -4.84050295
Si      13.34664527       9.74463585      12.19375390       0.00006198      -0.00005603      -0.00015824      -5.66402026
Si      14.45035011       6.96890322       9.94025916      -0.00002916      -0.00021942       0.00003086      -4.59656856
Si      15.09139444       6.53619659      12.15099721       0.00004274       0.00053071      -0.00037682      -5.81782283
Si      16.34052783      10.21005195       9.88599053       0.00034565       0.00011439       0.00004902      -4.60314043
Si      16.95743106       9.89222808      12.11466559      -0.00015807       0.00011392      -0.00005416      -5.80385758
Si      15.11724055       8.73696713      16.34797453      -0.00013813       0.00021037      -0.00004805      -5.89513377
Si      15.09484117       8.75725294      18.75221069      -0.00017577       0.00007591      -0.00000490      -5.92106371
Si      13.12981216       9.93351377      19.36958344       0.00001614       0.00006623      -0.00051738      -5.87423775
Si      12.19548031      10.47790817      21.45579909      -0.00015857       0.00026732       0.00009452      -5.20820972
Si      15.14615123       6.47261925      19.27391403      -0.00052362      -0.00000299      -0.00007464      -6.06073906
Si      15.32482327       5.60349034      21.46332836       0.00027292      -0.00008162      -0.00044713      -5.86422554
Si      17.05181909       9.89500375      19.33984791      -0.00013835       0.00000884       0.00017185      -5.98438875
Si      17.62534811      10.36721625      21.54291878       0.00022945       0.00041010      -0.00066305      -5.12896869
Si      11.37200355       6.48200200      19.25108467      -0.00032821      -0.00018337      -0.00008131      -5.95269131
Si      11.56518922       5.86795516      21.48353084      -0.00009990       0.00010717      -0.00005192      -5.03768190
Si      17.07179989      11.96784745      16.02839181      -0.00034946      -0.00013776       0.00067006      -5.76937714
Si      17.07769629      12.00670159      18.32926461       0.00000318       0.00034148       0.00006155      -6.00588388
Si      18.88725629       8.75447307      16.05998965      -0.00013960      -0.00018428       0.00024576      -5.84450049
Si      18.87349334       8.77385326      18.39659194      -0.00000363      -0.00019409      -0.00037205      -5.93791010
Si      20.80578414      11.99232975      16.20493984       0.00023206       0.00017414       0.00041058      -5.85577510
Si      20.86136694      11.97738752      18.62489312       0.00025590       0.00007764      -0.00014567      -5.89156103
Si      15.20562140      13.15288643      19.14645326      -0.00002956       0.00045955      -0.00023436      -6.01977745
Si      15.87266188      13.63649088      21.35798310      -0.00059027      -0.00027245      -0.00043018      -5.87949365
Si      13.28024731       5.42012917      16.05915741      -0.00003137       0.00010510       0.00066795      -5.77084354
Si      13.27061156       5.41104990      18.36366149      -0.00020358      -0.00020402      -0.00038051      -6.00076962
Si      15.13561443       2.18097862      16.29154603      -0.00011426      -0.00004829      -0.00029392      -5.86534928
Si      15.20701905       2.18446119      18.71097541      -0.00009773       0.00017770       0.00023114      -5.91240148
Si      16.99572077       5.45990011      15.92504791       0.00004398       0.00019353      -0.00000083      -5.76844360
Si      16.98179338       5.46053208      18.23231191       0.00043670      -0.00005660      -0.00058423      -5.94965617
Si      11.36952778       2.17517509      16.30775301       0.00004163       0.00013431       0.00003981      -5.88483589
Si      11.37313665       2.18207961      18.67499795       0.00005300      -0.00013076      -0.00001432      -5.88372239
Si       9.39817745       3.28211772      19.25206707      -0.00018065      -0.00004935      -0.00023748      -6.04482214
Si       8.57897964       2.87458368      21.40905101       0.00056243      -0.00000401       0.00013269      -5.75504409
Si      11.33361178      -0.05157940      19.35231534      -0.00000082       0.00003583      -0.00027441      -6.01884870
Si      10.43883966      -0.45083531      21.48716105       0.00026426      -0.00020718       0.00002495      -5.67478673
Si      13.28285186       3.32497960      19.41194301       0.00005241       0.00006334       0.00022904      -5.99628047
Si      13.32873519       4.34248265      21.53407317       0.00045800      -0.00056248      -0.00001031      -5.61000529
Si      18.88661359       6.53764150      18.98784298       0.00005037       0.00039479       0.00003760      -6.06628880
Si       3.92770869       6.20612746      21.28978432       0.00038473       0.00020934       0.00005669      -5.91679180
Si       9.45633562      11.93078261      15.98228257      -0.00009949      -0.00015221       0.00014136      -5.78483780
Si       9.47555140      11.92315528      18.29682490      -0.00024838      -0.00018001      -0.00000196      -5.96808314
Si      11.30520683       8.71203048      16.16589195       0.00020034      -0.00045460       0.00025784      -5.82257374
Si      11.31837235       8.70836398      18.53156856       0.00053539       0.00004019      -0.00022567      -5.89459636
Si      13.23654388      12.08095983      16.05663984       0.00025192       0.00020179       0.00001381      -5.82235091
Si      13.25772620      12.06652429      18.41109965       0.00043655      -0.00028153       0.00024574      -5.95916599
Si       7.59438031       8.68165944      15.97655999       0.00002951      -0.00031314      -0.00013910      -5.76271954
Si       7.53826028       8.67621002      18.28365059       0.00006433       0.00001437      -0.00015091      -5.92446358
Si      20.81790757       9.71770843      19.24298173      -0.00007615       0.00027202       0.00004742      -5.96879198
Si      21.48427801       8.97422070      21.36682571      -0.00033725      -0.00002942       0.00018306      -5.82271069
Si       7.41409581       6.53563170      19.21507012      -0.00002645       0.00033768       0.00018369      -6.00830112
Si       6.35748622       6.35226573      21.39481751      -0.00027989       0.00025334      -0.00081260      -5.48674287
Si       9.36509553       9.75768881      19.21966004       0.00002611      -0.00019777       0.00068294      -6.05911557
Si       8.51279388       9.91490105      21.40968233      -0.00016810       0.00005395      -0.00006417      -5.77617723
Si       3.83047305       2.17854109      16.13953054       0.00013916      -0.00008616       0.00000361      -5.85840881
Si       3.83342726       2.22234569      18.51884380      -0.00016212       0.00020094       0.00001124      -5.85742376
Si       1.99964682       3.40688769      19.31712453      -0.00012547      -0.00061355       0.00045119      -5.98402942
Si       2.26761588       4.46094699      21.42466346      -0.00058853       0.00048441      -0.00011265      -5.70813550
Si       3.75581193      -0.01345971      19.16117997      -0.00004384      -0.00042835       0.00060306      -6.04198954
Si       3.41178905      -0.60981764      21.38391695       0.00037324      -0.00058335      -0.00039119      -5.72542021
Si       5.76327361       3.32484350      19.18633026       0.00024915      -0.00020086       0.00003061      -6.00456996
Si       6.45783196       3.87177110      21.36403076      -0.00009668      -0.00023360       0.00029913      -5.83584289
Si      22.84864235      13.00764995      19.38604716       0.00000507      -0.00027167       0.00042320      -5.94995600
Si       8.61866077      12.26006720      21.47243682      -0.00001321       0.00032026      -0.00081528      -5.67267605
Si       5.66250853       5.38382163      15.87320948       0.00000374      -0.00010475       0.00020657      -5.79614250
Si       5.64811136       5.42338798      18.17943187       0.00018878       0.00014408      -0.00038188      -5.95625952
Si       7.54483537       2.18236282      15.96412519      -0.00001366      -0.00013324       0.00058221      -5.74436867
Si       7.58093653       2.20480949      18.26302679       0.00016580       0.00008294       0.00020729      -5.97854182
Si       9.40874704       5.51030790      16.10283901      -0.00016064      -0.00001184       0.00037272      -5.84449423
Si       9.38522855       5.48731626      18.48833819       0.00009397       0.00006585      -0.00065343      -5.91417639
