 vasp.6.5.0 16Dec24 (build Jan 20 2025 08:32:48) complex                         
 executed on        HPECrayEX_GCC date 2025.07.21  18:03:36
 running  128 mpi-ranks, with    1 threads/rank, on    1 nodes
 distrk:  each k-point on  128 cores,    1 groups
 distr:  one band on NCORE=  16 cores,    8 groups


--------------------------------------------------------------------------------------------------------


 INCAR:
   SYSTEM = a-Si SPC
   NCORE = 16
   ISTART = 1
   ICHARG = 1
   ISPIN = 1
   ISYM = 1
   EDIFF = 1E-6
   NELM = 150
   EDIFFG = -0.01
   NSW = 0
   ISIF = 2
   IBRION = -1
   PREC = Accurate
   ENCUT = 1200
   KSPACING = 0.23
   KGAMMA = .TRUE.
   METAGGA = SCAN
   LASPH = .TRUE.
   LDIAG = .FALSE.
   LMIXTAU = .TRUE.
   ADDGRID = .TRUE.
   ALGO = Normal
   ISMEAR = 0
   SIGMA = 0.1
   LORBIT = 11
   NEDOS = 2000
   LWAVE = .FALSE.
   LCHARG = .FALSE.

 POTCAR:    PAW_PBE H 15Jun2001                   
 POTCAR:    PAW_PBE Si 05Jan2001                  
 POTCAR:    PAW_PBE H 15Jun2001                   
   SHA256 =  030f79b5d3ab3cf0e668861823c8fb652ff669f3e15e46930bd03bfd63a607b6 H/POTCAR              
   COPYR  = (c) Copyright 15Jun2001 Georg Kresse                                                    
   COPYR  = This file is part of the software VASP. Any use, copying, and all other rights are regul
   COPYR  = If you do not have a valid VASP license, you may not use, copy or distribute this file. 
   VRHFIN =H: ultrasoft test                                                                        
   LEXCH  = PE                                                                                      
   EATOM  =    12.4884 eV,    0.9179 Ry                                                             
                                                                                                    
   TITEL  = PAW_PBE H 15Jun2001                                                                     
   LULTRA =        F    use ultrasoft PP ?                                                          
   IUNSCR =        0    unscreen: 0-lin 1-nonlin 2-no                                               
   RPACOR =    0.000    partial core radius                                                         
   POMASS =    1.000; ZVAL   =    1.000    mass and valenz                                          
   RCORE  =    1.100    outmost cutoff radius                                                       
   RWIGS  =    0.700; RWIGS  =    0.370    wigner-seitz radius (au A)                               
   ENMAX  =  250.000; ENMIN  =  200.000 eV                                                          
   RCLOC  =    0.701    cutoff for local pot                                                        
   LCOR   =        T    correct aug charges                                                         
   LPAW   =        T    paw PP                                                                      
   EAUG   =  400.000                                                                                
   RMAX   =    1.123    core radius for proj-oper                                                   
   RAUG   =    1.200    factor for augmentation sphere                                              
   RDEP   =    1.112    radius for radial grids                                                     
   RDEPT  =    0.926    core radius for aug-charge                                                  
                                                                                                    
   Atomic configuration                                                                             
    2 entries                                                                                       
     n  l   j            E        occ.                                                              
     1  0  0.50        -6.4927   1.0000                                                             
     2  1  0.50        -3.4015   0.0000                                                             
   Description                                                                                      
     l       E           TYP  RCUT    TYP  RCUT                                                     
     0     -6.4927494     23  1.100                                                                 
     0      6.8029130     23  1.100                                                                 
     1     -4.0817478     23  1.100                                                                 
  local pseudopotential read in
  atomic valenz-charges read in
  non local Contribution for L=           0  read in
    real space projection operators read in
  non local Contribution for L=           0  read in
    real space projection operators read in
  non local Contribution for L=           1  read in
    real space projection operators read in
    PAW grid and wavefunctions read in

   number of l-projection  operators is LMAX  =           3
   number of lm-projection operators is LMMAX =           5

 POTCAR:    PAW_PBE Si 05Jan2001                  
   SHA256 =  79d9987ad8750f624c4d6acb2a16d13abf6a777132adc04dc6c8399be72b42bb Si/POTCAR             
   COPYR  = (c) Copyright 05Jan2001 Georg Kresse                                                    
   COPYR  = This file is part of the software VASP. Any use, copying, and all other rights are regul
   COPYR  = If you do not have a valid VASP license, you may not use, copy or distribute this file. 
   VRHFIN =Si: s2p2                                                                                 
   LEXCH  = PE                                                                                      
   EATOM  =   103.0669 eV,    7.5752 Ry                                                             
                                                                                                    
   TITEL  = PAW_PBE Si 05Jan2001                                                                    
   LULTRA =        F    use ultrasoft PP ?                                                          
   IUNSCR =        1    unscreen: 0-lin 1-nonlin 2-no                                               
   RPACOR =    1.500    partial core radius                                                         
   POMASS =   28.085; ZVAL   =    4.000    mass and valenz                                          
   RCORE  =    1.900    outmost cutoff radius                                                       
   RWIGS  =    2.480; RWIGS  =    1.312    wigner-seitz radius (au A)                               
   ENMAX  =  245.345; ENMIN  =  184.009 eV                                                          
   ICORE  =        2    local potential                                                             
   LCOR   =        T    correct aug charges                                                         
   LPAW   =        T    paw PP                                                                      
   EAUG   =  322.069                                                                                
   DEXC   =    0.000                                                                                
   RMAX   =    1.950    core radius for proj-oper                                                   
   RAUG   =    1.300    factor for augmentation sphere                                              
   RDEP   =    1.993    radius for radial grids                                                     
   RDEPT  =    1.837    core radius for aug-charge                                                  
                                                                                                    
   Atomic configuration                                                                             
    6 entries                                                                                       
     n  l   j            E        occ.                                                              
     1  0  0.50     -1785.8828   2.0000                                                             
     2  0  0.50      -139.4969   2.0000                                                             
     2  1  1.50       -95.5546   6.0000                                                             
     3  0  0.50       -10.8127   2.0000                                                             
     3  1  0.50        -4.0811   2.0000                                                             
     3  2  1.50        -4.0817   0.0000                                                             
   Description                                                                                      
     l       E           TYP  RCUT    TYP  RCUT                                                     
     0    -10.8127223     23  1.900                                                                 
     0     -7.6451159     23  1.900                                                                 
     1     -4.0811372     23  1.900                                                                 
     1      2.4879257     23  1.900                                                                 
     2     -4.0817478      7  1.900                                                                 
  local pseudopotential read in
  partial core-charges read in
  partial kinetic energy density read in
  atomic valenz-charges read in
  non local Contribution for L=           0  read in
    real space projection operators read in
  non local Contribution for L=           0  read in
    real space projection operators read in
  non local Contribution for L=           1  read in
    real space projection operators read in
  non local Contribution for L=           1  read in
    real space projection operators read in
    PAW grid and wavefunctions read in

   number of l-projection  operators is LMAX  =           4
   number of lm-projection operators is LMMAX =           8

 -----------------------------------------------------------------------------
|                                                                             |
|               ----> ADVICE to this user running VASP <----                  |
|                                                                             |
|     You have a (more or less) 'large supercell' and for larger cells it     |
|     might be more efficient to use real-space projection operators.         |
|     Therefore, try LREAL= Auto in the INCAR file.                           |
|     Mind: For very accurate calculation, you might also keep the            |
|     reciprocal projection scheme (i.e. LREAL=.FALSE.).                      |
|                                                                             |
 -----------------------------------------------------------------------------

 -----------------------------------------------------------------------------
|                                                                             |
|               ----> ADVICE to this user running VASP <----                  |
|                                                                             |
|     You enforced a specific xc type in the INCAR file but a different       |
|     type was found in the POTCAR file.                                      |
|     I HOPE YOU KNOW WHAT YOU ARE DOING!                                     |
|                                                                             |
 -----------------------------------------------------------------------------

  PAW_PBE H 15Jun2001                   :
 energy of atom  1       EATOM=  -12.4884
 kinetic energy error for atom=    0.0000 (will be added to EATOM!!)
  PAW_PBE Si 05Jan2001                  :
 energy of atom  2       EATOM= -103.0669
 kinetic energy error for atom=    0.0001 (will be added to EATOM!!)


 POSCAR:  H Si
  positions in cartesian coordinates
  No initial velocities read in


 exchange-correlation table for SCAN
   RHO(1)=    0.500       N(1)  =     2000
   RHO(2)=  100.500       N(2)  =     4000



--------------------------------------------------------------------------------------------------------


 ion  position               nearest neighbor table
   1  0.618  0.888  0.407-  14 1.45
   2  0.626  0.058  0.396-  70 1.49
   3  0.499  0.748  0.381-   4 0.75
   4  0.526  0.756  0.404-   3 0.75
   5  0.486  0.966  0.391-  70 1.46
   6  0.604  0.957  0.469-  20 1.46
   7  0.660  0.191  0.400-  43 1.64
   8  0.370  0.964  0.590-  25 1.47
   9  0.650  0.366  0.366-  68 1.53
  10  0.833  0.040  0.531-  47 2.34  48 2.36  90 2.43  22 2.47
  11  0.177  0.681  0.417-  88 2.30  23 2.35  50 2.49
  12  0.097  0.377  0.549-  19 2.22  44 2.29  60 2.36  89 2.39
  13  0.713  0.454  0.613-  61 2.28  31 2.35  81 2.48
  14  0.704  0.841  0.400-   1 1.45  76 2.19  38 2.30
  15  0.752  0.498  0.470-  55 2.32  17 2.33  56 2.33  63 2.49
  16  0.537  0.127  0.540-  45 2.29  77 2.30  33 2.33  26 2.37
  17  0.885  0.519  0.516-  61 2.21  41 2.28  44 2.31  15 2.33
  18  0.221  0.054  0.438-  34 2.28  54 2.28  71 2.29  59 2.37
  19  0.167  0.262  0.511-  12 2.22  52 2.30  58 2.33  40 2.43
  20  0.559  0.893  0.502-   6 1.46  67 2.33  45 2.34  53 2.39
  21  0.049  0.624  0.626-  28 2.31  87 2.42
  22  0.728  0.018  0.600-  45 2.36  10 2.47
  23  0.334  0.700  0.400-  39 2.29  86 2.35  11 2.35
  24  0.436  0.170  0.416-  82 2.28  33 2.32  70 2.43  71 2.44
  25  0.459  0.937  0.611-   8 1.47  45 2.21  62 2.30
  26  0.635  0.245  0.512-  43 2.29  29 2.32  16 2.37  81 2.37  74 2.97
  27  0.997  0.880  0.599-  28 2.23  47 2.28  84 2.30
  28  0.947  0.746  0.628-  27 2.23  21 2.31  91 2.31
  29  0.528  0.362  0.504-  56 2.26  26 2.32  64 2.35  82 2.44  74 2.53
  30  0.324  0.402  0.424-  51 2.34  82 2.35  58 2.36
  31  0.582  0.532  0.586-  69 2.27  13 2.35  56 2.38  73 2.38  74 3.02
  32  0.951  0.157  0.427-  90 2.27  54 2.44  35 2.44
  33  0.401  0.144  0.497-  52 2.26  59 2.27  24 2.32  16 2.33
  34  0.220  0.906  0.411-  86 2.22  18 2.28  88 2.36
  35  0.954  0.320  0.448-  44 2.21  63 2.33  32 2.44  65 2.50
  36  0.867  0.762  0.509-  47 2.30  76 2.43  41 2.44  91 2.52
  37  0.908  0.631  0.396-  55 2.29  41 2.32
  38  0.810  0.956  0.392-  75 2.28  14 2.30  90 2.35
  39  0.389  0.646  0.473-  49 2.22  83 2.25  23 2.29  51 2.46
  40  0.079  0.126  0.531-  48 2.22  54 2.26  19 2.43  79 2.54
  41  0.957  0.636  0.476-  17 2.28  37 2.32  50 2.36  36 2.44
  42  0.013  0.898  0.460-  47 2.29  75 2.31  88 2.38  54 2.42
  43  0.726  0.215  0.446-   7 1.64  26 2.29  63 2.37  90 2.37
  44  0.948  0.374  0.523-  78 2.21  35 2.21  12 2.29  17 2.31
  45  0.580  0.986  0.570-  25 2.21  16 2.29  20 2.34  22 2.36
  46  0.533  0.566  0.377-  83 2.34  68 2.39
  47  0.921  0.906  0.528-  27 2.28  42 2.29  36 2.30  10 2.34
  48  0.941  0.145  0.563-  40 2.22  78 2.33  10 2.36
  49  0.361  0.752  0.530-  39 2.22  85 2.28  62 2.34  67 2.42
  50  0.094  0.555  0.460-  60 2.21  65 2.32  41 2.36  11 2.49
  51  0.331  0.493  0.495-  64 2.29  60 2.32  30 2.34  39 2.46
  52  0.316  0.250  0.538-  33 2.26  19 2.30  66 2.34  64 2.40
  53  0.594  0.734  0.499-  76 2.32  83 2.35  73 2.37  20 2.39
  54  0.069  0.055  0.458-  40 2.26  18 2.28  42 2.42  32 2.44
  55  0.755  0.616  0.414-  76 2.22  37 2.29  15 2.32
  56  0.604  0.497  0.502-  83 2.18  29 2.26  15 2.33  31 2.38
  57  0.151  0.231  0.364-  58 2.32  71 2.35
  58  0.188  0.317  0.432-  57 2.32  19 2.33  65 2.35  30 2.36
  59  0.309  0.020  0.508-  33 2.27  79 2.32  18 2.37  67 2.38
  60  0.180  0.505  0.521-  50 2.21  87 2.30  51 2.32  12 2.36
  61  0.832  0.545  0.590-  17 2.21  13 2.28  91 2.37
  62  0.449  0.781  0.599-  73 2.27  25 2.30  49 2.34
  63  0.802  0.355  0.429-  35 2.33  43 2.37  15 2.49
  64  0.395  0.393  0.549-  51 2.29  29 2.35  69 2.35  52 2.40  74 2.57
  65  0.073  0.424  0.413-  50 2.32  58 2.35  35 2.50
  66  0.329  0.205  0.619-  72 2.26  52 2.34  77 2.38
  67  0.402  0.892  0.487-  20 2.33  86 2.35  59 2.38  49 2.42
  68  0.553  0.404  0.373-   9 1.53  82 2.25  46 2.39
  69  0.451  0.473  0.617-  31 2.27  64 2.35  74 2.49  80 2.59
  70  0.530  0.053  0.378-   5 1.46   2 1.49  24 2.43
  71  0.285  0.147  0.380-  18 2.29  57 2.35  24 2.44
  72  0.231  0.088  0.636-  79 2.16  66 2.26
  73  0.575  0.695  0.582-  62 2.27  53 2.37  31 2.38
  74  0.536  0.331  0.595-  77 2.39  69 2.49  29 2.53  64 2.57  81 2.60  26 2.97  31 3.02
  75  0.951  0.889  0.383-  38 2.28  42 2.31
  76  0.733  0.742  0.457-  14 2.19  55 2.22  53 2.32  36 2.43
  77  0.490  0.178  0.615-  16 2.30  66 2.38  74 2.39
  78  0.871  0.287  0.575-  44 2.21  48 2.33  81 2.38
  79  0.199  0.021  0.569-  72 2.16  59 2.32  84 2.39  40 2.54
  80  0.314  0.583  0.628-  87 2.37  69 2.59
  81  0.709  0.293  0.585-  26 2.37  78 2.38  13 2.48  74 2.60
  82  0.464  0.323  0.425-  68 2.25  24 2.28  30 2.35  29 2.44
  83  0.534  0.603  0.460-  56 2.18  39 2.25  46 2.34  53 2.35
  84  0.154  0.871  0.595-  27 2.30  85 2.32  79 2.39
  85  0.206  0.767  0.538-  88 2.24  49 2.28  84 2.32  87 2.41
  86  0.364  0.858  0.406-  34 2.22  23 2.35  67 2.35
  87  0.188  0.621  0.578-  60 2.30  80 2.37  85 2.41  21 2.42
  88  0.147  0.805  0.466-  85 2.24  11 2.30  34 2.36  42 2.38
  89  0.093  0.326  0.632-  12 2.39
  90  0.819  0.082  0.446-  32 2.27  38 2.35  43 2.37  10 2.43
  91  0.811  0.706  0.590-  28 2.31  61 2.37  36 2.52

  LATTYP: Found a simple tetragonal cell.
 ALAT       =    14.5802938634
 C/A-ratio  =     1.8861634243
  
  Lattice vectors:
  
 A1 = (  14.5802938634,   0.0000000000,   0.0000000000)
 A2 = (   0.0000000000,  14.5802938634,   0.0000000000)
 A3 = (   0.0000000000,   0.0000000000,  27.5008170000)


Analysis of symmetry for initial positions (statically):
=====================================================================
 Subroutine PRICEL returns:
 Original cell was already a primitive cell.
 

 Routine SETGRP: Setting up the symmetry group for a 
 simple tetragonal supercell.


 Subroutine GETGRP returns: Found  1 space group operations
 (whereof  1 operations were pure point group operations)
 out of a pool of 16 trial point group operations.


The static configuration has the point symmetry C_1 .


Analysis of symmetry for dynamics (positions and initial velocities):
=====================================================================
 Subroutine PRICEL returns:
 Original cell was already a primitive cell.
 

 Routine SETGRP: Setting up the symmetry group for a 
 simple tetragonal supercell.


 Subroutine GETGRP returns: Found  1 space group operations
 (whereof  1 operations were pure point group operations)
 out of a pool of 16 trial point group operations.


The dynamic configuration has the point symmetry C_1 .


 Subroutine INISYM returns: Found  1 space group operations
 (whereof  1 operations are pure point group operations),
 and found     1 'primitive' translations


----------------------------------------------------------------------------------------

                                     Primitive cell                                     

  volume of cell :    5846.2603

  direct lattice vectors                    reciprocal lattice vectors
    14.580293863  0.000000000  0.000000000     0.068585723  0.000000000  0.000000000
     0.000000000 14.580293863  0.000000000     0.000000000  0.068585723  0.000000000
     0.000000000  0.000000000 27.500817000     0.000000000  0.000000000  0.036362556

  length of vectors
    14.580293863 14.580293863 27.500817000     0.068585723  0.068585723  0.036362556

  position of ions in fractional coordinates (direct lattice)
     0.618137061  0.888384015  0.407129614
     0.626198627  0.057666533  0.396401205
     0.498596947  0.748153645  0.381334816
     0.526124512  0.756089013  0.403839166
     0.485679511  0.965604681  0.390534179
     0.603970680  0.956962880  0.468721966
     0.659671889  0.191483795  0.399716379
     0.370041239  0.964438723  0.590105996
     0.650094579  0.365694961  0.365999596
     0.833481143  0.039901116  0.530827030
     0.177437439  0.680668037  0.416941322
     0.097115327  0.377217363  0.549052306
     0.712941735  0.453897573  0.613350760
     0.704107894  0.840936411  0.399682562
     0.751905284  0.498271164  0.470449551
     0.537052276  0.126521455  0.540191842
     0.885345667  0.518780353  0.515705661
     0.220734234  0.053542885  0.437577436
     0.167412264  0.262472076  0.510999619
     0.559034000  0.893418207  0.501863526
     0.048704985  0.624396880  0.625596214
     0.727975725  0.018366022  0.600033701
     0.334399982  0.700040760  0.400382178
     0.436100264  0.170312068  0.415843537
     0.458897472  0.937155323  0.611140280
     0.635491993  0.244678882  0.512387941
     0.996852336  0.879577608  0.598939552
     0.947209990  0.745643408  0.627640881
     0.528435851  0.361760198  0.504283455
     0.324256153  0.402294361  0.424420736
     0.581866187  0.532147711  0.585741035
     0.950556973  0.157289011  0.426975933
     0.400508389  0.144202855  0.496969854
     0.220060037  0.905571597  0.411106586
     0.954178299  0.320145125  0.447973127
     0.866518886  0.762200001  0.508968043
     0.908465915  0.630816504  0.396054779
     0.810333462  0.956434769  0.391919993
     0.388548410  0.646272297  0.473370918
     0.079413351  0.125555083  0.530829575
     0.957381252  0.635808859  0.476449009
     0.013377097  0.898068319  0.460399667
     0.726007315  0.215237088  0.445973551
     0.947696948  0.373919761  0.523180348
     0.579779810  0.986393013  0.570427671
     0.533316411  0.565862395  0.377305227
     0.921366889  0.905509870  0.527816937
     0.941256749  0.144797493  0.562982802
     0.361059938  0.752138476  0.529619793
     0.094295767  0.554970296  0.459794231
     0.330872618  0.492621072  0.494667377
     0.316202818  0.249607452  0.537675553
     0.594032609  0.733682057  0.498623623
     0.069141953  0.054678802  0.457918650
     0.755327712  0.616081547  0.413585058
     0.603570825  0.496937858  0.502201335
     0.151438649  0.231217562  0.363625561
     0.187507195  0.316582097  0.431990693
     0.308851114  0.020009130  0.507720807
     0.180014204  0.505329321  0.520615333
     0.831704773  0.544772971  0.589702008
     0.449362685  0.781417721  0.599010458
     0.802192336  0.355010677  0.429102779
     0.394939228  0.392570277  0.549019580
     0.073200857  0.424071700  0.413049438
     0.329033149  0.204628249  0.619255675
     0.401762136  0.891662412  0.486782520
     0.553418201  0.403579657  0.372902412
     0.450847566  0.472593355  0.616872110
     0.530206049  0.052571300  0.378466174
     0.285030606  0.146808427  0.380039328
     0.231279289  0.088432374  0.636374439
     0.574513112  0.695322062  0.581551704
     0.535752576  0.330784142  0.594766221
     0.950742154  0.889460811  0.383492461
     0.732577827  0.741823183  0.457465209
     0.490207541  0.178043737  0.615238704
     0.870819211  0.286719873  0.574575548
     0.198652375  0.020730241  0.568533909
     0.313605476  0.583464235  0.628471038
     0.709100934  0.292731411  0.585031601
     0.464428911  0.323418036  0.424726909
     0.534240947  0.602818440  0.460104403
     0.154143670  0.871072978  0.595310568
     0.206050717  0.766918699  0.537922455
     0.364352053  0.858082842  0.405554024
     0.187500336  0.620548535  0.577698001
     0.146532712  0.804750584  0.465619149
     0.093260809  0.326127172  0.631506584
     0.818851809  0.081589576  0.445779011
     0.811087905  0.706062587  0.590444531

  ion indices of the primitive-cell ions
   primitive index   ion index
                 1           1
                 2           2
                 3           3
                 4           4
                 5           5
                 6           6
                 7           7
                 8           8
                 9           9
                10          10
                11          11
                12          12
                13          13
                14          14
                15          15
                16          16
                17          17
                18          18
                19          19
                20          20
                21          21
                22          22
                23          23
                24          24
                25          25
                26          26
                27          27
                28          28
                29          29
                30          30
                31          31
                32          32
                33          33
                34          34
                35          35
                36          36
                37          37
                38          38
                39          39
                40          40
                41          41
                42          42
                43          43
                44          44
                45          45
                46          46
                47          47
                48          48
                49          49
                50          50
                51          51
                52          52
                53          53
                54          54
                55          55
                56          56
                57          57
                58          58
                59          59
                60          60
                61          61
                62          62
                63          63
                64          64
                65          65
                66          66
                67          67
                68          68
                69          69
                70          70
                71          71
                72          72
                73          73
                74          74
                75          75
                76          76
                77          77
                78          78
                79          79
                80          80
                81          81
                82          82
                83          83
                84          84
                85          85
                86          86
                87          87
                88          88
                89          89
                90          90
                91          91

----------------------------------------------------------------------------------------


 -----------------------------------------------------------------------------
|                                                                             |
|           W    W    AA    RRRRR   N    N  II  N    N   GGGG   !!!           |
|           W    W   A  A   R    R  NN   N  II  NN   N  G    G  !!!           |
|           W    W  A    A  R    R  N N  N  II  N N  N  G       !!!           |
|           W WW W  AAAAAA  RRRRR   N  N N  II  N  N N  G  GGG   !            |
|           WW  WW  A    A  R   R   N   NN  II  N   NN  G    G                |
|           W    W  A    A  R    R  N    N  II  N    N   GGGG   !!!           |
|                                                                             |
|     The requested file  could not be found or opened for reading            |
|     k-point information. Automatic k-point generation is used as a          |
|     fallback, which may lead to unwanted results.                           |
|                                                                             |
 -----------------------------------------------------------------------------



Automatic generation of k-mesh.
 Grid dimensions derived from KSPACING:
 generate k-points for:    2    2    1

 Generating k-lattice:

  Cartesian coordinates                     Fractional coordinates (reciprocal lattice)
     0.034292862  0.000000000  0.000000000     0.500000000  0.000000000  0.000000000
     0.000000000  0.034292862  0.000000000     0.000000000  0.500000000  0.000000000
     0.000000000  0.000000000  0.036362556     0.000000000  0.000000000  1.000000000

  Length of vectors
     0.034292862  0.034292862  0.036362556

  Shift w.r.t. Gamma in fractional coordinates (k-lattice)
     0.000000000  0.000000000  0.000000000

 
 Subroutine IBZKPT returns following result:
 ===========================================
 
 Found      4 irreducible k-points:
 
 Following reciprocal coordinates:
            Coordinates               Weight
  0.000000  0.000000  0.000000      1.000000
  0.500000  0.000000  0.000000      1.000000
  0.000000  0.500000  0.000000      1.000000
  0.500000  0.500000  0.000000      1.000000
 
 Following cartesian coordinates:
            Coordinates               Weight
  0.000000  0.000000  0.000000      1.000000
  0.034293  0.000000  0.000000      1.000000
  0.000000  0.034293  0.000000      1.000000
  0.034293  0.034293  0.000000      1.000000
 


--------------------------------------------------------------------------------------------------------




 Dimension of arrays:
   k-points           NKPTS =      4   k-points in BZ     NKDIM =      4   number of bands    NBANDS=    216
   number of dos      NEDOS =   2000   number of ions     NIONS =     91
   non local maximal  LDIM  =      4   non local SUM 2l+1 LMDIM =      8
   total plane-waves  NPLWV = ******
   max r-space proj   IRMAX =      1   max aug-charges    IRDMAX= 413371
   dimension x,y,z NGX =   168 NGY =  168 NGZ =  320
   dimension x,y,z NGXF=   336 NGYF=  336 NGZF=  640
   support grid    NGXF=   672 NGYF=  672 NGZF= 1280
   ions per type =               9  82
   NGX,Y,Z   is equivalent  to a cutoff of  19.16, 19.16, 19.34 a.u.
   NGXF,Y,Z  is equivalent  to a cutoff of  38.31, 38.31, 38.69 a.u.

 SYSTEM =  a-Si SPC                                
 POSCAR =   H Si                                   

 Startparameter for this run:
   NWRITE =      2    write-flag & timer
   PREC   = accura    normal or accurate (medium, high low for compatibility)
   ISTART =      1    job   : 0-new  1-cont  2-samecut
   ICHARG =      1    charge: 1-file 2-atom 10-const
   ISPIN  =      1    spin polarized calculation?
   LNONCOLLINEAR =      F non collinear calculations
   LSORBIT =      F    spin-orbit coupling
   INIWAV =      1    electr: 0-lowe 1-rand  2-diag
   LASPH  =      T    aspherical Exc in radial PAW
 Electronic Relaxation 1
   ENCUT  = 1200.0 eV  88.20 Ry    9.39 a.u.  41.18 41.18 77.68*2*pi/ulx,y,z
   ENINI  = 1200.0     initial cutoff
   ENAUG  =  400.0 eV  augmentation charge cutoff
   NELM   =    150;   NELMIN=  2; NELMDL=  0     # of ELM steps 
   EDIFF  = 0.1E-05   stopping-criterion for ELM
   LREAL  =      F    real-space projection
   NLSPLINE    = F    spline interpolate recip. space projectors
   LCOMPAT=      F    compatible to vasp.4.4
   GGA_COMPAT  = T    GGA compatible to vasp.4.4-vasp.4.6
   LMAXPAW     = -100 max onsite density
   LMAXMIX     =    2 max onsite mixed and CHGCAR
   VOSKOWN=      0    Vosko Wilk Nusair interpolation
   ROPT   =    0.00000   0.00000
 Ionic relaxation
   EDIFFG = -.1E-01   stopping-criterion for IOM
   NSW    =      0    number of steps for IOM
   NBLOCK =      1;   KBLOCK =      1    inner block; outer block 
   IBRION =     -1    ionic relax: 0-MD 1-quasi-New 2-CG
   NFREE  =      0    steps in history (QN), initial steepest desc. (CG)
   ISIF   =      2    stress and relaxation
   IWAVPR =     10    prediction:  0-non 1-charg 2-wave 3-comb
   ISYM   =      1    0-nonsym 1-usesym 2-fastsym
   LCORR  =      T    Harris-Foulkes like correction to forces

   POTIM  = 0.5000    time-step for ionic-motion
   TEIN   =    0.0    initial temperature
   TEBEG  =    0.0;   TEEND  =   0.0 temperature during run
   SMASS  =  -3.00    Nose mass-parameter (am)
   estimated Nose-frequenzy (Omega)   =  0.10E-29 period in steps = 0.13E+47 mass=  -0.486E-26a.u.
   SCALEE = 1.0000    scale energy and forces
   NPACO  =    256;   APACO  = 10.0  distance and # of slots for P.C.
   PSTRESS=    0.0 pullay stress

  Mass of Ions in am
   POMASS =   1.00 28.09
  Ionic Valenz
   ZVAL   =   1.00  4.00
  Atomic Wigner-Seitz radii
   RWIGS  =  -1.00 -1.00
  virtual crystal weights 
   VCA    =   1.00  1.00
   NELECT =     337.0000    total number of electrons
   NUPDOWN=      -1.0000    fix difference up-down

 DOS related values:
   EMIN   =  10.00;   EMAX   =-10.00  energy-range for DOS
   EFERMI =   0.00;   METHOD = LEGACY      
   ISMEAR =     0;   SIGMA  =   0.10  broadening in eV -4-tet -1-fermi 0-gaus
   EFERMI_NEDOS =   21; number of points for ismear=-14 and -15

 Electronic relaxation 2 (details)
   IALGO  =     38    algorithm
   LDIAG  =      F    sub-space diagonalisation (order eigenvalues)
   LSUBROT=      F    optimize rotation matrix (better conditioning)
   TURBO    =      0    0=normal 1=particle mesh
   IRESTART =      0    0=no restart 2=restart with 2 vectors
   NREBOOT  =      0    no. of reboots
   NMIN     =      0    reboot dimension
   EREF     =   0.00    reference energy to select bands
   IMIX   =      4    mixing-type and parameters
     AMIX     =   0.40;   BMIX     =  1.00
     AMIX_MAG =   1.60;   BMIX_MAG =  1.00
     AMIN     =   0.10
     WC   =   100.;   INIMIX=   1;  MIXPRE=   1;  MAXMIX= -45

 Intra band minimization:
   WEIMIN = 0.0000     energy-eigenvalue tresh-hold
   EBREAK =  0.12E-08  absolut break condition
   DEPER  =   0.30     relativ break condition  

   TIME   =   0.40     timestep for ELM

  volume/ion in A,a.u.               =      64.24       433.54
  Fermi-wavevector in a.u.,A,eV,Ry     =   0.632400  1.195063  5.441380  0.399930
  Thomas-Fermi vector in A             =   1.695704

 Write flags
   LWAVE        =      F    write WAVECAR
   LDOWNSAMPLE  =      F    k-point downsampling of WAVECAR
   LCHARG       =      F    write CHGCAR
   LVTOT        =      F    write LOCPOT, total local potential
   LVHAR        =      F    write LOCPOT, Hartree potential only
   WRT_POTENTIAL= false  ! write potential to hdf5 file
   LELF         =      F    write electronic localiz. function (ELF)
   LORBIT       =     11    0 simple, 1 ext, 2 COOP (PROOUT), +10 PAW based schemes


 Python interface
   PLUGINS active      =      F    recompile with -DPLUGINS to activate

 Dipole corrections
   LMONO      =      F    monopole corrections only (constant potential shift)
   LDIPOL     =      F    correct potential (dipole corrections)
   IDIPOL     =      0    1-x, 2-y, 3-z, 4-all directions 
   EPSILON    =  1.0000000 bulk dielectric constant
   LVACPOTAV  =      F  vacuum potentials using an averaging scheme for the charge density
   VACPOTFLAT =  0.1000000 required flatness to determine vacuum potential

Coulomb truncation method
  LTRUNCATE          =      F  Coulomb kernel truncation to be used
  IDIMENSIONALITY    =      3  Dimensionality of cutoff (0 molecules / 2 surfaces)
  ISURFACE           =     -1  Direction of surface normal
  LCOARSEN           =      F  Coarsen the charge grid before padding, preferred


 Exchange correlation treatment:
   METAGGA = SCAN    functional components
   XC_C    = 1    coefficients multiplying the functional components
   LIBXC   =     F    Libxc                    
   VOSKOWN =     0    Vosko Wilk Nusair interpolation
   LHFCALC =     F    Hartree Fock is set to
   LHFONE  =     F    Hartree Fock one center treatment
   AEXX    =    0.0000 exact exchange contribution

 Parameters of functionals:
   SCAN:
     P1 =  0.000000E+00
     P2 =  0.000000E+00
     P3 =  0.000000E+00

 Accuracy and mixing parameters for tau-dependent meta-GGA functionals:
   LMAXTAU = 6
   LMIXTAU = T

 Van der Waals corrections
   IVDW    =     0    specifies the selected vdW correction

 Linear response parameters
   LEPSILON=     F    determine dielectric tensor
   LRPA    =     F    only Hartree local field effects (RPA)
   LNABLA  =     F    use nabla operator in PAW spheres
   LVEL    =     F    velocity operator in full k-point grid
   CSHIFT  =0.1000    complex shift for real part using Kramers Kronig
   OMEGAMAX=  -1.0    maximum frequency
   DEG_THRESHOLD= 0.2000000E-02 threshold for treating states as degnerate
   RTIME   =   -0.100 relaxation time in fs
  (WPLASMAI=    0.000 imaginary part of plasma frequency in eV, 0.658/RTIME)
   DFIELD  = 0.0000000 0.0000000 0.0000000 field for delta impulse in time

  Optional k-point grid parameters
   LKPOINTS_OPT  =     F    use optional k-point grid
   KPOINTS_OPT_MODE=     1    mode for optional k-point grid

 Orbital magnetization related:
   ORBITALMAG=     F  switch on orbital magnetization
   LCHIMAG   =     F  perturbation theory with respect to B field
   DQ        =  0.001000  dq finite difference perturbation B field
   LLRAUG    =     F  two centre corrections for induced B field
   LBONE     =     F  B-component reconstruction in AE one-centre
   LVGVCALC  =     T  calculate vGv susceptibility
   LVGVAPPL  =     F  apply vGv susceptibility instead of pGv for G=0

 Random number generation:
   RANDOM_GENERATOR = DEFAULT
   PCG_SEED         = not used


--------------------------------------------------------------------------------------------------------


 Static calculation
 charge density and potential will be updated during run
 non-spin polarized calculation
 Variant of blocked Davidson
 perform Loewdin sub-space diagonalisation
    ordering is kept fixed
    before iterative eigenvector-optimisation
 modified Broyden-mixing scheme, WC =      100.0
 initial mixing is a Kerker type mixing with AMIX =  0.4000 and BMIX =      1.0000
 Hartree-type preconditioning will be used
 using additional bands           47
 reciprocal scheme for non local part
 use partial core corrections
 calculate Harris-corrections to forces   (improved forces if not selfconsistent)
 use gradient corrections 
 use of overlap-Matrix (Vanderbilt PP)
 Gauss-broadening in eV      SIGMA  =   0.10


--------------------------------------------------------------------------------------------------------


  energy-cutoff  :     1200.00
  volume of cell :     5846.26
      direct lattice vectors                 reciprocal lattice vectors
    14.580293863  0.000000000  0.000000000     0.068585723  0.000000000  0.000000000
     0.000000000 14.580293863  0.000000000     0.000000000  0.068585723  0.000000000
     0.000000000  0.000000000 27.500817000     0.000000000  0.000000000  0.036362556

  length of vectors
    14.580293863 14.580293863 27.500817000     0.068585723  0.068585723  0.036362556



 old parameters found on file WAVECAR:
  energy-cutoff  :     1200.00
  volume of cell :     5846.26
      direct lattice vectors                 reciprocal lattice vectors
    14.580293863  0.000000000  0.000000000     0.068585723  0.000000000  0.000000000
     0.000000000 14.580293863  0.000000000     0.000000000  0.068585723  0.000000000
     0.000000000  0.000000000 27.500817000     0.000000000  0.000000000  0.036362556

  length of vectors


 k-points in units of 2pi/SCALE and weight: read from INCAR                         
   0.00000000  0.00000000  0.00000000       0.250
   0.03429286  0.00000000  0.00000000       0.250
   0.00000000  0.03429286  0.00000000       0.250
   0.03429286  0.03429286  0.00000000       0.250

 k-points in reciprocal lattice and weights: read from INCAR                         
   0.00000000  0.00000000  0.00000000       0.250
   0.50000000  0.00000000  0.00000000       0.250
   0.00000000  0.50000000  0.00000000       0.250
   0.50000000  0.50000000  0.00000000       0.250

 position of ions in fractional coordinates (direct lattice) 
   0.61813706  0.88838401  0.40712961
   0.62619863  0.05766653  0.39640121
   0.49859695  0.74815365  0.38133482
   0.52612451  0.75608901  0.40383917
   0.48567951  0.96560468  0.39053418
   0.60397068  0.95696288  0.46872197
   0.65967189  0.19148379  0.39971638
   0.37004124  0.96443872  0.59010600
   0.65009458  0.36569496  0.36599960
   0.83348114  0.03990112  0.53082703
   0.17743744  0.68066804  0.41694132
   0.09711533  0.37721736  0.54905231
   0.71294173  0.45389757  0.61335076
   0.70410789  0.84093641  0.39968256
   0.75190528  0.49827116  0.47044955
   0.53705228  0.12652146  0.54019184
   0.88534567  0.51878035  0.51570566
   0.22073423  0.05354289  0.43757744
   0.16741226  0.26247208  0.51099962
   0.55903400  0.89341821  0.50186353
   0.04870499  0.62439688  0.62559621
   0.72797573  0.01836602  0.60003370
   0.33439998  0.70004076  0.40038218
   0.43610026  0.17031207  0.41584354
   0.45889747  0.93715532  0.61114028
   0.63549199  0.24467888  0.51238794
   0.99685234  0.87957761  0.59893955
   0.94720999  0.74564341  0.62764088
   0.52843585  0.36176020  0.50428345
   0.32425615  0.40229436  0.42442074
   0.58186619  0.53214771  0.58574103
   0.95055697  0.15728901  0.42697593
   0.40050839  0.14420285  0.49696985
   0.22006004  0.90557160  0.41110659
   0.95417830  0.32014512  0.44797313
   0.86651889  0.76220000  0.50896804
   0.90846591  0.63081650  0.39605478
   0.81033346  0.95643477  0.39191999
   0.38854841  0.64627230  0.47337092
   0.07941335  0.12555508  0.53082957
   0.95738125  0.63580886  0.47644901
   0.01337710  0.89806832  0.46039967
   0.72600732  0.21523709  0.44597355
   0.94769695  0.37391976  0.52318035
   0.57977981  0.98639301  0.57042767
   0.53331641  0.56586239  0.37730523
   0.92136689  0.90550987  0.52781694
   0.94125675  0.14479749  0.56298280
   0.36105994  0.75213848  0.52961979
   0.09429577  0.55497030  0.45979423
   0.33087262  0.49262107  0.49466738
   0.31620282  0.24960745  0.53767555
   0.59403261  0.73368206  0.49862362
   0.06914195  0.05467880  0.45791865
   0.75532771  0.61608155  0.41358506
   0.60357083  0.49693786  0.50220133
   0.15143865  0.23121756  0.36362556
   0.18750719  0.31658210  0.43199069
   0.30885111  0.02000913  0.50772081
   0.18001420  0.50532932  0.52061533
   0.83170477  0.54477297  0.58970201
   0.44936269  0.78141772  0.59901046
   0.80219234  0.35501068  0.42910278
   0.39493923  0.39257028  0.54901958
   0.07320086  0.42407170  0.41304944
   0.32903315  0.20462825  0.61925568
   0.40176214  0.89166241  0.48678252
   0.55341820  0.40357966  0.37290241
   0.45084757  0.47259336  0.61687211
   0.53020605  0.05257130  0.37846617
   0.28503061  0.14680843  0.38003933
   0.23127929  0.08843237  0.63637444
   0.57451311  0.69532206  0.58155170
   0.53575258  0.33078414  0.59476622
   0.95074215  0.88946081  0.38349246
   0.73257783  0.74182318  0.45746521
   0.49020754  0.17804374  0.61523870
   0.87081921  0.28671987  0.57457555
   0.19865237  0.02073024  0.56853391
   0.31360548  0.58346423  0.62847104
   0.70910093  0.29273141  0.58503160
   0.46442891  0.32341804  0.42472691
   0.53424095  0.60281844  0.46010440
   0.15414367  0.87107298  0.59531057
   0.20605072  0.76691870  0.53792246
   0.36435205  0.85808284  0.40555402
   0.18750034  0.62054854  0.57769800
   0.14653271  0.80475058  0.46561915
   0.09326081  0.32612717  0.63150658
   0.81885181  0.08158958  0.44577901
   0.81108790  0.70606259  0.59044453

 position of ions in cartesian coordinates  (Angst):
   9.01262000 12.95290000 11.19639700
   9.13016000  0.84079500 10.90135700
   7.26969000 10.90830000 10.48701900
   7.67105000 11.02400000 11.10590700
   7.08135000 14.07880000 10.74000900
   8.80607000 13.95280000 12.89023700
   9.61821000  2.79189000 10.99252700
   5.39531000 14.06180000 16.22839700
   9.47857000  5.33194000 10.06528790
  12.15240000  0.58177000 14.59817700
   2.58709000  9.92434000 11.46622700
   1.41597000  5.49994000 15.09938700
  10.39490000  6.61796000 16.86764700
  10.26610000 12.26110000 10.99159700
  10.96300000  7.26494000 12.93774700
   7.83038000  1.84472000 14.85571700
  12.90860000  7.56397000 14.18232700
   3.21837000  0.78067100 12.03373700
   2.44092000  3.82692000 14.05290700
   8.15088000 13.02630000 13.80165700
   0.71013300  9.10389000 17.20440700
  10.61410000  0.26778200 16.50141700
   4.87565000 10.20680000 11.01083700
   6.35847000  2.48320000 11.43603700
   6.69086000 13.66400000 16.80685700
   9.26566000  3.56749000 14.09108700
  14.53440000 12.82450000 16.47132700
  13.81060000 10.87170000 17.26063700
   7.70475000  5.27457000 13.86820700
   4.72775000  5.86557000 11.67191700
   8.48378000  7.75887000 16.10835700
  13.85940000  2.29332000 11.74218700
   5.83953000  2.10252000 13.66707700
   3.20854000 13.20350000 11.30576700
  13.91220000  4.66781000 12.31962700
  12.63410000 11.11310000 13.99703700
  13.24570000  9.19749000 10.89183000
  11.81490000 13.94510000 10.77812000
   5.66515000  9.42284000 13.01808700
   1.15787000  1.83063000 14.59824700
  13.95890000  9.27028000 13.10273700
   0.19504200 13.09410000 12.66136700
  10.58540000  3.13822000 12.26463700
  13.81770000  5.45186000 14.38788700
   8.45336000 14.38190000 15.68722700
   7.77591000  8.25044000 10.37620200
  13.43380000 13.20260000 14.51539700
  13.72380000  2.11119000 15.48248700
   5.26436000 10.96640000 14.56497700
   1.37486000  8.09163000 12.64471700
   4.82422000  7.18256000 13.60375700
   4.61033000  3.63935000 14.78651700
   8.66117000 10.69730000 13.71255700
   1.00811000  0.79723300 12.59313700
  11.01290000  8.98265000 11.37392700
   8.80024000  7.24550000 13.81094700
   2.20802000  3.37122000 10.00000000
   2.73391000  4.61586000 11.88009700
   4.50314000  0.29173900 13.96273700
   2.62466000  7.36785000 14.31734700
  12.12650000  7.94295000 16.21728700
   6.55184000 11.39330000 16.47327700
  11.69620000  5.17616000 11.80067700
   5.75833000  5.72379000 15.09848700
   1.06729000  6.18309000 11.35919700
   4.79740000  2.98354000 17.03003700
   5.85781000 13.00070000 13.38691700
   8.06900000  5.88431000 10.25512100
   6.57349000  6.89055000 16.96448700
   7.73056000  0.76650500 10.40812900
   4.15583000  2.14051000 10.45139200
   3.37212000  1.28937000 17.50081700
   8.37657000 10.13800000 15.99314700
   7.81143000  4.82293000 16.35655700
  13.86210000 12.96860000 10.54635600
  10.68120000 10.81600000 12.58066700
   7.14737000  2.59593000 16.91956700
  12.69680000  4.18046000 15.80129700
   2.89641000  0.30225300 15.63514700
   4.57246000  8.50708000 17.28346700
  10.33890000  4.26811000 16.08884700
   6.77151000  4.71553000 11.68033700
   7.78939000  8.78927000 12.65324700
   2.24746000 12.70050000 16.37152700
   3.00428000 11.18190000 14.79330700
   5.31236000 12.51110000 11.15306700
   2.73381000  9.04778000 15.88716700
   2.13649000 11.73350000 12.80490700
   1.35977000  4.75503000 17.36694700
  11.93910000  1.18960000 12.25928700
  11.82590000 10.29460000 16.23770700



--------------------------------------------------------------------------------------------------------


 k-point     1 :   0.0000 0.0000 0.0000  plane waves:  551555
 k-point     2 :   0.5000 0.0000 0.0000  plane waves:  551810
 k-point     3 :   0.0000 0.5000 0.0000  plane waves:  551810
 k-point     4 :   0.5000 0.5000 0.0000  plane waves:  551676

 maximum and minimum number of plane-waves per node :     34566    34420

 maximum number of plane-waves:    551810
 maximum index in each direction: 
   IXMAX=   41   IYMAX=   41   IZMAX=   77
   IXMIN=  -41   IYMIN=  -41   IZMIN=  -77


 parallel 3D FFT for wavefunctions:
    minimum data exchange during FFTs selected (reduces bandwidth)
 parallel 3D FFT for charge:
    minimum data exchange during FFTs selected (reduces bandwidth)


 total amount of memory used by VASP MPI-rank0   350523. kBytes
=======================================================================

   base                                    :      30000. kBytes
   nonl-proj                               :      67935. kBytes
   fftplans                                :     108846. kBytes
   grid                                    :      83991. kBytes
   one-center                              :         18. kBytes
   wavefun                                 :      59733. kBytes

     INWAV:  cpu time     17.7485: real time     17.7576
 Broyden mixing: mesh for mixing (old mesh)
   NGX = 83   NGY = 83   NGZ =155
  (NGX  =336   NGY  =336   NGZ  =640)
  gives a total of ****** points

 initial charge density was supplied:
 number of electron     336.9999999 magnetization 
 keeping initial charge density in first step


--------------------------------------------------------------------------------------------------------


 Maximum index for augmentation-charges        10548 (set IRDMAX)


--------------------------------------------------------------------------------------------------------


 First call to EWALD:  gamma=   0.098
 Maximum number of real-space cells   3x   3x   2
 Maximum number of reciprocal cells   2x   2x   4

    FEWALD:  cpu time      0.0152: real time      0.0152


--------------------------------------- Ionic step        1  -------------------------------------------




--------------------------------------- Iteration      1(   1)  ---------------------------------------


    POTLOK:  cpu time      2.1765: real time      2.1784
    SETDIJ:  cpu time      1.6362: real time      1.6369
    EDDIAG:  cpu time     35.8077: real time     35.8323
     EDDAV:  cpu time    162.4407: real time    162.5372
       DOS:  cpu time      0.0076: real time      0.0076
    CHARGE:  cpu time     21.0948: real time     21.1160
    MIXING:  cpu time      0.0509: real time      0.0516
    --------------------------------------------
      LOOP:  cpu time    223.2145: real time    223.3601

 eigenvalue-minimisations  :  1728
 total energy-change (2. order) :-0.8413505E+03  (-0.9358227E+00)
 number of electron     336.9999999 magnetization 
 augmentation part      -18.7302518 magnetization 

 Broyden mixing:
  rms(total) = 0.11020E+01    rms(broyden)= 0.26386E+02
  rms(prec ) = 0.11350E+01
  weight for this iteration     100.00
  WARNING: grid for Broyden might be to small

 Free energy of the ion-electron system (eV)
  ---------------------------------------------------
  alpha Z        PSCENC =        41.04343999
  Ewald energy   TEWEN  =     49286.18076244
  -Hartree energ DENC   =    -56779.41102786
  -exchange      EXHF   =         0.00000000
  -V(xc)+E(xc)   XCENC  =      -381.48242695
  PAW double counting   =     30670.16612930   -29852.87640831
  entropy T*S    EENTRO =        -0.23665646
  eigenvalues    EBANDS =     -2388.61006867
  atomic energy  EATOM  =      8563.87579245
  Solvation  Ediel_sol  =         0.00000000
  ---------------------------------------------------
  free energy    TOTEN  =      -841.35046408 eV

  energy without entropy =     -841.11380762  energy(sigma->0) =     -841.23213585


--------------------------------------------------------------------------------------------------------




--------------------------------------- Iteration      1(   2)  ---------------------------------------


    POTLOK:  cpu time      2.1363: real time      2.1544
    SETDIJ:  cpu time      1.6322: real time      1.6334
    EDDIAG:  cpu time     35.7426: real time     35.7636
     EDDAV:  cpu time    162.8318: real time    162.9233
       DOS:  cpu time      0.0020: real time      0.0020
    CHARGE:  cpu time     20.9987: real time     21.0163
    MIXING:  cpu time      0.0431: real time      0.0436
    --------------------------------------------
      LOOP:  cpu time    223.3868: real time    223.5367

 eigenvalue-minimisations  :  1736
 total energy-change (2. order) : 0.6015623E+02  (-0.9217748E+00)
 number of electron     336.9999999 magnetization 
 augmentation part      -18.6723833 magnetization 

 Broyden mixing:
  rms(total) = 0.74698E+00    rms(broyden)= 0.15304E+02
  rms(prec ) = 0.76827E+00
  weight for this iteration     100.00
  WARNING: grid for Broyden might be to small

 eigenvalues of (default mixing * dielectric matrix)
  average eigenvalue GAMMA=   0.6330
  0.6330

 Free energy of the ion-electron system (eV)
  ---------------------------------------------------
  alpha Z        PSCENC =        41.04343999
  Ewald energy   TEWEN  =     49286.18076244
  -Hartree energ DENC   =    -56766.53407379
  -exchange      EXHF   =         0.00000000
  -V(xc)+E(xc)   XCENC  =      -372.89286595
  PAW double counting   =     36531.59389183   -35714.10466513
  entropy T*S    EENTRO =        -0.22479774
  eigenvalues    EBANDS =     -2350.13172088
  atomic energy  EATOM  =      8563.87579245
  Solvation  Ediel_sol  =         0.00000000
  ---------------------------------------------------
  free energy    TOTEN  =      -781.19423678 eV

  energy without entropy =     -780.96943904  energy(sigma->0) =     -781.08183791


--------------------------------------------------------------------------------------------------------




--------------------------------------- Iteration      1(   3)  ---------------------------------------


    POTLOK:  cpu time      2.1494: real time      2.1594
    SETDIJ:  cpu time      1.6324: real time      1.6332
    EDDIAG:  cpu time     35.7598: real time     35.7814
     EDDAV:  cpu time    163.2361: real time    163.3322
       DOS:  cpu time      0.0038: real time      0.0038
    CHARGE:  cpu time     20.9805: real time     20.9996
    MIXING:  cpu time      0.0412: real time      0.0412
    --------------------------------------------
      LOOP:  cpu time    223.8032: real time    223.9508

 eigenvalue-minimisations  :  1744
 total energy-change (2. order) :-0.3270545E+01  (-0.8026957E+00)
 number of electron     336.9999999 magnetization 
 augmentation part      -18.6121484 magnetization 

 Broyden mixing:
  rms(total) = 0.38649E+00    rms(broyden)= 0.20742E+02
  rms(prec ) = 0.51095E+00
  weight for this iteration     100.00
  WARNING: grid for Broyden might be to small

 eigenvalues of (default mixing * dielectric matrix)
  average eigenvalue GAMMA=   0.5977
  0.6512  0.5443

 Free energy of the ion-electron system (eV)
  ---------------------------------------------------
  alpha Z        PSCENC =        41.04343999
  Ewald energy   TEWEN  =     49286.18076244
  -Hartree energ DENC   =    -56768.67098772
  -exchange      EXHF   =         0.00000000
  -V(xc)+E(xc)   XCENC  =      -376.34947939
  PAW double counting   =     43041.67948413   -42224.33333263
  entropy T*S    EENTRO =        -0.24219783
  eigenvalues    EBANDS =     -2347.64826313
  atomic energy  EATOM  =      8563.87579245
  Solvation  Ediel_sol  =         0.00000000
  ---------------------------------------------------
  free energy    TOTEN  =      -784.46478169 eV

  energy without entropy =     -784.22258386  energy(sigma->0) =     -784.34368277


--------------------------------------------------------------------------------------------------------




--------------------------------------- Iteration      1(   4)  ---------------------------------------


    POTLOK:  cpu time      2.1299: real time      2.1514
    SETDIJ:  cpu time      1.6312: real time      1.6320
    EDDIAG:  cpu time     35.8176: real time     35.8388
     EDDAV:  cpu time    179.1774: real time    179.2836
       DOS:  cpu time      0.0036: real time      0.0036
    CHARGE:  cpu time     20.9779: real time     20.9966
    MIXING:  cpu time      0.0417: real time      0.0417
    --------------------------------------------
      LOOP:  cpu time    239.7792: real time    239.9476

 eigenvalue-minimisations  :  2048
 total energy-change (2. order) : 0.2789390E+00  (-0.2601949E+00)
 number of electron     336.9999999 magnetization 
 augmentation part      -18.5981445 magnetization 

 Broyden mixing:
  rms(total) = 0.23393E+00    rms(broyden)= 0.54675E+01
  rms(prec ) = 0.42378E+00
  weight for this iteration     100.00
  WARNING: grid for Broyden might be to small

 eigenvalues of (default mixing * dielectric matrix)
  average eigenvalue GAMMA=   0.8059
  1.3685  0.6291  0.4201

 Free energy of the ion-electron system (eV)
  ---------------------------------------------------
  alpha Z        PSCENC =        41.04343999
  Ewald energy   TEWEN  =     49286.18076244
  -Hartree energ DENC   =    -56770.74473833
  -exchange      EXHF   =         0.00000000
  -V(xc)+E(xc)   XCENC  =      -377.20320384
  PAW double counting   =     47834.23114626   -47016.95279082
  entropy T*S    EENTRO =        -0.22175261
  eigenvalues    EBANDS =     -2344.39449826
  atomic energy  EATOM  =      8563.87579245
  Solvation  Ediel_sol  =         0.00000000
  ---------------------------------------------------
  free energy    TOTEN  =      -784.18584272 eV

  energy without entropy =     -783.96409011  energy(sigma->0) =     -784.07496642


--------------------------------------------------------------------------------------------------------




--------------------------------------- Iteration      1(   5)  ---------------------------------------


    POTLOK:  cpu time      2.1319: real time      2.1537
    SETDIJ:  cpu time      1.6358: real time      1.6366
    EDDIAG:  cpu time     35.7460: real time     35.7684
     EDDAV:  cpu time    174.8862: real time    174.9843
       DOS:  cpu time      0.0028: real time      0.0028
    CHARGE:  cpu time     20.9932: real time     21.0116
    MIXING:  cpu time      0.0422: real time      0.0422
    --------------------------------------------
      LOOP:  cpu time    235.4379: real time    235.5995

 eigenvalue-minimisations  :  1968
 total energy-change (2. order) : 0.2156085E+00  (-0.1253008E+00)
 number of electron     336.9999999 magnetization 
 augmentation part      -18.6047937 magnetization 

 Broyden mixing:
  rms(total) = 0.82912E-01    rms(broyden)= 0.10620E+01
  rms(prec ) = 0.11867E+00
  weight for this iteration     100.00
  WARNING: grid for Broyden might be to small

 eigenvalues of (default mixing * dielectric matrix)
  average eigenvalue GAMMA=   0.9532
  2.1819  0.7088  0.6124  0.3095

 Free energy of the ion-electron system (eV)
  ---------------------------------------------------
  alpha Z        PSCENC =        41.04343999
  Ewald energy   TEWEN  =     49286.18076244
  -Hartree energ DENC   =    -56769.88641737
  -exchange      EXHF   =         0.00000000
  -V(xc)+E(xc)   XCENC  =      -377.97012165
  PAW double counting   =     48572.11179360   -47754.82784591
  entropy T*S    EENTRO =        -0.23299835
  eigenvalues    EBANDS =     -2344.26463937
  atomic energy  EATOM  =      8563.87579245
  Solvation  Ediel_sol  =         0.00000000
  ---------------------------------------------------
  free energy    TOTEN  =      -783.97023417 eV

  energy without entropy =     -783.73723582  energy(sigma->0) =     -783.85373500


--------------------------------------------------------------------------------------------------------




--------------------------------------- Iteration      1(   6)  ---------------------------------------


    POTLOK:  cpu time      2.1376: real time      2.1575
    SETDIJ:  cpu time      1.6307: real time      1.6319
    EDDIAG:  cpu time     35.7526: real time     35.7741
     EDDAV:  cpu time    167.2781: real time    167.3706
       DOS:  cpu time      0.0026: real time      0.0026
    CHARGE:  cpu time     20.9647: real time     20.9840
    MIXING:  cpu time      0.0436: real time      0.0436
    --------------------------------------------
      LOOP:  cpu time    227.8098: real time    227.9644

 eigenvalue-minimisations  :  1824
 total energy-change (2. order) :-0.1934019E-01  (-0.3581095E-01)
 number of electron     336.9999999 magnetization 
 augmentation part      -18.6084771 magnetization 

 Broyden mixing:
  rms(total) = 0.75322E-01    rms(broyden)= 0.57565E+00
  rms(prec ) = 0.92058E-01
  weight for this iteration     100.00
  WARNING: grid for Broyden might be to small

 eigenvalues of (default mixing * dielectric matrix)
  average eigenvalue GAMMA=   0.8566
  2.3021  0.6595  0.5268  0.5268  0.2678

 Free energy of the ion-electron system (eV)
  ---------------------------------------------------
  alpha Z        PSCENC =        41.04343999
  Ewald energy   TEWEN  =     49286.18076244
  -Hartree energ DENC   =    -56768.51072506
  -exchange      EXHF   =         0.00000000
  -V(xc)+E(xc)   XCENC  =      -378.19236640
  PAW double counting   =     48242.78414807   -47425.47914988
  entropy T*S    EENTRO =        -0.22958216
  eigenvalues    EBANDS =     -2345.46189381
  atomic energy  EATOM  =      8563.87579245
  Solvation  Ediel_sol  =         0.00000000
  ---------------------------------------------------
  free energy    TOTEN  =      -783.98957436 eV

  energy without entropy =     -783.75999220  energy(sigma->0) =     -783.87478328


--------------------------------------------------------------------------------------------------------




--------------------------------------- Iteration      1(   7)  ---------------------------------------


    POTLOK:  cpu time      2.1422: real time      2.1599
    SETDIJ:  cpu time      1.6323: real time      1.6334
    EDDIAG:  cpu time     35.7732: real time     35.7953
     EDDAV:  cpu time    168.6814: real time    168.7776
       DOS:  cpu time      0.0062: real time      0.0062
    CHARGE:  cpu time     20.9844: real time     21.0035
    MIXING:  cpu time      0.0437: real time      0.0437
    --------------------------------------------
      LOOP:  cpu time    229.2633: real time    229.4196

 eigenvalue-minimisations  :  1848
 total energy-change (2. order) :-0.2809278E-02  (-0.5051540E-02)
 number of electron     336.9999999 magnetization 
 augmentation part      -18.6053734 magnetization 

 Broyden mixing:
  rms(total) = 0.28659E-01    rms(broyden)= 0.31461E+00
  rms(prec ) = 0.32473E-01
  weight for this iteration     100.00
  WARNING: grid for Broyden might be to small

 eigenvalues of (default mixing * dielectric matrix)
  average eigenvalue GAMMA=   0.8848
  2.5573  0.8664  0.6244  0.5213  0.3079  0.4315

 Free energy of the ion-electron system (eV)
  ---------------------------------------------------
  alpha Z        PSCENC =        41.04343999
  Ewald energy   TEWEN  =     49286.18076244
  -Hartree energ DENC   =    -56768.77310862
  -exchange      EXHF   =         0.00000000
  -V(xc)+E(xc)   XCENC  =      -378.24441738
  PAW double counting   =     48266.76458036   -47449.45498067
  entropy T*S    EENTRO =        -0.22926941
  eigenvalues    EBANDS =     -2345.15518281
  atomic energy  EATOM  =      8563.87579245
  Solvation  Ediel_sol  =         0.00000000
  ---------------------------------------------------
  free energy    TOTEN  =      -783.99238364 eV

  energy without entropy =     -783.76311423  energy(sigma->0) =     -783.87774893


--------------------------------------------------------------------------------------------------------




--------------------------------------- Iteration      1(   8)  ---------------------------------------


    POTLOK:  cpu time      2.1374: real time      2.1587
    SETDIJ:  cpu time      1.6334: real time      1.6342
    EDDIAG:  cpu time     35.8463: real time     35.8702
     EDDAV:  cpu time    171.5126: real time    171.6118
       DOS:  cpu time      0.0034: real time      0.0034
    CHARGE:  cpu time     20.9814: real time     21.0001
    MIXING:  cpu time      0.0444: real time      0.0444
    --------------------------------------------
      LOOP:  cpu time    232.1589: real time    232.3227

 eigenvalue-minimisations  :  1896
 total energy-change (2. order) : 0.3899108E-02  (-0.1803455E-02)
 number of electron     336.9999999 magnetization 
 augmentation part      -18.6048367 magnetization 

 Broyden mixing:
  rms(total) = 0.18392E-01    rms(broyden)= 0.97541E-01
  rms(prec ) = 0.19782E-01
  weight for this iteration     100.00
  WARNING: grid for Broyden might be to small

 eigenvalues of (default mixing * dielectric matrix)
  average eigenvalue GAMMA=   0.8915
  2.5773  1.0148  0.7137  0.6368  0.5814  0.3008  0.4160

 Free energy of the ion-electron system (eV)
  ---------------------------------------------------
  alpha Z        PSCENC =        41.04343999
  Ewald energy   TEWEN  =     49286.18076244
  -Hartree energ DENC   =    -56767.71117133
  -exchange      EXHF   =         0.00000000
  -V(xc)+E(xc)   XCENC  =      -378.14679528
  PAW double counting   =     48225.42371470   -47408.10267831
  entropy T*S    EENTRO =        -0.22828447
  eigenvalues    EBANDS =     -2346.32326472
  atomic energy  EATOM  =      8563.87579245
  Solvation  Ediel_sol  =         0.00000000
  ---------------------------------------------------
  free energy    TOTEN  =      -783.98848453 eV

  energy without entropy =     -783.76020006  energy(sigma->0) =     -783.87434229


--------------------------------------------------------------------------------------------------------




--------------------------------------- Iteration      1(   9)  ---------------------------------------


    POTLOK:  cpu time      2.1338: real time      2.1523
    SETDIJ:  cpu time      1.6396: real time      1.6403
    EDDIAG:  cpu time     35.8450: real time     35.8683
     EDDAV:  cpu time    174.4221: real time    174.5255
       DOS:  cpu time      0.0026: real time      0.0026
    CHARGE:  cpu time     20.9920: real time     21.0103
    MIXING:  cpu time      0.0459: real time      0.0459
    --------------------------------------------
      LOOP:  cpu time    235.0812: real time    235.2453

 eigenvalue-minimisations  :  1952
 total energy-change (2. order) :-0.8495628E-03  (-0.4090370E-03)
 number of electron     336.9999999 magnetization 
 augmentation part      -18.6034790 magnetization 

 Broyden mixing:
  rms(total) = 0.10795E-01    rms(broyden)= 0.84918E-01
  rms(prec ) = 0.12625E-01
  weight for this iteration     100.00
  WARNING: grid for Broyden might be to small

 eigenvalues of (default mixing * dielectric matrix)
  average eigenvalue GAMMA=   0.8848
  2.5897  1.2356  0.7134  0.2997  0.6069  0.6069  0.5301  0.4964

 Free energy of the ion-electron system (eV)
  ---------------------------------------------------
  alpha Z        PSCENC =        41.04343999
  Ewald energy   TEWEN  =     49286.18076244
  -Hartree energ DENC   =    -56767.23853701
  -exchange      EXHF   =         0.00000000
  -V(xc)+E(xc)   XCENC  =      -377.99137884
  PAW double counting   =     48250.73444992   -47433.40330486
  entropy T*S    EENTRO =        -0.22875884
  eigenvalues    EBANDS =     -2346.96179934
  atomic energy  EATOM  =      8563.87579245
  Solvation  Ediel_sol  =         0.00000000
  ---------------------------------------------------
  free energy    TOTEN  =      -783.98933409 eV

  energy without entropy =     -783.76057525  energy(sigma->0) =     -783.87495467


--------------------------------------------------------------------------------------------------------




--------------------------------------- Iteration      1(  10)  ---------------------------------------


    POTLOK:  cpu time      2.1394: real time      2.1563
    SETDIJ:  cpu time      1.6415: real time      1.6428
    EDDIAG:  cpu time     35.8597: real time     35.8821
     EDDAV:  cpu time    169.1078: real time    169.2031
       DOS:  cpu time      0.0020: real time      0.0020
    CHARGE:  cpu time     20.9949: real time     21.0155
    MIXING:  cpu time      0.0454: real time      0.0455
    --------------------------------------------
      LOOP:  cpu time    229.7906: real time    229.9471

 eigenvalue-minimisations  :  1856
 total energy-change (2. order) :-0.4608528E-03  (-0.1903575E-03)
 number of electron     336.9999999 magnetization 
 augmentation part      -18.6030931 magnetization 

 Broyden mixing:
  rms(total) = 0.63921E-02    rms(broyden)= 0.49355E-01
  rms(prec ) = 0.81264E-02
  weight for this iteration     100.00
  WARNING: grid for Broyden might be to small

 eigenvalues of (default mixing * dielectric matrix)
  average eigenvalue GAMMA=   0.9903
  2.5700  2.0500  1.0561  0.2998  0.7493  0.4907  0.4907  0.6033  0.6033

 Free energy of the ion-electron system (eV)
  ---------------------------------------------------
  alpha Z        PSCENC =        41.04343999
  Ewald energy   TEWEN  =     49286.18076244
  -Hartree energ DENC   =    -56766.85894845
  -exchange      EXHF   =         0.00000000
  -V(xc)+E(xc)   XCENC  =      -377.92607230
  PAW double counting   =     48254.93272241   -47437.59322848
  entropy T*S    EENTRO =        -0.22833577
  eigenvalues    EBANDS =     -2347.41592724
  atomic energy  EATOM  =      8563.87579245
  Solvation  Ediel_sol  =         0.00000000
  ---------------------------------------------------
  free energy    TOTEN  =      -783.98979494 eV

  energy without entropy =     -783.76145917  energy(sigma->0) =     -783.87562706


--------------------------------------------------------------------------------------------------------




--------------------------------------- Iteration      1(  11)  ---------------------------------------


    POTLOK:  cpu time      2.1527: real time      2.1541
    SETDIJ:  cpu time      1.6404: real time      1.6413
    EDDIAG:  cpu time     35.8475: real time     35.8716
     EDDAV:  cpu time    170.9752: real time    171.0749
       DOS:  cpu time      0.0021: real time      0.0021
    CHARGE:  cpu time     20.9843: real time     21.0031
    MIXING:  cpu time      0.0478: real time      0.0478
    --------------------------------------------
      LOOP:  cpu time    231.6500: real time    231.7948

 eigenvalue-minimisations  :  1888
 total energy-change (2. order) : 0.5105768E-04  (-0.4813293E-04)
 number of electron     336.9999999 magnetization 
 augmentation part      -18.6030829 magnetization 

 Broyden mixing:
  rms(total) = 0.21212E-02    rms(broyden)= 0.14486E-01
  rms(prec ) = 0.27251E-02
  weight for this iteration     100.00
  WARNING: grid for Broyden might be to small

 eigenvalues of (default mixing * dielectric matrix)
  average eigenvalue GAMMA=   1.0125
  2.5160  2.5160  1.1392  0.7861  0.2997  0.6615  0.6615  0.5914  0.4769  0.4769

 Free energy of the ion-electron system (eV)
  ---------------------------------------------------
  alpha Z        PSCENC =        41.04343999
  Ewald energy   TEWEN  =     49286.18076244
  -Hartree energ DENC   =    -56766.69205974
  -exchange      EXHF   =         0.00000000
  -V(xc)+E(xc)   XCENC  =      -377.93669179
  PAW double counting   =     48255.68787365   -47438.34629173
  entropy T*S    EENTRO =        -0.22887314
  eigenvalues    EBANDS =     -2347.57369603
  atomic energy  EATOM  =      8563.87579245
  Solvation  Ediel_sol  =         0.00000000
  ---------------------------------------------------
  free energy    TOTEN  =      -783.98974389 eV

  energy without entropy =     -783.76087075  energy(sigma->0) =     -783.87530732


--------------------------------------------------------------------------------------------------------




--------------------------------------- Iteration      1(  12)  ---------------------------------------


    POTLOK:  cpu time      2.1396: real time      2.1591
    SETDIJ:  cpu time      1.6350: real time      1.6359
    EDDIAG:  cpu time     35.8233: real time     35.8461
     EDDAV:  cpu time    168.3591: real time    168.4580
       DOS:  cpu time      0.0025: real time      0.0025
    CHARGE:  cpu time     20.9859: real time     21.0049
    MIXING:  cpu time      0.0469: real time      0.0469
    --------------------------------------------
      LOOP:  cpu time    228.9924: real time    229.1534

 eigenvalue-minimisations  :  1840
 total energy-change (2. order) :-0.5030379E-06  (-0.6033857E-04)
 number of electron     336.9999999 magnetization 
 augmentation part      -18.6031233 magnetization 

 Broyden mixing:
  rms(total) = 0.17627E-02    rms(broyden)= 0.10986E-01
  rms(prec ) = 0.23419E-02
  weight for this iteration     100.00
  WARNING: grid for Broyden might be to small

 eigenvalues of (default mixing * dielectric matrix)
  average eigenvalue GAMMA=   0.9937
  2.5817  2.5817  1.1241  0.7450  0.7450  0.7529  0.2997  0.6197  0.4735  0.4735
  0.5339

 Free energy of the ion-electron system (eV)
  ---------------------------------------------------
  alpha Z        PSCENC =        41.04343999
  Ewald energy   TEWEN  =     49286.18076244
  -Hartree energ DENC   =    -56766.48318596
  -exchange      EXHF   =         0.00000000
  -V(xc)+E(xc)   XCENC  =      -377.94128742
  PAW double counting   =     48252.38090329   -47435.03820613
  entropy T*S    EENTRO =        -0.22864518
  eigenvalues    EBANDS =     -2347.77931787
  atomic energy  EATOM  =      8563.87579245
  Solvation  Ediel_sol  =         0.00000000
  ---------------------------------------------------
  free energy    TOTEN  =      -783.98974439 eV

  energy without entropy =     -783.76109921  energy(sigma->0) =     -783.87542180


--------------------------------------------------------------------------------------------------------




--------------------------------------- Iteration      1(  13)  ---------------------------------------


    POTLOK:  cpu time      2.1425: real time      2.1595
    SETDIJ:  cpu time      1.6260: real time      1.6270
    EDDIAG:  cpu time     35.8647: real time     35.8876
     EDDAV:  cpu time    166.2233: real time    166.3194
       DOS:  cpu time      0.0021: real time      0.0021
    CHARGE:  cpu time     20.9840: real time     21.0028
    MIXING:  cpu time      0.0485: real time      0.0485
    --------------------------------------------
      LOOP:  cpu time    226.8910: real time    227.0469

 eigenvalue-minimisations  :  1800
 total energy-change (2. order) :-0.1215348E-03  (-0.3009439E-04)
 number of electron     336.9999999 magnetization 
 augmentation part      -18.6032651 magnetization 

 Broyden mixing:
  rms(total) = 0.81804E-03    rms(broyden)= 0.70368E-02
  rms(prec ) = 0.10820E-02
  weight for this iteration     100.00
  WARNING: grid for Broyden might be to small

 eigenvalues of (default mixing * dielectric matrix)
  average eigenvalue GAMMA=   1.0334
  2.7282  2.7282  1.1746  1.1746  0.8923  0.2998  0.6479  0.6479  0.4640  0.4640
  0.6020  0.5774

 Free energy of the ion-electron system (eV)
  ---------------------------------------------------
  alpha Z        PSCENC =        41.04343999
  Ewald energy   TEWEN  =     49286.18076244
  -Hartree energ DENC   =    -56766.18619369
  -exchange      EXHF   =         0.00000000
  -V(xc)+E(xc)   XCENC  =      -377.94813704
  PAW double counting   =     48249.05053270   -47431.70717690
  entropy T*S    EENTRO =        -0.22862051
  eigenvalues    EBANDS =     -2348.07026537
  atomic energy  EATOM  =      8563.87579245
  Solvation  Ediel_sol  =         0.00000000
  ---------------------------------------------------
  free energy    TOTEN  =      -783.98986592 eV

  energy without entropy =     -783.76124541  energy(sigma->0) =     -783.87555567


--------------------------------------------------------------------------------------------------------




--------------------------------------- Iteration      1(  14)  ---------------------------------------


    POTLOK:  cpu time      2.1555: real time      2.1566
    SETDIJ:  cpu time      1.6292: real time      1.6301
    EDDIAG:  cpu time     35.8657: real time     35.8863
     EDDAV:  cpu time    165.7399: real time    165.8328
       DOS:  cpu time      0.0026: real time      0.0026
    CHARGE:  cpu time     20.9769: real time     20.9950
    MIXING:  cpu time      0.0489: real time      0.0489
    --------------------------------------------
      LOOP:  cpu time    226.4186: real time    226.5522

 eigenvalue-minimisations  :  1792
 total energy-change (2. order) :-0.1732172E-03  (-0.1937056E-04)
 number of electron     336.9999999 magnetization 
 augmentation part      -18.6033340 magnetization 

 Broyden mixing:
  rms(total) = 0.71566E-03    rms(broyden)= 0.80729E-02
  rms(prec ) = 0.96888E-03
  weight for this iteration     100.00
  WARNING: grid for Broyden might be to small

 eigenvalues of (default mixing * dielectric matrix)
  average eigenvalue GAMMA=   1.0472
  2.7578  2.7578  1.4663  1.0643  0.8918  0.8918  0.2998  0.7944  0.4695  0.4695
  0.6030  0.5739  0.5739

 Free energy of the ion-electron system (eV)
  ---------------------------------------------------
  alpha Z        PSCENC =        41.04343999
  Ewald energy   TEWEN  =     49286.18076244
  -Hartree energ DENC   =    -56765.91443178
  -exchange      EXHF   =         0.00000000
  -V(xc)+E(xc)   XCENC  =      -377.95225437
  PAW double counting   =     48248.72099435   -47431.37744009
  entropy T*S    EENTRO =        -0.22860432
  eigenvalues    EBANDS =     -2348.33829780
  atomic energy  EATOM  =      8563.87579245
  Solvation  Ediel_sol  =         0.00000000
  ---------------------------------------------------
  free energy    TOTEN  =      -783.99003914 eV

  energy without entropy =     -783.76143482  energy(sigma->0) =     -783.87573698


--------------------------------------------------------------------------------------------------------




--------------------------------------- Iteration      1(  15)  ---------------------------------------


    POTLOK:  cpu time      2.1366: real time      2.1554
    SETDIJ:  cpu time      1.6399: real time      1.6409
    EDDIAG:  cpu time     35.8551: real time     35.8779
     EDDAV:  cpu time    165.0393: real time    165.1296
       DOS:  cpu time      0.0042: real time      0.0042
    CHARGE:  cpu time     20.9698: real time     20.9872
    MIXING:  cpu time      0.0501: real time      0.0501
    --------------------------------------------
      LOOP:  cpu time    225.6950: real time    225.8455

 eigenvalue-minimisations  :  1776
 total energy-change (2. order) :-0.1105329E-03  (-0.1219664E-04)
 number of electron     336.9999999 magnetization 
 augmentation part      -18.6033743 magnetization 

 Broyden mixing:
  rms(total) = 0.26321E-03    rms(broyden)= 0.90069E-03
  rms(prec ) = 0.42218E-03
  weight for this iteration     100.00
  WARNING: grid for Broyden might be to small

 eigenvalues of (default mixing * dielectric matrix)
  average eigenvalue GAMMA=   1.0676
  2.8220  2.8220  1.8147  1.0461  1.0461  1.0011  0.2998  0.7058  0.6618  0.6618
  0.6185  0.4706  0.4706  0.5061

 Free energy of the ion-electron system (eV)
  ---------------------------------------------------
  alpha Z        PSCENC =        41.04343999
  Ewald energy   TEWEN  =     49286.18076244
  -Hartree energ DENC   =    -56765.72840893
  -exchange      EXHF   =         0.00000000
  -V(xc)+E(xc)   XCENC  =      -377.95633810
  PAW double counting   =     48248.59996423   -47431.25656638
  entropy T*S    EENTRO =        -0.22862964
  eigenvalues    EBANDS =     -2348.52016574
  atomic energy  EATOM  =      8563.87579245
  Solvation  Ediel_sol  =         0.00000000
  ---------------------------------------------------
  free energy    TOTEN  =      -783.99014967 eV

  energy without entropy =     -783.76152004  energy(sigma->0) =     -783.87583486


--------------------------------------------------------------------------------------------------------




--------------------------------------- Iteration      1(  16)  ---------------------------------------


    POTLOK:  cpu time      2.1730: real time      2.1746
    SETDIJ:  cpu time      1.6262: real time      1.6276
    EDDIAG:  cpu time     35.8895: real time     35.9133
     EDDAV:  cpu time    166.2604: real time    166.3590
       DOS:  cpu time      0.0028: real time      0.0028
    CHARGE:  cpu time     20.9967: real time     21.0152
    MIXING:  cpu time      0.0502: real time      0.0502
    --------------------------------------------
      LOOP:  cpu time    226.9989: real time    227.1428

 eigenvalue-minimisations  :  1800
 total energy-change (2. order) :-0.1005454E-03  (-0.1209753E-04)
 number of electron     336.9999999 magnetization 
 augmentation part      -18.6034100 magnetization 

 Broyden mixing:
  rms(total) = 0.22512E-03    rms(broyden)= 0.18660E-02
  rms(prec ) = 0.34796E-03
[...]
   0.154E+02 0.117E+02 -.212E+03   -.157E+02 -.109E+02 0.210E+03   -.111E+01 -.307E+00 0.223E+01   0.399E-04 -.123E-04 -.138E-04
   0.191E+01 0.507E+01 -.101E+03   -.255E+01 -.449E+01 0.987E+02   0.802E+00 0.948E+00 0.245E+01   -.379E-05 0.308E-04 -.190E-04
   0.100E+02 -.159E+02 0.140E+03   -.898E+01 0.145E+02 -.138E+03   -.100E+01 0.289E+01 -.312E+01   -.540E-05 -.444E-04 -.892E-04
   0.613E+01 -.218E+02 0.266E+02   -.729E+01 0.200E+02 -.270E+02   0.791E+00 0.251E+01 -.533E+00   -.187E-04 -.568E-04 -.493E-04
   0.193E+02 -.102E+02 -.102E+03   -.196E+02 0.826E+01 0.103E+03   0.284E+00 0.281E+01 -.142E+00   -.129E-04 -.325E-04 -.609E-04
   -.210E+02 -.200E+02 -.376E+01   0.221E+02 0.189E+02 0.388E+01   -.708E+00 0.152E+01 0.394E+00   0.579E-05 0.776E-04 -.752E-04
   0.262E+02 0.440E+01 0.140E+03   -.253E+02 -.413E+01 -.138E+03   -.202E+01 -.431E+00 -.298E+01   0.592E-05 0.397E-04 -.100E-03
   0.614E+01 0.123E+02 0.280E+03   -.320E+01 -.115E+02 -.277E+03   -.364E+01 -.211E+01 -.388E+01   0.217E-04 0.331E-04 -.988E-04
   -.288E+02 -.924E+00 0.451E+01   0.267E+02 0.177E+01 -.524E+01   0.304E+01 -.135E+01 0.174E+01   -.132E-04 -.331E-04 -.745E-04
   0.380E+02 -.303E+01 0.355E+03   -.412E+02 0.348E+01 -.357E+03   0.256E+01 -.104E+01 0.130E+01   0.239E-04 -.238E-04 -.829E-04
   0.573E+01 -.633E+01 0.200E+03   -.666E+01 0.751E+01 -.200E+03   0.162E+01 -.727E+00 0.382E-01   0.140E-04 -.447E-04 -.985E-04
   -.795E+00 0.171E+02 -.274E+02   0.737E+00 -.156E+02 0.271E+02   0.353E-01 -.212E+01 -.188E+00   0.262E-04 0.667E-04 -.102E-03
   0.891E+01 -.926E+00 -.673E+02   -.913E+01 0.272E+01 0.660E+02   0.615E+00 -.214E+01 0.239E+01   -.291E-05 -.511E-04 -.268E-04
   -.207E+02 0.753E-01 -.265E+03   0.181E+02 0.254E+00 0.261E+03   0.263E+01 0.711E+00 0.465E+01   0.362E-04 0.114E-04 0.287E-04
   0.202E+01 0.856E+01 -.298E+03   -.662E+00 -.721E+01 0.295E+03   -.197E+01 -.182E+01 0.333E+01   -.127E-04 0.745E-05 0.489E-04
   0.285E+01 -.454E+01 0.236E+03   -.136E+01 0.402E+01 -.235E+03   -.184E+01 0.937E+00 0.783E-01   0.480E-05 -.812E-04 -.135E-03
   0.345E+02 -.933E+01 -.146E+03   -.344E+02 0.103E+02 0.143E+03   -.519E+00 -.129E+01 0.190E+01   -.438E-04 -.573E-04 -.158E-04
   0.219E+02 -.214E+02 0.284E+03   -.216E+02 0.211E+02 -.285E+03   -.140E+01 -.397E+00 0.298E+00   0.136E-04 -.543E-04 -.997E-04
   0.157E+02 -.214E+02 -.327E+03   -.168E+02 0.185E+02 0.324E+03   0.111E+01 0.256E+01 0.193E+01   -.261E-04 -.180E-06 0.179E-04
   -.105E+02 -.950E+01 0.422E+02   0.116E+02 0.813E+01 -.425E+02   -.142E+01 0.100E+01 0.168E+00   0.558E-04 0.101E-03 -.147E-03
   -.132E+02 0.333E+01 0.338E+03   0.128E+02 -.368E+01 -.335E+03   0.938E+00 0.979E+00 -.237E+01   -.704E-05 -.144E-03 -.980E-04
   0.228E+02 -.199E+02 -.334E+03   -.213E+02 0.194E+02 0.333E+03   -.267E+01 0.701E-01 0.122E+01   -.377E-04 -.284E-04 0.526E-04
   -.177E+02 -.452E+01 0.321E+03   0.182E+02 0.309E+01 -.321E+03   -.591E+00 0.303E+01 0.541E-01   -.824E-06 0.571E-04 -.423E-03
   -.110E+02 0.768E+01 0.335E+03   0.858E+01 -.622E+01 -.334E+03   0.259E+01 -.484E+00 -.779E+00   0.165E-03 -.467E-04 -.122E-03
   0.300E+02 0.826E+01 -.357E+03   -.303E+02 -.968E+01 0.357E+03   0.321E+00 0.215E+01 0.187E+01   -.215E-04 -.142E-04 0.635E-04
   -.397E+02 -.210E+02 -.250E+03   0.380E+02 0.203E+02 0.248E+03   0.332E+01 0.180E+00 0.145E+01   -.326E-05 0.378E-04 0.333E-04
   -.217E+02 0.863E+01 -.282E+03   0.217E+02 -.101E+02 0.282E+03   -.645E-02 0.903E+00 0.143E+01   -.678E-04 -.269E-04 0.242E-04
   -.140E+02 0.167E+02 0.322E+03   0.144E+02 -.181E+02 -.324E+03   -.847E-01 0.553E+00 0.106E+01   -.177E-04 0.430E-04 -.737E-04
   -.167E+02 -.203E+02 0.102E+03   0.154E+02 0.198E+02 -.103E+03   0.235E+01 0.587E+00 0.322E+01   -.498E-05 0.538E-04 -.101E-03
   -.260E+02 0.255E+02 -.331E+03   0.271E+02 -.256E+02 0.330E+03   -.145E+01 0.991E+00 0.142E+01   -.491E-04 -.140E-04 0.461E-05
   0.534E+01 0.150E+02 -.235E+03   -.408E+01 -.146E+02 0.232E+03   -.140E+01 -.178E+01 0.380E+01   0.417E-04 -.315E-04 -.173E-04
   0.277E+02 0.125E+02 -.184E+03   -.269E+02 -.123E+02 0.188E+03   -.203E+01 -.104E+01 -.444E+01   -.456E-05 0.290E-04 0.132E-04
   0.314E+01 -.537E+01 -.324E+03   -.367E+01 0.796E+01 0.329E+03   0.150E+01 -.206E+01 -.401E+01   -.289E-04 0.187E-06 0.718E-04
   -.339E+02 0.329E+02 -.248E+03   0.339E+02 -.334E+02 0.246E+03   0.390E+00 0.145E+01 0.211E+01   0.661E-05 -.636E-04 -.148E-04
   -.111E+02 0.549E+01 0.224E+03   0.107E+02 -.408E+01 -.225E+03   0.785E-01 -.102E+01 0.842E+00   -.167E-04 -.188E-03 -.132E-03
   -.854E+01 -.626E+01 0.131E+03   0.719E+01 0.456E+01 -.130E+03   0.977E+00 0.253E+01 -.215E+01   -.605E-05 0.137E-04 -.965E-04
   -.220E+01 0.382E+01 -.276E+03   0.231E+01 -.472E+01 0.276E+03   0.274E+00 0.163E+01 0.273E+00   0.195E-04 0.344E-04 0.484E-04
   0.200E+02 0.476E+01 -.113E+03   -.192E+02 -.373E+01 0.113E+03   -.767E+00 -.148E+01 0.129E+01   -.681E-05 0.371E-04 0.184E-04
   -.279E+02 -.941E+01 0.293E+03   0.243E+02 0.898E+01 -.289E+03   0.382E+01 -.262E+00 -.294E+01   0.121E-03 0.169E-03 -.154E-03
   0.143E+02 -.334E+01 -.217E+03   -.140E+02 0.219E+01 0.216E+03   -.825E+00 0.163E+01 0.108E+01   0.294E-04 -.117E-04 0.391E-04
   0.315E+02 0.809E+01 0.989E+02   -.305E+02 -.874E+01 -.100E+03   -.190E+01 0.141E+01 -.581E-01   -.167E-04 0.402E-04 -.766E-04
   0.145E+02 0.269E+01 -.334E+03   -.147E+02 -.281E+01 0.338E+03   0.179E-01 0.117E+00 -.443E+01   0.287E-04 -.269E-04 0.423E-04
   0.228E+02 0.904E+01 0.152E+03   -.217E+02 -.769E+01 -.152E+03   -.187E+01 -.951E+00 -.178E+00   -.729E-04 0.315E-08 -.151E-03
   0.425E+02 -.315E+02 -.247E+03   -.405E+02 0.304E+02 0.245E+03   -.257E+01 0.754E+00 0.573E+00   -.777E-05 0.391E-04 0.178E-04
 -----------------------------------------------------------------------------------------------
   -.705E+01 -.348E+01 -.518E+01   0.156E-12 -.639E-13 -.369E-12   0.705E+01 0.348E+01 0.519E+01   0.725E-04 0.835E-04 -.571E-02


 POSITION                                       TOTAL-FORCE (eV/Angst)
 -----------------------------------------------------------------------------------
      9.01262     12.95290     11.19640        -0.711608      0.143887     -0.160525
      9.13016      0.84080     10.90136         0.004847     -0.273712      0.139323
      7.26969     10.90830     10.48702         0.224992      0.007308     -0.142032
      7.67105     11.02400     11.10591         0.241550      0.139925     -0.050463
      7.08135     14.07880     10.74001        -0.391880     -0.789398      0.001537
      8.80607     13.95280     12.89024         0.339827      0.201053     -0.555587
      9.61821      2.79189     10.99253         0.858792      0.694161      1.340750
      5.39531     14.06180     16.22840        -0.245804      0.308120     -0.112489
      9.47857      5.33194     10.06529        -0.293723      0.232294     -0.164853
     12.15240      0.58177     14.59818        -0.490665     -0.236606      0.261160
      2.58709      9.92434     11.46623        -0.209020     -0.636498      0.320952
      1.41597      5.49994     15.09939         0.399483      0.747938      1.415786
     10.39490      6.61796     16.86765        -0.089353     -0.972850     -0.401319
     10.26610     12.26110     10.99160         0.505432      1.353861     -1.199191
     10.96300      7.26494     12.93775         0.183547     -1.253343     -0.634708
      7.83038      1.84472     14.85572        -0.044635      0.400625     -0.437056
     12.90860      7.56397     14.18233        -0.103719     -0.527049     -0.241615
      3.21837      0.78067     12.03374        -0.020241      0.045315     -0.334289
      2.44092      3.82692     14.05291        -0.088796     -1.385312     -0.058127
      8.15088     13.02630     13.80166        -0.370577     -0.158958      0.233537
      0.71013      9.10389     17.20441        -0.434466     -0.494139     -0.159405
     10.61410      0.26778     16.50142         0.418020      0.099392     -0.383665
      4.87565     10.20680     11.01084        -0.303030     -0.216011     -0.238670
      6.35847      2.48320     11.43604        -0.075981     -1.134305     -0.926475
      6.69086     13.66400     16.80686        -0.751782     -0.741508      1.076822
      9.26566      3.56749     14.09109        -0.082316     -0.454874      0.667976
     14.53440     12.82450     16.47133         0.718087     -0.005582      0.104873
     13.81060     10.87170     17.26064         0.147486     -0.357336      0.010707
      7.70475      5.27457     13.86821        -0.068131     -0.655077     -0.790249
      4.72775      5.86557     11.67192        -0.025801     -0.211618      0.272625
      8.48378      7.75887     16.10836         0.764353      0.874659     -0.298945
     13.85940      2.29332     11.74219         1.757456      0.441264      0.395945
      5.83953      2.10252     13.66708         0.724158     -0.301780     -0.031500
      3.20854     13.20350     11.30577        -0.539632     -0.153869     -0.031517
     13.91220      4.66781     12.31963         0.232867     -0.482974     -2.403737
     12.63410     11.11310     13.99704        -0.944715     -1.001446      0.760476
     13.24570      9.19749     10.89183         0.417498      0.454497     -0.732243
     11.81490     13.94510     10.77812         0.115202     -0.381021      0.511512
      5.66515      9.42284     13.01809        -0.810491     -2.095300      0.097832
      1.15787      1.83063     14.59825         1.751947      0.184504      0.380058
     13.95890      9.27028     13.10274         0.152049      0.291880     -0.040302
      0.19504     13.09410     12.66137         0.667041      0.828791     -0.042310
     10.58540      3.13822     12.26464        -0.808140     -0.350461     -2.033259
     13.81770      5.45186     14.38789         0.438975      1.086974      0.390781
      8.45336     14.38190     15.68723         1.515363     -0.176696     -0.892651
      7.77591      8.25044     10.37620         0.774000      0.065651     -0.090167
     13.43380     13.20260     14.51540        -0.328609      0.361568      0.032888
     13.72380      2.11119     15.48249        -1.517533      0.512432      0.226862
      5.26436     10.96640     14.56498         0.202314      1.604565      0.540006
      1.37486      8.09163     12.64472         0.002386      1.632016     -1.474602
      4.82422      7.18256     13.60376        -0.369668      0.749642     -0.965727
      4.61033      3.63935     14.78652        -0.032235      1.078243      1.026048
      8.66117     10.69730     13.71256         0.405938      0.506017      0.540242
      1.00811      0.79723     12.59314        -1.238849     -0.166134     -0.853285
     11.01290      8.98265     11.37393        -0.795567     -1.362772     -0.980614
      8.80024      7.24550     13.81095         1.021984     -0.561635      1.106942
      2.20802      3.37122     10.00000        -0.267596     -0.655390     -0.460147
      2.73391      4.61586     11.88010         0.759352      0.430262     -0.125222
      4.50314      0.29174     13.96274        -0.032870     -0.636273     -0.499614
      2.62466      7.36785     14.31735         0.407820     -0.423189      1.180013
     12.12650      7.94295     16.21729         0.181859      1.102848      0.701533
      6.55184     11.39330     16.47328        -0.635735     -0.540327      0.254883
     11.69620      5.17616     11.80068        -0.418524      0.383558      0.704040
      5.75833      5.72379     15.09849        -0.394536     -0.358916     -0.683002
      1.06729      6.18309     11.35920        -1.088807     -0.780477     -0.127110
      4.79740      2.98354     17.03004         0.143598     -0.379252     -0.488633
      5.85781     13.00070     13.38692        -0.358978     -0.325711     -0.101829
      8.06900      5.88431     10.25512         0.659745      0.670812      0.548515
      6.57349      6.89055     16.96449        -1.185356     -0.458864      0.545405
      7.73056      0.76650     10.40813        -0.171994      1.702468     -0.006985
      4.15583      2.14051     10.45139         0.222671      0.936821      0.546061
      3.37212      1.28937     17.50082         0.177917      0.918406      2.054120
      8.37657     10.13800     15.99315         1.667099     -0.506083     -0.256384
      7.81143      4.82293     16.35656        -0.106941     -0.527767      0.996012
     13.86210     12.96860     10.54636         0.157841     -0.768487     -0.190178
     10.68120     10.81600     12.58067         1.116328      0.150853      1.740065
      7.14737      2.59593     16.91957        -0.489241      1.061967      0.851418
     12.69680      4.18046     15.80130        -0.204572     -1.526854      1.134272
      2.89641      0.30225     15.63515        -1.244669     -0.857110     -1.443569
      4.57246      8.50708     17.28347         1.024808      0.365495      0.442342
     10.33890      4.26811     16.08885         0.367492      1.160556      0.316053
      6.77151      4.71553     11.68034        -0.393412      0.328892     -0.179066
      7.78939      8.78927     12.65325        -0.331059      0.979768     -1.170458
      2.24746     12.70050     16.37153         0.288668      0.891816     -0.152753
      3.00428     11.18190     14.79331        -0.015196     -0.528266      1.414509
      5.31236     12.51110     11.15307         0.278846     -0.786354      0.308674
      2.73381      9.04778     15.88717        -0.648613      0.569233      0.088758
      2.13649     11.73350     12.80491        -0.976109      0.844078     -1.335816
      1.35977      4.75503     17.36695        -0.091532      0.060447     -0.567621
     11.93910      1.18960     12.25929        -0.742011      0.401303      0.517804
     11.82590     10.29460     16.23771        -0.454923     -0.408582     -0.550153
 -----------------------------------------------------------------------------------
    total drift:                               -0.007387     -0.005134      0.010081


--------------------------------------------------------------------------------------------------------



  FREE ENERGIE OF THE ION-ELECTRON SYSTEM (eV)
  ---------------------------------------------------
  free  energy   TOTEN  =      -783.99047866 eV

  energy  without entropy=     -783.76184579  energy(sigma->0) =     -783.87616223



--------------------------------------------------------------------------------------------------------


    POTLOK:  cpu time      3.7639: real time      3.7663


--------------------------------------------------------------------------------------------------------


     LOOP+:  cpu time   5386.6497: real time   5390.3421
    4ORBIT:  cpu time      0.0000: real time      0.0000



 total charge

# of ion       s       p       d       tot
------------------------------------------
    1        0.588   0.020   0.000   0.608
    2        0.565   0.017   0.000   0.582
    3        0.608   0.036   0.000   0.643
    4        0.617   0.034   0.000   0.651
    5        0.572   0.020   0.000   0.591
    6        0.581   0.019   0.000   0.599
    7        0.513   0.011   0.000   0.524
    8        0.567   0.019   0.000   0.586
    9        0.541   0.015   0.000   0.556
   10        0.764   0.884   0.000   1.648
   11        0.808   0.815   0.000   1.623
   12        0.759   0.993   0.000   1.752
   13        0.803   0.838   0.000   1.640
   14        0.785   0.953   0.000   1.738
   15        0.763   0.913   0.000   1.676
   16        0.762   0.957   0.000   1.719
   17        0.767   0.991   0.000   1.758
   18        0.764   0.984   0.000   1.748
   19        0.767   0.961   0.000   1.728
   20        0.759   0.960   0.000   1.719
   21        0.837   0.738   0.000   1.576
   22        0.879   0.691   0.000   1.570
   23        0.795   0.859   0.000   1.654
   24        0.757   0.924   0.000   1.680
   25        0.781   0.935   0.000   1.716
   26        0.764   0.927   0.000   1.690
   27        0.788   0.912   0.000   1.699
   28        0.790   0.895   0.000   1.685
   29        0.764   0.954   0.000   1.718
   30        0.791   0.868   0.000   1.659
   31        0.757   0.924   0.000   1.681
   32        0.793   0.829   0.000   1.622
   33        0.767   0.973   0.000   1.740
   34        0.814   0.872   0.000   1.686
   35        0.766   0.917   0.000   1.683
   36        0.778   0.855   0.000   1.634
   37        0.858   0.752   0.000   1.610
   38        0.787   0.887   0.000   1.674
   39        0.765   0.972   0.000   1.737
   40        0.771   0.923   0.000   1.695
   41        0.761   0.939   0.000   1.699
   42        0.763   0.930   0.000   1.693
   43        0.746   0.935   0.000   1.681
   44        0.773   0.991   0.000   1.764
   45        0.761   0.980   0.000   1.741
   46        0.845   0.737   0.000   1.582
   47        0.759   0.973   0.000   1.733
   48        0.781   0.894   0.000   1.675
   49        0.764   0.963   0.000   1.728
   50        0.769   0.922   0.000   1.691
   51        0.761   0.933   0.000   1.694
   52        0.767   0.942   0.000   1.709
   53        0.760   0.933   0.000   1.693
   54        0.766   0.931   0.000   1.697
   55        0.793   0.910   0.000   1.703
   56        0.760   0.999   0.000   1.759
   57        0.887   0.706   0.000   1.593
   58        0.764   0.929   0.000   1.693
   59        0.764   0.946   0.000   1.711
   60        0.763   0.982   0.000   1.745
   61        0.788   0.894   0.000   1.682
   62        0.774   0.891   0.000   1.665
   63        0.801   0.829   0.000   1.631
   64        0.770   0.927   0.000   1.698
   65        0.812   0.827   0.000   1.639
   66        0.798   0.862   0.000   1.660
   67        0.771   0.907   0.000   1.678
   68        0.784   0.879   0.000   1.663
   69        0.796   0.866   0.000   1.663
   70        0.789   0.903   0.000   1.692
   71        0.809   0.840   0.000   1.649
   72        0.854   0.818   0.000   1.671
   73        0.782   0.860   0.000   1.642
   74        0.832   0.774   0.000   1.605
   75        0.850   0.768   0.000   1.619
   76        0.766   0.985   0.000   1.751
   77        0.816   0.833   0.000   1.649
   78        0.783   0.883   0.000   1.666
   79        0.770   0.933   0.000   1.703
   80        0.875   0.670   0.000   1.545
   81        0.762   0.846   0.000   1.608
   82        0.762   0.948   0.000   1.711
   83        0.767   0.995   0.000   1.762
   84        0.793   0.868   0.000   1.661
   85        0.766   0.954   0.000   1.720
   86        0.803   0.882   0.000   1.685
   87        0.770   0.906   0.000   1.676
   88        0.763   0.945   0.000   1.708
   89        0.926   0.587   0.000   1.512
   90        0.761   0.918   0.000   1.679
   91        0.797   0.820   0.000   1.617
--------------------------------------------------
tot         69.655  73.340   0.000 142.995


 total amount of memory used by VASP MPI-rank0   350523. kBytes
=======================================================================

   base                                    :      30000. kBytes
   nonl-proj                               :      67935. kBytes
   fftplans                                :     108846. kBytes
   grid                                    :      83991. kBytes
   one-center                              :         18. kBytes
   wavefun                                 :      59733. kBytes

  
  
 General timing and accounting informations for this job:
 ========================================================
  
                  Total CPU time used (sec):     5532.446
                            User time (sec):     4914.470
                          System time (sec):      617.976
                         Elapsed time (sec):     5536.536
  
                   Maximum memory used (kb):      620428.
                   Average memory used (kb):          N/A
  
                          Minor page faults:      8252419
                          Major page faults:         1187
                 Voluntary context switches:         3137
