LAMMPS data file via write_data, version 2 Apr 2025, timestep = 6110000, units = metal

1000 atoms
2 atom types

-0.2968128932437395 26.74231597082998 xlo xhi
-0.2968128932437395 26.74231597082998 ylo yhi
-0.2968128932437395 26.74231597082998 zlo zhi

Atom Type Labels

1 H
2 Si

Masses

1 1.00784
2 28.0855

Atoms # atomic

247 2 1.8301619704238727 3.553253101676042 4.9370729114663865 0 0 0
803 2 3.4923528344963155 1.9789192512745384 5.316783186482887 1 1 1
445 2 0.32266112954690096 0.6382270790221785 0.6581465647384681 0 0 1
648 2 3.5747422785594125 0.0584647152500965 3.75002976390868 0 0 1
415 2 11.202970523339497 11.236673093190163 2.7937639529612985 1 0 0
742 2 -0.05627965068214574 0.4133866373941054 2.889546819604895 0 0 0
77 2 0.5828062950328141 4.126054671279291 1.7172348952524752 0 0 0
336 2 4.415089966259787 3.3323967042009435 1.9666758544319065 0 0 0
810 2 4.628352570585413 0.8810747088018223 1.842930461702291 0 0 1
403 2 7.554897465707959 2.910614000384174 4.312878368110162 1 0 1
957 2 6.997668804271495 0.6371804835320825 1.56173693360538 0 0 0
370 2 5.675062470790596 2.946582930095842 5.650408311991147 1 0 0
494 2 8.731480767363676 1.449130400655146 2.6388901429664626 0 1 1
623 2 9.458652937063137 2.9505791396826213 0.7998630635800865 0 0 0
683 2 11.657915758632338 3.0859798079401806 0.29514957927572094 0 0 1
151 2 11.817067574182868 0.6251617068105699 5.072738353516908 0 0 1
611 2 9.291408098288494 3.5118356339914025 5.850505539254951 0 1 0
710 2 10.282461292345738 -0.07476372176029406 3.5009148271914583 0 1 0
600 2 2.601163482298501 4.275251335100116 2.902242904888991 1 0 0
726 2 0.42577563490168446 6.18845570634912 1.1493931006032891 0 1 1
526 2 1.3640425586455978 7.210820726774886 4.434892678215709 1 1 1
527 2 3.193158501991403 6.457417676557905 3.121289820549516 1 0 1
946 2 2.490571254664005 7.2904046375719656 1.0500817201054375 0 0 0
469 2 1.2906841443299109 5.571289130509462 6.095977086237932 1 1 0
686 2 6.478071135006321 4.395411723705848 2.7142824559230854 1 0 1
92 2 7.653150593693892 4.658143509996927 0.6616136393418278 0 0 1
723 2 5.542114647039809 6.075577307882161 3.877597086231793 1 1 0
137 2 6.611968625967656 8.125925068283394 3.7335260253577163 0 0 0
118 2 5.4028093362498355 5.226646951599427 6.28601165092771 0 1 0
308 2 12.985011656766094 3.8909714436903613 2.19763850314145 0 0 0
206 2 9.582419843494634 10.07212732446693 4.106409218366886 0 0 0
859 2 9.02344767739816 7.101476411079834 6.101499716038502 0 0 0
794 2 8.85080835702184 6.57583686229053 0.21408196364321475 0 0 0
66 2 8.999878222504233 7.785020746704308 3.890897727548574 0 0 1
434 2 11.469358010127499 4.589226153254766 5.46643287749117 0 0 0
302 2 11.718658426094404 5.459934301640382 3.4058986883704154 0 0 0
481 2 12.27600777179903 7.885651115529075 1.8554612595777562 0 0 0
822 2 10.11381297869292 6.664675443736291 2.199728604036943 0 0 0
400 2 12.389233810375805 8.52545034327745 5.8968076245592655 0 0 0
182 2 8.773540615622217 13.040922091047248 6.369265798639356 0 0 1
157 2 2.0360371895403504 9.474517979094943 0.7101320752799487 0 1 1
153 2 1.2791442661758174 9.47768462961032 4.917450801684874 0 0 0
74 2 0.634546383458448 12.176421743526383 2.296956628319565 1 0 0
227 2 2.0515774657963393 10.4832536536911 2.9048439944634747 0 0 1
561 2 10.205719536572927 12.985711227020314 1.4013272014583191 0 1 1
673 2 13.017146086354135 7.30427994443436 3.9355844258268373 0 0 1
87 2 4.411234840772509 11.13675666371194 3.456454412247444 0 0 1
14 1 7.942360052529848 10.17013450400891 2.1242966582097114 0 0 1
919 2 6.622959399311629 12.83307597208177 1.1671254690157749 0 0 1
382 2 6.790685026395009 9.127015041968274 1.635766851843835 0 0 1
718 2 7.795135707292143 11.504148709770064 4.74667121219141 0 0 0
441 2 5.829138982492381 10.012723400414021 4.839205237768894 0 0 0
700 2 5.4414467778188875 10.982594690337338 1.4092993578779422 0 0 0
392 2 12.030634199833289 12.073854054149672 4.775973383769443 0 0 1
692 2 0.8505667352885848 2.822864552279668 -0.18033156853097593 0 0 0
824 2 10.866750569478606 10.496434023134231 6.059045205902712 0 0 0
523 2 12.823337176178308 10.188022590877221 1.3955632485040654 0 0 1
278 2 -0.07857422400953315 2.314120315653667 4.271844105082544 0 1 0
15 1 10.64350827521671 8.064046243001723 -0.05981875569336398 1 -1 0
245 2 4.14499692000318 4.1764254115449875 -0.24450942020218944 1 0 0
838 2 5.0014101613033715 13.0952071415304 4.615320918969214 0 0 1
752 2 3.8399790453755633 10.80608774105453 -0.26654049130046303 0 0 1
384 2 8.512935120910742 12.221147682091084 -0.13937602370919827 1 0 0
812 2 7.3349573781544395 13.213737289228362 3.3121611083445366 0 0 0
246 2 2.220342004792296 2.7253022891547696 9.227250192690411 0 1 0
867 2 2.7815445282405484 1.3200118939771142 7.37543648796221 0 1 0
879 2 0.7591198274546267 0.161590862030488 7.43274703769827 1 0 0
440 2 1.8033306641335973 3.0432966442894225 12.776778707532946 1 0 0
597 2 2.7955329763254575 1.510852577891624 11.299320657519825 0 0 0
100 2 -0.017297832573469507 0.07352519204861452 9.552618423287429 0 1 0
97 2 -0.19788042169504003 2.4306663344346138 9.65632877005127 0 0 0
371 2 -0.04416555664263627 3.7772678369434303 11.64588865006924 1 0 0
722 2 4.769114608555477 0.11251849047341195 7.9730108113506795 0 1 0
187 2 4.94681468199147 1.9578103708698604 12.077089711362355 0 1 0
553 2 7.901672669197554 0.9305573054209257 10.438203075608493 0 1 0
373 2 7.124131791566808 2.7487734929751655 9.028296756544526 0 0 0
507 2 6.6158239575193125 1.3143009587405752 7.332333577103181 0 1 0
51 2 8.432023251076929 -0.0811230893045316 6.834411477195092 1 0 1
510 2 5.405899520709701 3.558338575393828 10.368661410808118 1 0 1
309 2 6.100581809824696 0.03772385870199357 11.43935506118703 -1 1 0
64 2 9.403807754903251 1.827209652875886 12.019888149766322 0 1 0
134 2 11.04602593246439 2.785403319464698 10.708223975343119 0 0 0
454 2 11.60375836309068 1.6117870809958177 8.647798548526254 0 1 0
465 2 12.678158103942378 3.3388556812669052 12.218287921197062 0 0 0
727 2 12.843730435404678 0.9481821505034398 12.958497361630391 0 1 0
366 2 10.274118496841018 1.4379802826844863 6.719136294216188 0 0 0
574 2 10.81842861042464 11.76142263984526 9.393775266385148 0 0 0
231 2 2.5019625593638435 6.290792620566384 10.702137921759926 1 0 0
316 2 3.426881003839479 4.643795798623756 9.337409591130934 0 0 1
79 2 3.4845429211372783 5.939104502809146 7.364398413883769 0 1 0
287 2 3.49511842961019 8.277516654903332 10.078478393211084 0 0 0
856 2 3.6207246735017304 8.30386850356444 7.755399955654603 1 0 0
272 2 0.18470769453844432 5.966242042385481 10.628778754143324 1 0 0
966 2 2.532767172147127 5.358834069209021 12.9022569760488 1 0 0
841 2 8.54004671141921 4.1566675149212235 7.991738324462933 1 0 0
992 2 6.3176504842200805 5.577614451375712 11.597487798304094 0 0 1
122 2 7.430544426220832 7.915210401700785 9.253292444897362 0 0 0
617 2 5.6059373500893885 7.558945898542951 10.682067422140138 1 0 0
209 2 7.226199255461818 6.145849666791869 7.557084936253273 0 0 1
215 2 8.59433148996302 5.855600207617753 11.657976295155972 0 0 0
18 1 8.847085444028629 8.376506748549797 6.873578296302191 0 0 0
831 2 9.048113281076008 7.981457569274191 10.84588301806106 0 0 0
783 2 12.549165073505652 7.002639566156991 12.482659727497158 0 0 0
716 2 9.985594278041864 4.80909628498194 9.836430017954132 0 1 0
175 2 11.867006334088952 5.982362668363826 8.74944985870999 0 0 0
631 2 11.480406046391256 7.7045955140330715 10.424578634484444 0 0 0
827 2 11.300517768610243 6.682241035621454 6.610927132052171 0 0 1
192 2 1.9351897750951808 12.221084040406563 9.8209478007 1 0 0
757 2 1.7460047717855343 9.81739504103419 7.190141421496165 0 0 0
478 2 2.9878193435811653 10.342561982753288 11.114129543881788 1 0 0
658 2 2.357900888095026 12.040309424504555 7.35002222850449 0 0 0
297 2 1.7117051269946568 9.921558897583244 12.992703574570816 1 0 0
854 2 4.558906931336414 12.432773128287968 7.044855172618486 0 0 0
219 2 5.922191791584316 9.0782796069653 12.548492374617016 0 0 0
762 2 6.582008771210166 11.73118511544984 10.14206248936991 0 0 0
193 2 8.118581116382975 11.852511654252202 11.968606463755709 1 0 0
414 2 7.147637202520953 10.07887774092339 8.45622287060522 0 0 0
456 2 5.003884830708461 11.082697556828615 11.805377882777545 0 0 1
533 2 5.230850654612185 10.209865638360602 7.006230655896189 0 0 1
547 2 8.261189099685142 9.532313403236948 12.563357911897226 0 0 0
544 2 11.636617033687052 12.41918599734384 13.17612056536493 0 0 0
423 2 12.912093895248997 10.472527860448169 12.267921007076456 0 1 0
790 2 10.117569419071074 12.806491476552498 11.323081980339381 0 0 0
159 2 12.280320407111933 9.94776656581463 9.995207650400488 0 0 0
929 2 9.250003923253216 11.17388229399312 7.6854936982612205 0 0 0
548 2 10.63644438130735 0.0944087819060721 12.895403953520688 0 1 0
387 2 0.35063360372382324 1.77066270851628 15.890008964808885 0 1 0
816 2 2.3411578776334854 2.368280779679155 15.010333396502505 1 0 0
504 2 1.5442384679619845 0.8200537715530605 19.257134723680828 0 0 0
505 2 3.552331635396769 0.7254609467230386 18.116712217439016 0 0 0
461 2 3.8134336945504703 0.6057721495497914 15.74492577532759 1 0 0
556 2 -0.07692113655900526 0.2611602774822903 17.74616071749024 0 0 0
566 2 3.460121778041592 3.896890321255375 16.353102361303222 0 0 0
69 2 4.336064563075035 2.990638488475702 18.208669019634943 1 0 -1
334 2 6.600149726241581 2.7293534907667936 17.346614643449215 0 0 0
703 2 6.054446680910137 1.1654701804813874 15.71993525911861 0 1 0
173 2 6.369001905600174 2.6772901064401857 13.989512936256927 0 0 0
621 2 7.687893767858999 1.8714211623928971 19.095449832164036 0 0 0
340 2 8.58704968671291 3.065521361583567 13.906336074059064 0 0 0
852 2 10.11716148681375 8.896580707546248 14.218970252853627 0 0 0
501 2 9.766240127958323 2.1837667948660404 15.672872416753307 0 1 0
473 2 9.67600608393686 2.35034531522236 18.066327938708433 0 0 -1
326 2 12.21755005571007 2.2022376075333527 16.059397553307 0 1 0
844 2 11.542785919564123 1.0588893123361254 17.890670633487815 0 1 0
857 2 9.653820526245624 0.0590670487059734 15.005843616935163 0 0 0
951 2 11.825713131049378 12.036028025496412 15.608155605031914 0 0 0
315 2 1.077880096879471 6.406782299640398 18.532872870835824 0 0 0
307 2 1.6000559417097946 5.120593291694138 16.51013436947906 1 1 0
360 2 1.2910733988575394 6.360889242309234 14.5991624509918 0 0 0
202 2 2.5548317694149265 8.17670488168621 18.67123294475236 0 0 0
303 2 2.4728387703812613 8.430633173902503 14.54335877063911 1 0 0
832 2 12.343326811685055 8.803580362917145 13.782252165905547 0 0 0
578 2 5.4281043789928285 4.508093188056622 15.009565397482799 0 0 0
6 1 6.144217326754307 5.419033148475433 16.035994450626873 1 0 0
845 2 4.79426116771137 7.736312737390785 18.393099544973637 1 1 0
720 2 7.734254762664415 4.995237124798368 17.941103259679167 1 0 0
280 2 7.827096902323708 7.26660931590838 16.979880330546976 0 0 0
989 2 4.760617789017261 7.980834861974879 14.239203207726582 0 1 0
317 2 5.708451311343023 8.239992536652508 16.384142409559015 0 0 -1
662 2 8.407474077455566 8.710250680129464 18.913539895400316 0 0 -1
346 2 4.835960998767754 6.000284555484202 13.323347029046062 0 0 0
585 2 10.551077968441293 9.476974126218762 18.257378189277382 0 0 0
624 2 9.358224892578072 5.18215775084761 13.836096828774984 0 0 0
166 2 10.241826193701154 4.513570019270515 18.428948160142284 1 0 0
177 2 12.796981795179308 4.522555768315041 15.795520982765229 0 0 0
901 2 9.61118258604793 6.8641597892821355 15.61548667213024 0 0 0
608 2 11.256232693528933 6.06733628440393 16.979130446660754 0 0 -1
582 2 12.20581357311049 7.540699982325473 18.390638801725032 0 0 0
941 2 11.801868625931332 5.04383636220482 13.586765959953995 0 0 0
846 2 0.8168146737389066 12.593582494967613 17.759134053611067 1 0 0
110 2 1.8803727502288345 9.28638194138876 16.671127669662976 0 0 0
740 2 2.2196437935315965 11.485104408545743 16.316117047549938 1 1 0
893 2 1.4689926967683018 11.964028373289153 14.137482306543143 0 0 0
552 2 4.406751854705133 12.007341421559156 16.093262317016556 0 0 0
285 2 6.065679588778656 9.574058979889916 19.135546762391325 0 0 0
348 2 7.9842557471407805 11.446948451562614 16.427781328069784 0 0 0
743 2 5.959120373499992 10.568788794714957 16.92790414872673 0 0 0
751 2 4.735608334023427 12.20880658941432 13.65095660718188 0 0 0
17 1 8.777257398375665 11.529696139921949 18.36301271772346 0 -1 0
221 2 10.123786225705517 10.320770603938241 16.018226787070226 0 0 0
576 2 11.856229068288755 10.941142436379037 19.458036350113105 0 0 0
4 1 11.418046649541678 12.37519001365062 19.268376014633212 1 1 1
817 2 12.900352874243659 0.17019222366435882 19.388449971837655 0 0 0
8 1 7.1616813900453336 11.677454657081434 19.783596594302498 0 1 -1
769 2 1.6640950069469371 12.074592891238181 19.963155943497092 1 0 0
393 2 8.677716345378343 12.04970258383119 19.928466066041413 0 0 0
870 2 2.846839397206902 2.6199735055018936 25.754417161897297 0 0 0
983 2 2.4301142439844567 3.5144482636950656 23.673732100832567 0 0 0
466 2 0.6553405561386266 2.22059313660092 22.531969113092554 0 0 0
386 2 1.9854730943773173 0.3895244150424786 23.08363777878766 1 0 0
45 1 3.3519355216273077 0.9444764510749932 23.542306882620725 0 2 0
268 2 4.060907000719755 3.195627729366325 22.01940142257649 0 1 0
389 2 3.597403539789879 0.6619051555773031 26.568155738748995 0 1 -1
981 2 0.6584983108267681 2.8525326918737486 20.285995807775134 0 1 0
525 2 9.618645987049776 11.575538986755992 22.08081769252726 0 0 0
372 2 6.99138661061167 1.510611638541408 26.427146409371126 0 1 -1
476 2 6.146578716706837 3.0681697240773413 22.521492340273287 0 1 0
882 2 7.670934678655358 3.3698382917448773 20.82723452376062 0 0 0
229 2 5.43445368798039 1.0965945234889705 23.11951311543815 0 0 0
489 2 6.236815653988763 3.628758719022612 26.12671001787456 0 0 -1
327 2 5.110917296907045 13.117125693179043 23.38236019513816 1 0 -1
126 2 12.719423004323847 0.8607741936831981 22.648319191664786 0 1 0
88 2 8.954271498098148 2.251990274788653 25.539617283738806 0 1 0
709 2 10.46394709682184 1.019232791795498 22.694928132654585 0 0 0
745 2 10.330024873794061 0.6592106249977647 24.989129678529313 0 0 0
950 2 9.839679750485091 3.162791132383643 21.890793343852682 0 0 0
68 2 12.369317413022149 1.338406867272065 26.06278250672173 0 1 -1
737 2 9.06280067227644 4.052675744321152 24.015585720335512 0 0 0
872 2 3.476905922490229 6.342075364077186 26.083038589915514 0 0 -1
956 2 1.9618359079414978 5.685525921797146 24.236347786959648 0 1 -1
58 2 2.326393212076886 6.585612920435474 22.10108466671026 0 1 0
554 2 1.6789599085408826 4.996760126608581 20.305064574056406 1 0 0
650 2 3.1870457488960082 13.076470394581936 26.629931343789632 1 0 0
383 2 1.3551200226268167 8.823616573700315 22.02207125497655 1 0 -1
890 2 5.528316886441327 0.12630400888612153 25.230724143933706 1 0 -1
938 2 10.538193408931955 9.11608566488422 25.80204344370606 0 0 -1
486 2 6.888344683125581 4.672780531729894 24.091017324811766 0 0 0
395 2 4.542550697894117 7.420810313642361 21.838538149551294 0 0 0
89 2 5.382781923300466 7.7759172470064275 25.376638756959167 0 1 -1
365 2 6.344763193066121 6.857095403155664 23.43194432698855 0 0 -1
739 2 8.301190314820797 8.104491696254197 22.84722253449199 0 0 -1
419 2 7.3618316917023 5.470025775020002 20.091835707615264 0 0 -1
663 2 8.883465133653385 7.338649050894645 20.658575437559342 0 0 0
921 2 11.25365488776429 4.535618780579022 20.589813225885848 0 1 0
923 2 11.242405767629151 6.953748039759681 20.510705152085936 0 0 0
406 2 11.9977302982489 4.933891678316829 26.095421655694228 0 0 0
736 2 11.882322832910225 8.082822876326713 22.440703513752897 1 0 0
691 2 9.99928351699084 5.779029981386317 25.307944768183322 0 1 0
977 2 10.342931425969716 7.651037999275867 24.00161276417674 0 0 0
233 2 7.336573018377056 8.301189537926712 26.604463325968794 1 1 -1
900 2 0.0363449352094643 13.005188796428515 25.66521218419665 1 0 -1
813 2 0.3607947469228042 12.656643360360514 21.915952523762883 0 0 0
416 2 1.8023813698477564 9.651423810746191 24.145153291694488 0 0 0
63 2 1.383757414392805 11.944511349500793 23.952397088407416 1 0 0
211 2 0.35367647275630576 9.357338958010583 26.132494906002666 0 0 0
712 2 2.6458284986643883 9.841918012154975 20.403260363177054 0 0 0
108 2 11.688136665035689 10.359416028548312 21.73417595908918 0 0 -1
654 2 4.191718822862724 9.639301814369242 24.665547453038446 1 0 0
598 2 12.720324227321177 10.027261385286655 26.074608744427625 0 0 -1
442 2 7.971552296981203 10.336777977829216 23.271996010957604 0 0 -1
519 2 8.212905313501937 10.172358957976504 25.61279627171492 0 1 0
805 2 4.895586350933412 9.613008189999261 21.20148628802408 0 0 0
506 2 5.640750751532397 10.807910755348699 23.108463658108416 1 0 0
252 2 -0.2770098401582424 5.707311700984423 24.768895213511403 1 0 0
771 2 3.92665436866276 4.259105179467607 20.00573796590714 0 0 0
435 2 5.194805661771099 6.160944428494044 19.987855641866936 1 1 0
952 2 7.734385183445459 -0.2086287838976683 20.073873911125247 0 0 0
926 2 1.1160477376652342 16.13380628036546 1.019834641610014 1 -1 1
930 2 2.4551843706880687 16.63833240280227 4.270130130331862 1 0 0
891 2 0.388960424593195 15.788496925369024 3.3426414101972077 0 0 1
338 2 3.1027643274538472 17.1384317186891 1.0422730044302637 0 0 0
531 2 1.2868661883488124 13.811023139624607 0.585034000909046 0 0 1
798 2 -0.0496477392692212 13.693936922566747 4.081293508033521 1 0 0
513 2 0.7537999071341772 13.527949708639401 6.400854628053474 0 0 1
467 2 4.338939429414635 15.187159464951185 3.8903205636625655 0 0 0
664 2 4.965203409949176 15.889039837130156 1.7030168856921923 1 -1 1
724 2 7.650875220448999 16.49689827069743 4.34618054896422 1 0 0
304 2 5.861712619154305 15.932272166441077 5.635718465668415 0 0 1
540 2 6.665709816628986 17.255007359524345 1.089155821788775 0 0 1
450 2 5.245330310994379 14.174778857209732 0.02571011385269628 0 0 1
42 1 7.210059011040295 21.737333382624044 0.5197736396827051 2 0 2
349 2 8.850102589616833 16.94117162545833 0.6899170910625931 0 0 0
288 2 9.545867027014541 14.52540125527257 3.2263136412598596 0 0 1
748 2 10.686156588143735 14.055817946403714 5.168316253861614 0 0 1
702 2 10.419050257723903 16.66138745127704 2.5123077119031847 0 0 0
59 2 12.167526006394885 15.70603943304529 5.952893982978818 0 0 0
444 2 12.606781310032245 17.151607241324026 1.4960557484464343 0 0 0
592 2 13.147248143434453 25.765359161043524 5.591309563483759 0 -1 0
997 2 0.8803039193234528 20.508086500571967 0.12142727962105826 0 0 1
425 2 0.9639547657423062 19.567775730711315 2.340027004432224 0 0 0
289 2 2.853614369159423 18.470411971669133 2.9289720952159293 1 0 0
550 2 0.36996719507984743 21.768804079785344 3.0397026339638877 1 -1 0
136 2 2.543243471708901 22.145512634887787 -0.07551535732828416 0 0 0
429 2 11.335530333167727 14.220086818001906 -0.21446654129969805 0 0 1
601 2 7.9782930377626595 19.681111122498148 5.928957237041582 0 0 0
672 2 4.992748841006733 19.620542483765437 3.8352490111695525 1 0 1
189 2 6.922575910425636 18.550583519409614 2.9592558965748266 0 0 1
906 2 5.022419183404693 21.64977177256869 2.9480823063861417 0 -1 1
733 2 4.845461044493973 21.9993750538996 0.5848417004066641 0 0 0
102 2 5.6082051935859 19.73820430054261 6.151731842581058 0 0 0
606 2 8.412967232795506 21.22367235165535 -0.009391262894309194 0 0 1
49 1 6.781828402633981 22.317144965519716 5.297401146356062 1 1 -2
580 2 10.904931064437243 17.721022944238637 5.8943217815167674 0 0 0
155 2 8.68841346701651 19.79474558647234 3.6978221196991643 0 0 0
932 2 12.892834104924665 19.943839967708993 3.663430033369229 0 0 0
438 2 10.689832714869043 18.55526908042146 3.778322767084128 0 0 0
826 2 9.24948388491693 21.978501313692405 3.4690707701446315 0 -1 0
881 2 12.619987569281829 19.04125476715746 0.0639535219138278 0 0 1
518 2 1.5638897739005029 23.754187772360726 2.9838729952305862 1 0 0
168 2 1.4325690922691512 25.89119143503571 3.7920836222691374 1 -1 0
833 2 1.6128424144529212 24.141561545281384 0.7839894774263756 0 0 0
587 2 3.655755753828565 23.369899330606714 4.096269391762343 0 -1 0
528 2 1.121797330620563 25.463895031322437 6.145185361001282 1 0 0
659 2 12.235974382570872 23.77711481437954 4.863437177643706 0 0 0
741 2 11.367037355848582 25.91807551908451 1.7207641351858545 0 -1 1
33 1 4.495297859720247 25.227604714193184 0.8435922991690057 0 1 1
516 2 5.472757359935118 24.262922192341893 0.4030136530915781 0 0 0
132 2 6.977024939296087 22.670042621817995 3.7136043659476483 0 0 0
602 2 4.931726836399782 25.279992310609007 4.431624994034864 0 -1 0
144 2 7.12292950876762 24.80874821283042 3.8173912929469775 0 0 0
82 2 7.237589663890025 25.34512130003844 1.5790820590291936 0 -1 1
224 2 12.954760942166793 26.440945347287446 0.06402480522055892 0 0 1
210 2 9.38419920131646 24.844057570485305 0.6348822566902254 0 0 1
960 2 9.588944502584427 22.58706259473918 1.2755411964430194 1 0 1
127 2 10.054362813521815 23.465123062116106 5.333734311820248 1 0 0
619 2 12.585549788989763 23.99348800907286 2.563333134880668 0 0 1
524 2 8.98254245934096 25.541239565495044 5.059968652695817 0 -1 0
130 2 11.975031512368634 22.416536394537488 0.9135256713914193 0 0 1
228 2 8.719301741341933 17.429337131324473 6.324357681066551 0 0 1
377 2 2.499088873204148 17.41811608569287 6.37470423913729 0 0 0
754 2 3.0967725211627353 22.509432220160928 6.281605268334317 0 0 0
910 2 2.6261205257072135 14.231488827499295 10.879667371710696 1 0 0
460 2 0.8295906683324927 15.896129326856371 11.344145545849546 1 0 1
41 1 2.778697635446032 15.319583157763107 8.315399356407895 1 -1 0
995 2 1.491299419279344 15.57033372389437 7.4025255274921635 0 0 0
713 2 0.007246620728702469 17.684780350799226 10.052222639534204 1 0 0
849 2 10.47876046607055 25.414645352322786 9.793931717737353 0 0 1
96 2 3.640078207197473 22.315757093446692 12.962200057262024 0 -1 0
828 2 5.155924518973757 17.308572169169747 9.263787594214774 1 0 0
749 2 7.071156751639909 14.477514939490398 7.157496827035842 0 0 0
1000 2 4.823582286005363 15.143530529557847 10.258180848031557 0 0 0
176 2 7.659762875078241 17.177538427467738 12.206352514220248 0 0 -1
248 2 6.170364837899861 15.343697413835333 12.217951273430446 0 0 0
495 2 4.714572186538407 17.688107054073033 6.928537365970855 0 0 0
588 2 7.365267092233189 17.43751979527361 9.906297316744073 0 0 0
128 2 5.730988361920913 13.5093662586883 8.908856036778912 0 0 0
73 2 8.506779599284005 16.00330035438727 8.362902718214434 0 -1 0
290 2 12.736996313269122 14.509949942433494 12.443510044226523 0 0 0
251 2 10.78001364123109 16.219999415435186 9.326131814057156 0 0 0
725 2 10.750930149984052 15.128372983716217 11.406913841104313 0 0 0
427 2 12.588534513764547 15.476628358197953 8.128396787327995 0 0 1
804 2 9.872695112973771 17.121052429035608 12.371360161380744 0 0 -1
385 2 6.732939525289858 25.4597321209253 13.147483564357238 1 0 0
78 2 1.6649309682185078 19.207658110015636 9.557133187277257 0 0 0
529 2 1.1073798733979945 21.239150651130544 10.434301197586963 1 0 0
909 2 3.904725121222458 18.91423413176972 10.259885243894658 0 0 0
361 2 1.1257411749932653 19.156930812777286 6.943773030775476 0 0 0
410 2 -0.0030698858325224343 20.86766313022815 12.497718084269867 0 0 0
657 2 4.611630431873955 18.670129122548563 12.624516526089218 0 0 0
493 2 4.730813465234793 20.991596612171673 9.764453827389886 1 0 0
972 2 5.044675341225034 21.59171619007202 7.463056377019034 0 0 0
925 2 6.892750751132726 20.896683917033993 10.814134344445254 -1 -1 0
55 2 6.797155591368706 19.363371586690576 12.807661782472174 0 0 0
918 2 8.228665422858104 19.64377674458658 9.61766074323893 0 0 0
991 2 9.26219915541857 20.34357114834945 7.689061198494046 0 0 1
904 2 11.621736419597374 18.370508665674432 9.6944562223347 0 0 0
318 2 12.436412813665658 21.25067950366885 7.377078822023482 0 0 0
850 2 11.415072812995135 19.18600826227363 7.434395469156852 0 0 0
70 2 9.982228052737142 19.173022626272562 11.03734392236595 0 -1 0
298 2 11.018942428436459 20.866220461135782 12.363527149831226 0 0 0
355 2 1.0832068663810934 25.392137107278174 13.054491322735208 1 -1 0
238 2 1.7570968782633516 26.280843076316934 10.968975900645892 0 -1 0
792 2 3.170082921589926 22.548310970878934 10.670337990053955 0 0 0
756 2 3.03582887127008 24.731314341400363 9.730350281484348 0 0 0
532 2 2.7284757003354034 24.3987621238283 7.47037081157122 0 -1 0
517 2 12.313860919065524 26.524939512982577 9.300886662429102 0 0 0
760 2 8.550881160221888 23.924770098624176 12.649976992509382 0 0 0
704 2 5.00491055082035 25.829238805036944 9.838215214316273 0 -1 0
180 2 8.023429239888666 22.795278058150863 10.689379222102504 0 -1 0
273 2 6.871394679947424 24.305197246301812 9.429457345067378 0 0 0
402 2 6.423390485389872 23.569652671937387 7.3447461503258165 0 0 0
146 2 8.437644957432576 26.064951716378896 8.986268291709154 0 0 0
681 2 4.745529717565775 25.281453614905544 6.66211515405106 1 -1 0
83 2 10.442067069278764 22.3999444252556 7.407212406038101 0 0 0
277 2 10.258097960001631 23.06472654978939 9.625716688277652 0 0 0
807 2 12.490376586233348 23.94538224610242 12.57789465798287 0 0 0
765 2 10.49758328806676 25.07339427090168 12.033762876801834 0 0 0
500 2 11.999438501758778 22.47234110170281 10.942257654578299 0 0 1
642 2 12.644925870764489 13.335349172357033 8.832701259936451 0 -1 0
595 2 2.883570817029925 13.668924885353553 13.21574995410352 0 0 0
30 1 7.79009930694977 23.346566565383892 6.88812202670503 -1 1 0
300 2 0.9884936336254972 21.559545656419036 6.810839809645058 0 -1 0
463 2 -0.290943131800244 22.065940100315306 8.674214758085604 1 0 0
634 2 2.7791073883836415 15.712460760954439 14.42198365135657 1 0 0
230 2 2.825984078055888 15.688881808138317 16.659672063084816 0 0 0
502 2 0.9604567716203518 14.885979887943398 17.681094948421514 1 0 0
945 2 1.046025470073145 16.841446087725828 13.540919911299616 0 0 0
719 2 6.3133249318401035 22.867406537001777 19.876149573529066 0 0 0
914 2 4.314642808917422 13.998596540710261 17.318369075268105 0 0 0
864 2 4.021316401731407 17.66095316851254 17.121992687338167 1 0 0
263 2 6.859405346956678 13.243661818691136 13.442530693673843 0 0 -1
944 2 6.374772609994383 14.884294334504602 16.747724231282177 0 0 0
565 2 7.347696867549934 15.728680054579137 18.76902767327378 1 0 0
801 2 5.9785799429087065 17.01623888809267 15.840920704705326 1 0 0
181 2 7.867653647243687 13.547163004682773 15.539930064747207 0 0 0
255 2 4.902011214117375 16.557233179403344 13.79442874931216 0 0 0
884 2 9.836522078843773 14.612071729930136 15.278932890540805 0 0 0
485 2 11.62951055682208 14.045642123236206 16.60496943709839 0 0 0
734 2 9.923151694429453 16.96455450160293 14.725774591468966 0 -1 0
208 2 10.780683929068529 17.198867786699704 18.270948320136753 0 0 -1
990 2 11.136110868974042 14.803511757513167 18.881415969756304 0 0 -1
948 2 11.816264352607915 17.48331616248368 16.111676944676677 0 0 0
777 2 3.4087618818325915 13.796772572368356 19.601870781467838 1 0 0
323 2 3.3750869324571595 20.13203594231978 13.977683086712585 0 -1 0
646 2 0.6703938406238136 19.055405299699526 18.956591466586897 0 0 -1
477 2 0.42080180897998587 20.007211289271478 15.588161460213136 0 0 0
541 2 1.714894736388569 20.5991946607019 17.50234934264583 0 0 0
80 2 1.2913231471545354 19.212488254101245 13.675543581013146 0 0 -1
116 2 3.7543726691820494 19.785568212366336 16.26046375717868 1 0 0
508 2 9.905136968497125 24.10862143027726 17.049942246980844 0 0 -1
689 2 8.33032186867564 17.646684063005647 18.07751960672503 0 0 0
150 2 4.175201861122444 17.780321583443246 19.46007863648088 0 0 0
337 2 5.877108542248831 20.862805583850392 16.380487633925288 0 -1 0
902 2 6.2781086787928135 20.836934154187432 18.725432956417055 0 0 0
262 2 7.577570459107536 20.466231608474644 14.667818128883146 1 0 0
239 2 7.941541208165969 19.375039143595988 19.566699921058504 1 0 0
787 2 8.143530184551489 18.194797137054945 15.64493337790746 1 0 0
988 2 9.057678640753323 14.316485031087957 19.75727056900817 0 0 -1
220 2 9.178863310117507 21.975527198881984 13.832890530032186 0 -1 0
292 2 12.562272592262783 19.665109229918293 15.886217763281905 1 0 0
142 2 11.84467468387477 19.11332756123894 19.331381447733122 0 -1 0
793 2 9.906515412269577 20.37559380371376 18.933876192293734 1 0 0
71 2 10.233005626734396 20.242128037627364 16.55075283112967 0 -1 0
306 2 13.032938710581398 20.52593819378058 13.744229273723018 0 -1 0
563 2 -0.024724021108357086 25.12764154303594 16.87434647640723 1 -1 0
521 2 2.050459637849201 22.63878490875207 18.580092371945838 0 -1 0
311 2 1.732461624689269 23.39111642108627 13.94802421796285 1 -1 0
75 2 3.061640378514111 25.922722338641375 14.353605642467052 0 0 0
479 2 2.064042320071894 24.64970328031631 15.900543261268549 0 0 0
93 2 3.5657229931471823 23.84926810366999 17.454493506864587 0 0 0
728 2 0.16717135553682172 23.86520900913995 18.825476303134096 0 0 0
978 2 12.800237174925192 25.744930380727556 15.613292249680953 0 -1 0
993 2 4.567950069003487 25.702977828293825 18.72950806462052 1 0 0
747 2 7.431740892620373 26.299380306444093 15.151942573348625 0 0 0
678 2 4.931135614512148 24.14543545574313 13.95580361460944 0 0 0
942 2 7.557431077757341 24.428612807102468 16.76133303549402 0 -1 0
823 2 6.836824321148514 25.028458668657493 18.84973641566782 0 0 0
577 2 5.56601454096526 23.221331396814175 16.177736753635777 0 0 0
13 1 12.523480470253576 25.27351905296508 14.139219605803671 1 0 0
62 2 12.811196782625137 22.60263132903681 14.597147134513188 0 -1 0
786 2 11.204034124466839 23.71153896786703 18.97082286321309 0 -1 0
569 2 10.536516829872678 22.370859148158242 15.707447860925232 0 0 0
114 2 10.867738892664114 26.135537589166724 16.601724010777204 0 -1 0
626 2 1.5366710122117593 15.31936851735887 19.88845010137247 0 0 0
359 2 0.023828091815593977 22.00860559211132 14.453064284814316 0 0 0
499 2 13.218898042932707 20.316714174724304 18.002002927165023 0 -1 0
335 2 4.418703108365802 20.039418958965076 19.96192610300015 0 -1 0
381 2 1.9278852545424545 15.35888696975721 23.96498422073984 0 0 0