 vasp.6.3.2 27Jun22 (build May 24 2023 13:00:37) complex                         
 executed on             LinuxGNU date 2025.09.17  15:08:02
 running  128 mpi-ranks, with    1 threads/rank
 distrk:  each k-point on  128 cores,    1 groups
 distr:  one band on NCORE=  32 cores,    4 groups


--------------------------------------------------------------------------------------------------------


 INCAR:
   SYSTEM = Energy-Volume Curve with SCAN
   NCORE = 32
   ISTART = 0
   ISPIN = 1
   ISYM = 1
   PREC = Accurate
   ENCUT = 600
   METAGGA = SCAN
   LASPH = .TRUE.
   LDIAG = .FALSE.
   LMIXTAU = .TRUE.
   EDIFF = 1E-6
   EDIFFG = -0.01
   NSW = 100
   ISIF = 3
   IBRION = 2
   POTIM = 0.5
   ISMEAR = 0
   SIGMA = 0.1
   LORBIT = 0
   ALGO = Normal
   IALGO = 38
   LWAVE = .FALSE.
   LCHARG = .FALSE.

 POTCAR:    PAW_PBE Si_GW 04May2012               
 POTCAR:    PAW_PBE H 15Jun2001                   
 POTCAR:    PAW_PBE Si_GW 04May2012               
   SHA256 =  9ee269d4247e69d62ab9db642b0c3f6e4981ddd1f39659ad08dec53e20e43eb1 Si_GW/POTCAR          
   COPYR  = (c) Copyright 04May2012 Georg Kresse                                                    
   COPYR  = This file is part of the software VASP. Any use, copying, and all other rights are regul
   COPYR  = If you do not have a valid VASP license, you may not use, copy or distribute this file. 
   VRHFIN =Si: s2p2                                                                                 
   LEXCH  = PE                                                                                      
   EATOM  =   103.0669 eV,    7.5752 Ry                                                             
                                                                                                    
   TITEL  = PAW_PBE Si_GW 04May2012                                                                 
   LULTRA =        F    use ultrasoft PP ?                                                          
   IUNSCR =        1    unscreen: 0-lin 1-nonlin 2-no                                               
   RPACOR =    1.500    partial core radius                                                         
   POMASS =   28.085; ZVAL   =    4.000    mass and valenz                                          
   RCORE  =    1.900    outmost cutoff radius                                                       
   RWIGS  =    2.480; RWIGS  =    1.312    wigner-seitz radius (au A)                               
   ENMAX  =  245.345; ENMIN  =  184.009 eV                                                          
   ICORE  =        3    local potential                                                             
   LCOR   =        T    correct aug charges                                                         
   LPAW   =        T    paw PP                                                                      
   EAUG   =  412.952                                                                                
   DEXC   =    0.000                                                                                
   RMAX   =    1.950    core radius for proj-oper                                                   
   RAUG   =    1.300    factor for augmentation sphere                                              
   RDEP   =    1.993    radius for radial grids                                                     
   RDEPT  =    2.000    core radius for aug-charge                                                  
                                                                                                    
   Atomic configuration                                                                             
    7 entries                                                                                       
     n  l   j            E        occ.                                                              
     1  0  0.50     -1785.8828   2.0000                                                             
     2  0  0.50      -139.4969   2.0000                                                             
     2  1  1.50       -95.5546   6.0000                                                             
     3  0  0.50       -10.8127   2.0000                                                             
     3  1  0.50        -4.0811   2.0000                                                             
     3  2  1.50        -4.0817   0.0000                                                             
     4  3  2.50        -4.0817   0.0000                                                             
   Description                                                                                      
     l       E           TYP  RCUT    TYP  RCUT                                                     
     0    -10.8127223     23  1.900                                                                 
     0     95.2407820     23  1.900                                                                 
     1     -4.0811372     23  1.900                                                                 
     1     54.4233040     23  1.900                                                                 
     2     -8.1634956     23  1.900                                                                 
     2     81.6349560     23  1.900                                                                 
     3     27.2116520     23  1.900                                                                 
  local pseudopotential read in
  partial core-charges read in
  partial kinetic energy density read in
  kinetic energy density of atom read in
  atomic valenz-charges read in
  non local Contribution for L=           0  read in
    real space projection operators read in
  non local Contribution for L=           0  read in
    real space projection operators read in
  non local Contribution for L=           1  read in
    real space projection operators read in
  non local Contribution for L=           1  read in
    real space projection operators read in
  non local Contribution for L=           2  read in
    real space projection operators read in
  non local Contribution for L=           2  read in
    real space projection operators read in
    PAW grid and wavefunctions read in

   number of l-projection  operators is LMAX  =           6
   number of lm-projection operators is LMMAX =          18

 POTCAR:    PAW_PBE H 15Jun2001                   
   SHA256 =  030f79b5d3ab3cf0e668861823c8fb652ff669f3e15e46930bd03bfd63a607b6 H/POTCAR              
   COPYR  = (c) Copyright 15Jun2001 Georg Kresse                                                    
   COPYR  = This file is part of the software VASP. Any use, copying, and all other rights are regul
   COPYR  = If you do not have a valid VASP license, you may not use, copy or distribute this file. 
   VRHFIN =H: ultrasoft test                                                                        
   LEXCH  = PE                                                                                      
   EATOM  =    12.4884 eV,    0.9179 Ry                                                             
                                                                                                    
   TITEL  = PAW_PBE H 15Jun2001                                                                     
   LULTRA =        F    use ultrasoft PP ?                                                          
   IUNSCR =        0    unscreen: 0-lin 1-nonlin 2-no                                               
   RPACOR =    0.000    partial core radius                                                         
   POMASS =    1.000; ZVAL   =    1.000    mass and valenz                                          
   RCORE  =    1.100    outmost cutoff radius                                                       
   RWIGS  =    0.700; RWIGS  =    0.370    wigner-seitz radius (au A)                               
   ENMAX  =  250.000; ENMIN  =  200.000 eV                                                          
   RCLOC  =    0.701    cutoff for local pot                                                        
   LCOR   =        T    correct aug charges                                                         
   LPAW   =        T    paw PP                                                                      
   EAUG   =  400.000                                                                                
   RMAX   =    1.123    core radius for proj-oper                                                   
   RAUG   =    1.200    factor for augmentation sphere                                              
   RDEP   =    1.112    radius for radial grids                                                     
   RDEPT  =    0.926    core radius for aug-charge                                                  
                                                                                                    
   Atomic configuration                                                                             
    2 entries                                                                                       
     n  l   j            E        occ.                                                              
     1  0  0.50        -6.4927   1.0000                                                             
     2  1  0.50        -3.4015   0.0000                                                             
   Description                                                                                      
     l       E           TYP  RCUT    TYP  RCUT                                                     
     0     -6.4927494     23  1.100                                                                 
     0      6.8029130     23  1.100                                                                 
     1     -4.0817478     23  1.100                                                                 
  local pseudopotential read in
  atomic valenz-charges read in
  non local Contribution for L=           0  read in
    real space projection operators read in
  non local Contribution for L=           0  read in
    real space projection operators read in
  non local Contribution for L=           1  read in
    real space projection operators read in
    PAW grid and wavefunctions read in

   number of l-projection  operators is LMAX  =           3
   number of lm-projection operators is LMMAX =           5

  PAW_PBE Si_GW 04May2012               :
 energy of atom  1       EATOM= -103.0669
 kinetic energy error for atom=    0.0003 (will be added to EATOM!!)
  PAW_PBE H 15Jun2001                   :
 energy of atom  2       EATOM=  -12.4884
 kinetic energy error for atom=    0.0004 (will be added to EATOM!!)


 POSCAR: Si H
  positions in cartesian coordinates
  No initial velocities read in

 METAGGA = SCAN     LMAXTAU =  6    LMIXTAU =  T

 exchange correlation table for  LEXCH =        8
   RHO(1)=    0.500       N(1)  =     2000
   RHO(2)=  100.500       N(2)  =     4000



--------------------------------------------------------------------------------------------------------


 ion  position               nearest neighbor table
   1  0.500  0.500  0.504-   2 1.48   3 1.48   4 1.48
   2  0.500  0.571  0.481-   1 1.48
   3  0.561  0.465  0.481-   1 1.48
   4  0.439  0.465  0.481-   1 1.48

  LATTYP: Found a simple cubic cell.
 ALAT       =    20.0000000000
  
  Lattice vectors:
  
 A1 = (  20.0000000000,   0.0000000000,   0.0000000000)
 A2 = (   0.0000000000,  20.0000000000,   0.0000000000)
 A3 = (   0.0000000000,   0.0000000000,  20.0000000000)


Analysis of symmetry for initial positions (statically):
=====================================================================
 Subroutine PRICEL returns:
 Original cell was already a primitive cell.
 

 Routine SETGRP: Setting up the symmetry group for a 
 simple cubic supercell.


 Subroutine GETGRP returns: Found  2 space group operations
 (whereof  2 operations were pure point group operations)
 out of a pool of 48 trial point group operations.


The static configuration has the point symmetry C_1h.


Analysis of symmetry for dynamics (positions and initial velocities):
=====================================================================
 Subroutine PRICEL returns:
 Original cell was already a primitive cell.
 

 Routine SETGRP: Setting up the symmetry group for a 
 simple cubic supercell.


 Subroutine GETGRP returns: Found  2 space group operations
 (whereof  2 operations were pure point group operations)
 out of a pool of 48 trial point group operations.


The dynamic configuration has the point symmetry C_1h.


 Subroutine INISYM returns: Found  2 space group operations
 (whereof  2 operations are pure point group operations),
 and found     1 'primitive' translations


----------------------------------------------------------------------------------------

                                     Primitive cell                                     

  volume of cell :    8000.0000

  direct lattice vectors                    reciprocal lattice vectors
    20.000000000  0.000000000  0.000000000     0.050000000  0.000000000  0.000000000
     0.000000000 20.000000000  0.000000000     0.000000000  0.050000000  0.000000000
     0.000000000  0.000000000 20.000000000     0.000000000  0.000000000  0.050000000

  length of vectors
    20.000000000 20.000000000 20.000000000     0.050000000  0.050000000  0.050000000

  position of ions in fractional coordinates (direct lattice)
     0.500000000  0.500000000  0.503964950
     0.500000000  0.570664000  0.481496950
     0.561196850  0.464668000  0.481496950
     0.438803150  0.464668000  0.481496950

  ion indices of the primitive-cell ions
   primitive index   ion index
                 1           1
                 2           2
                 3           3
                 4           4

----------------------------------------------------------------------------------------



 KPOINTS: Regular 2 x 2 x 2 mesh centered at Gamma

Automatic generation of k-mesh.
 Grid dimensions read from file:
 generate k-points for:    4    4    4

 Generating k-lattice:

  Cartesian coordinates                     Fractional coordinates (reciprocal lattice)
     0.012500000  0.000000000  0.000000000     0.250000000  0.000000000  0.000000000
     0.000000000  0.012500000  0.000000000     0.000000000  0.250000000  0.000000000
     0.000000000  0.000000000  0.012500000     0.000000000  0.000000000  0.250000000

  Length of vectors
     0.012500000  0.012500000  0.012500000

  Shift w.r.t. Gamma in fractional coordinates (k-lattice)
     0.000000000  0.000000000  0.000000000

 
 Subroutine IBZKPT returns following result:
 ===========================================
 
 Found     30 irreducible k-points:
 
 Following reciprocal coordinates:
            Coordinates               Weight
  0.000000  0.000000  0.000000      1.000000
  0.250000  0.000000  0.000000      2.000000
  0.000000  0.250000  0.000000      2.000000
  0.000000  0.000000  0.250000      2.000000
  0.500000  0.000000  0.000000      1.000000
  0.000000  0.500000  0.000000      1.000000
  0.000000  0.000000  0.500000      1.000000
  0.250000  0.250000  0.000000      4.000000
  0.000000  0.250000  0.250000      2.000000
  0.250000  0.000000  0.250000      4.000000
  0.000000 -0.250000  0.250000      2.000000
  0.500000  0.250000  0.000000      2.000000
  0.000000  0.500000  0.250000      2.000000
  0.250000  0.000000  0.500000      2.000000
 -0.250000  0.500000  0.000000      2.000000
  0.500000  0.000000  0.250000      2.000000
  0.000000  0.250000  0.500000      2.000000
  0.500000  0.500000  0.000000      1.000000
  0.000000  0.500000  0.500000      1.000000
  0.500000  0.000000  0.500000      1.000000
  0.250000  0.250000  0.250000      4.000000
 -0.250000 -0.250000  0.250000      4.000000
  0.500000  0.250000  0.250000      2.000000
  0.250000  0.500000  0.250000      4.000000
  0.250000  0.250000  0.500000      4.000000
  0.500000 -0.250000  0.250000      2.000000
  0.500000  0.500000  0.250000      2.000000
  0.250000  0.500000  0.500000      2.000000
  0.500000  0.250000  0.500000      2.000000
  0.500000  0.500000  0.500000      1.000000
 
 Following cartesian coordinates:
            Coordinates               Weight
  0.000000  0.000000  0.000000      1.000000
  0.012500  0.000000  0.000000      2.000000
  0.000000  0.012500  0.000000      2.000000
  0.000000  0.000000  0.012500      2.000000
  0.025000  0.000000  0.000000      1.000000
  0.000000  0.025000  0.000000      1.000000
  0.000000  0.000000  0.025000      1.000000
  0.012500  0.012500  0.000000      4.000000
  0.000000  0.012500  0.012500      2.000000
  0.012500  0.000000  0.012500      4.000000
  0.000000 -0.012500  0.012500      2.000000
  0.025000  0.012500  0.000000      2.000000
  0.000000  0.025000  0.012500      2.000000
  0.012500  0.000000  0.025000      2.000000
 -0.012500  0.025000  0.000000      2.000000
  0.025000  0.000000  0.012500      2.000000
  0.000000  0.012500  0.025000      2.000000
  0.025000  0.025000  0.000000      1.000000
  0.000000  0.025000  0.025000      1.000000
  0.025000  0.000000  0.025000      1.000000
  0.012500  0.012500  0.012500      4.000000
 -0.012500 -0.012500  0.012500      4.000000
  0.025000  0.012500  0.012500      2.000000
  0.012500  0.025000  0.012500      4.000000
  0.012500  0.012500  0.025000      4.000000
  0.025000 -0.012500  0.012500      2.000000
  0.025000  0.025000  0.012500      2.000000
  0.012500  0.025000  0.025000      2.000000
  0.025000  0.012500  0.025000      2.000000
  0.025000  0.025000  0.025000      1.000000
 


--------------------------------------------------------------------------------------------------------




 Dimension of arrays:
   k-points           NKPTS =     30   k-points in BZ     NKDIM =     30   number of bands    NBANDS=      8
   number of dos      NEDOS =    301   number of ions     NIONS =      4
   non local maximal  LDIM  =      6   non local SUM 2l+1 LMDIM =     18
   total plane-waves  NPLWV = ******
   max r-space proj   IRMAX =      1   max aug-charges    IRDMAX=  25329
   dimension x,y,z NGX =   160 NGY =  160 NGZ =  160
   dimension x,y,z NGXF=   320 NGYF=  320 NGZF=  320
   support grid    NGXF=   320 NGYF=  320 NGZF=  320
   ions per type =               1   3
   NGX,Y,Z   is equivalent  to a cutoff of  13.30, 13.30, 13.30 a.u.
   NGXF,Y,Z  is equivalent  to a cutoff of  26.60, 26.60, 26.60 a.u.

 SYSTEM =  Energy-Volume Curve with SCAN           
 POSCAR =  Si H                                    

 Startparameter for this run:
   NWRITE =      2    write-flag & timer
   PREC   = accura    normal or accurate (medium, high low for compatibility)
   ISTART =      0    job   : 0-new  1-cont  2-samecut
   ICHARG =      2    charge: 1-file 2-atom 10-const
   ISPIN  =      1    spin polarized calculation?
   LNONCOLLINEAR =      F non collinear calculations
   LSORBIT =      F    spin-orbit coupling
   INIWAV =      1    electr: 0-lowe 1-rand  2-diag
   LASPH  =      T    aspherical Exc in radial PAW
 Electronic Relaxation 1
   ENCUT  =  600.0 eV  44.10 Ry    6.64 a.u.  39.94 39.94 39.94*2*pi/ulx,y,z
   ENINI  =  600.0     initial cutoff
   ENAUG  =  413.0 eV  augmentation charge cutoff
   NELM   =     60;   NELMIN=  2; NELMDL= -5     # of ELM steps 
   EDIFF  = 0.1E-05   stopping-criterion for ELM
   LREAL  =      F    real-space projection
   NLSPLINE    = F    spline interpolate recip. space projectors
   LCOMPAT=      F    compatible to vasp.4.4
   GGA_COMPAT  = T    GGA compatible to vasp.4.4-vasp.4.6
   LMAXPAW     = -100 max onsite density
   LMAXMIX     =    2 max onsite mixed and CHGCAR
   VOSKOWN=      0    Vosko Wilk Nusair interpolation
   ROPT   =    0.00000   0.00000
 Ionic relaxation
   EDIFFG = -.1E-01   stopping-criterion for IOM
   NSW    =    100    number of steps for IOM
   NBLOCK =      1;   KBLOCK =    100    inner block; outer block 
   IBRION =      2    ionic relax: 0-MD 1-quasi-New 2-CG
   NFREE  =      1    steps in history (QN), initial steepest desc. (CG)
   ISIF   =      3    stress and relaxation
   IWAVPR =     11    prediction:  0-non 1-charg 2-wave 3-comb
   ISYM   =      1    0-nonsym 1-usesym 2-fastsym
   LCORR  =      T    Harris-Foulkes like correction to forces

   POTIM  = 0.5000    time-step for ionic-motion
   TEIN   =    0.0    initial temperature
   TEBEG  =    0.0;   TEEND  =   0.0 temperature during run
   SMASS  =  -3.00    Nose mass-parameter (am)
   estimated Nose-frequenzy (Omega)   =  0.10E-29 period in steps = 0.13E+47 mass=  -0.914E-26a.u.
   SCALEE = 1.0000    scale energy and forces
   NPACO  =    256;   APACO  = 10.0  distance and # of slots for P.C.
   PSTRESS=    0.0 pullay stress

  Mass of Ions in am
   POMASS =  28.09  1.00
  Ionic Valenz
   ZVAL   =   4.00  1.00
  Atomic Wigner-Seitz radii
   RWIGS  =  -1.00 -1.00
  virtual crystal weights 
   VCA    =   1.00  1.00
   NELECT =       7.0000    total number of electrons
   NUPDOWN=      -1.0000    fix difference up-down

 DOS related values:
   EMIN   =  10.00;   EMAX   =-10.00  energy-range for DOS
   EFERMI =   0.00
   ISMEAR =     0;   SIGMA  =   0.10  broadening in eV -4-tet -1-fermi 0-gaus

 Electronic relaxation 2 (details)
   IALGO  =     38    algorithm
   LDIAG  =      F    sub-space diagonalisation (order eigenvalues)
   LSUBROT=      F    optimize rotation matrix (better conditioning)
   TURBO    =      0    0=normal 1=particle mesh
   IRESTART =      0    0=no restart 2=restart with 2 vectors
   NREBOOT  =      0    no. of reboots
   NMIN     =      0    reboot dimension
   EREF     =   0.00    reference energy to select bands
   IMIX   =      4    mixing-type and parameters
     AMIX     =   0.40;   BMIX     =  1.00
     AMIX_MAG =   1.60;   BMIX_MAG =  1.00
     AMIN     =   0.10
     WC   =   100.;   INIMIX=   1;  MIXPRE=   1;  MAXMIX= -45

 Intra band minimization:
   WEIMIN = 0.0010     energy-eigenvalue tresh-hold
   EBREAK =  0.31E-07  absolut break condition
   DEPER  =   0.30     relativ break condition  

   TIME   =   0.40     timestep for ELM

  volume/ion in A,a.u.               =    2000.00     13496.67
  Fermi-wavevector in a.u.,A,eV,Ry     =   0.156583  0.295899  0.333590  0.024518
  Thomas-Fermi vector in A             =   0.843774

 Write flags
   LWAVE        =      F    write WAVECAR
   LDOWNSAMPLE  =      F    k-point downsampling of WAVECAR
   LCHARG       =      F    write CHGCAR
   LVTOT        =      F    write LOCPOT, total local potential
   LVHAR        =      F    write LOCPOT, Hartree potential only
   LELF         =      F    write electronic localiz. function (ELF)
   LORBIT       =      0    0 simple, 1 ext, 2 COOP (PROOUT), +10 PAW based schemes


 Dipole corrections
   LMONO  =      F    monopole corrections only (constant potential shift)
   LDIPOL =      F    correct potential (dipole corrections)
   IDIPOL =      0    1-x, 2-y, 3-z, 4-all directions 
   EPSILON=  1.0000000 bulk dielectric constant

 Exchange correlation treatment:
   GGA     =    --    GGA type
   LEXCH   =     8    internal setting for exchange type
   LIBXC   =     F    Libxc                    
   VOSKOWN =     0    Vosko Wilk Nusair interpolation
   LHFCALC =     F    Hartree Fock is set to
   LHFONE  =     F    Hartree Fock one center treatment
   AEXX    =    0.0000 exact exchange contribution

 Linear response parameters
   LEPSILON=     F    determine dielectric tensor
   LRPA    =     F    only Hartree local field effects (RPA)
   LNABLA  =     F    use nabla operator in PAW spheres
   LVEL    =     F    velocity operator in full k-point grid
   CSHIFT  =0.1000    complex shift for real part using Kramers Kronig
   OMEGAMAX=  -1.0    maximum frequency
   DEG_THRESHOLD= 0.2000000E-02 threshold for treating states as degnerate
   RTIME   =   -0.100 relaxation time in fs
  (WPLASMAI=    0.000 imaginary part of plasma frequency in eV, 0.658/RTIME)
   DFIELD  = 0.0000000 0.0000000 0.0000000 field for delta impulse in time

  Optional k-point grid parameters
   LKPOINTS_OPT  =     F    use optional k-point grid
   KPOINTS_OPT_MODE=     1    mode for optional k-point grid

 Orbital magnetization related:
   ORBITALMAG=     F  switch on orbital magnetization
   LCHIMAG   =     F  perturbation theory with respect to B field
   DQ        =  0.001000  dq finite difference perturbation B field
   LLRAUG    =     F  two centre corrections for induced B field



--------------------------------------------------------------------------------------------------------


 conjugate gradient relaxation of ions
 charge density and potential will be updated during run
 non-spin polarized calculation
 Variant of blocked Davidson
 perform Loewdin sub-space diagonalisation
    ordering is kept fixed
    before iterative eigenvector-optimisation
 modified Broyden-mixing scheme, WC =      100.0
 initial mixing is a Kerker type mixing with AMIX =  0.4000 and BMIX =      1.0000
 Hartree-type preconditioning will be used
 using additional bands            4
 reciprocal scheme for non local part
 use partial core corrections
 calculate Harris-corrections to forces   (improved forces if not selfconsistent)
 use gradient corrections 
 use of overlap-Matrix (Vanderbilt PP)
 Gauss-broadening in eV      SIGMA  =   0.10


--------------------------------------------------------------------------------------------------------


  energy-cutoff  :      600.00
  volume of cell :     8000.00
      direct lattice vectors                 reciprocal lattice vectors
    20.000000000  0.000000000  0.000000000     0.050000000  0.000000000  0.000000000
     0.000000000 20.000000000  0.000000000     0.000000000  0.050000000  0.000000000
     0.000000000  0.000000000 20.000000000     0.000000000  0.000000000  0.050000000

  length of vectors
    20.000000000 20.000000000 20.000000000     0.050000000  0.050000000  0.050000000



 k-points in units of 2pi/SCALE and weight: Regular 2 x 2 x 2 mesh centered at Gamma
   0.00000000  0.00000000  0.00000000       0.016
   0.01250000  0.00000000  0.00000000       0.031
   0.00000000  0.01250000  0.00000000       0.031
   0.00000000  0.00000000  0.01250000       0.031
   0.02500000  0.00000000  0.00000000       0.016
   0.00000000  0.02500000  0.00000000       0.016
   0.00000000  0.00000000  0.02500000       0.016
   0.01250000  0.01250000  0.00000000       0.062
   0.00000000  0.01250000  0.01250000       0.031
   0.01250000  0.00000000  0.01250000       0.062
   0.00000000 -0.01250000  0.01250000       0.031
   0.02500000  0.01250000  0.00000000       0.031
   0.00000000  0.02500000  0.01250000       0.031
   0.01250000  0.00000000  0.02500000       0.031
  -0.01250000  0.02500000  0.00000000       0.031
   0.02500000  0.00000000  0.01250000       0.031
   0.00000000  0.01250000  0.02500000       0.031
   0.02500000  0.02500000  0.00000000       0.016
   0.00000000  0.02500000  0.02500000       0.016
   0.02500000  0.00000000  0.02500000       0.016
   0.01250000  0.01250000  0.01250000       0.062
  -0.01250000 -0.01250000  0.01250000       0.062
   0.02500000  0.01250000  0.01250000       0.031
   0.01250000  0.02500000  0.01250000       0.062
   0.01250000  0.01250000  0.02500000       0.062
   0.02500000 -0.01250000  0.01250000       0.031
   0.02500000  0.02500000  0.01250000       0.031
   0.01250000  0.02500000  0.02500000       0.031
   0.02500000  0.01250000  0.02500000       0.031
   0.02500000  0.02500000  0.02500000       0.016

 k-points in reciprocal lattice and weights: Regular 2 x 2 x 2 mesh centered at Gamma
   0.00000000  0.00000000  0.00000000       0.016
   0.25000000  0.00000000  0.00000000       0.031
   0.00000000  0.25000000  0.00000000       0.031
   0.00000000  0.00000000  0.25000000       0.031
   0.50000000  0.00000000  0.00000000       0.016
   0.00000000  0.50000000  0.00000000       0.016
   0.00000000  0.00000000  0.50000000       0.016
   0.25000000  0.25000000  0.00000000       0.062
   0.00000000  0.25000000  0.25000000       0.031
   0.25000000  0.00000000  0.25000000       0.062
   0.00000000 -0.25000000  0.25000000       0.031
   0.50000000  0.25000000  0.00000000       0.031
   0.00000000  0.50000000  0.25000000       0.031
   0.25000000  0.00000000  0.50000000       0.031
  -0.25000000  0.50000000  0.00000000       0.031
   0.50000000  0.00000000  0.25000000       0.031
   0.00000000  0.25000000  0.50000000       0.031
   0.50000000  0.50000000  0.00000000       0.016
   0.00000000  0.50000000  0.50000000       0.016
   0.50000000  0.00000000  0.50000000       0.016
   0.25000000  0.25000000  0.25000000       0.062
  -0.25000000 -0.25000000  0.25000000       0.062
   0.50000000  0.25000000  0.25000000       0.031
   0.25000000  0.50000000  0.25000000       0.062
   0.25000000  0.25000000  0.50000000       0.062
   0.50000000 -0.25000000  0.25000000       0.031
   0.50000000  0.50000000  0.25000000       0.031
   0.25000000  0.50000000  0.50000000       0.031
   0.50000000  0.25000000  0.50000000       0.031
   0.50000000  0.50000000  0.50000000       0.016

 position of ions in fractional coordinates (direct lattice) 
   0.50000000  0.50000000  0.50396495
   0.50000000  0.57066400  0.48149695
   0.56119685  0.46466800  0.48149695
   0.43880315  0.46466800  0.48149695

 position of ions in cartesian coordinates  (Angst):
  10.00000000 10.00000000 10.07929900
  10.00000000 11.41328000  9.62993900
  11.22393700  9.29336000  9.62993900
   8.77606300  9.29336000  9.62993900



--------------------------------------------------------------------------------------------------------


 k-point   1 :   0.0000 0.0000 0.0000  plane waves:  267179
 k-point   2 :   0.2500 0.0000 0.0000  plane waves:  267112
 k-point   3 :   0.0000 0.2500 0.0000  plane waves:  267112
 k-point   4 :   0.0000 0.0000 0.2500  plane waves:  267112
 k-point   5 :   0.5000 0.0000 0.0000  plane waves:  266904
 k-point   6 :   0.0000 0.5000 0.0000  plane waves:  266904
 k-point   7 :   0.0000 0.0000 0.5000  plane waves:  266904
 k-point   8 :   0.2500 0.2500 0.0000  plane waves:  266962
 k-point   9 :   0.0000 0.2500 0.2500  plane waves:  266962
 k-point  10 :   0.2500 0.0000 0.2500  plane waves:  266962
 k-point  11 :   0.0000-0.2500 0.2500  plane waves:  266962
 k-point  12 :   0.5000 0.2500 0.0000  plane waves:  266880
 k-point  13 :   0.0000 0.5000 0.2500  plane waves:  266880
 k-point  14 :   0.2500 0.0000 0.5000  plane waves:  266880
 k-point  15 :  -0.2500 0.5000 0.0000  plane waves:  266880
 k-point  16 :   0.5000 0.0000 0.2500  plane waves:  266880
 k-point  17 :   0.0000 0.2500 0.5000  plane waves:  266880
 k-point  18 :   0.5000 0.5000 0.0000  plane waves:  266880
 k-point  19 :   0.0000 0.5000 0.5000  plane waves:  266880
 k-point  20 :   0.5000 0.0000 0.5000  plane waves:  266880
 k-point  21 :   0.2500 0.2500 0.2500  plane waves:  266917
 k-point  22 :  -0.2500-0.2500 0.2500  plane waves:  266917
 k-point  23 :   0.5000 0.2500 0.2500  plane waves:  266994
 k-point  24 :   0.2500 0.5000 0.2500  plane waves:  266994
 k-point  25 :   0.2500 0.2500 0.5000  plane waves:  266994
 k-point  26 :   0.5000-0.2500 0.2500  plane waves:  266994
 k-point  27 :   0.5000 0.5000 0.2500  plane waves:  267192
 k-point  28 :   0.2500 0.5000 0.5000  plane waves:  267192
 k-point  29 :   0.5000 0.2500 0.5000  plane waves:  267192
 k-point  30 :   0.5000 0.5000 0.5000  plane waves:  267280

 maximum and minimum number of plane-waves per node :      8420     8248

 maximum number of plane-waves:    267280
 maximum index in each direction: 
   IXMAX=   40   IYMAX=   40   IZMAX=   39
   IXMIN=  -40   IYMIN=  -40   IZMIN=  -40


 parallel 3D FFT for wavefunctions:
    minimum data exchange during FFTs selected (reduces bandwidth)
 parallel 3D FFT for charge:
    minimum data exchange during FFTs selected (reduces bandwidth)


 total amount of memory used by VASP MPI-rank0   153760. kBytes
=======================================================================

   base      :      30000. kBytes
   nonl-proj :      72835. kBytes
   fftplans  :      13878. kBytes
   grid      :      28980. kBytes
   one-center:         15. kBytes
   wavefun   :       8052. kBytes

     INWAV:  cpu time      0.0000: real time      0.0000
 Broyden mixing: mesh for mixing (old mesh)
   NGX = 79   NGY = 79   NGZ = 79
  (NGX  =320   NGY  =320   NGZ  =320)
  gives a total of 493039 points

 initial charge density was supplied:
 charge density of overlapping atoms calculated
 number of electron       7.0000000 magnetization 
 keeping initial charge density in first step


--------------------------------------------------------------------------------------------------------


 Maximum index for augmentation-charges            0 (set IRDMAX)


--------------------------------------------------------------------------------------------------------


 First call to EWALD:  gamma=   0.089
 Maximum number of real-space cells 3x 3x 3
 Maximum number of reciprocal cells 3x 3x 3

    FEWALD:  cpu time      0.0013: real time      0.0013


--------------------------------------- Iteration      1(   1)  ---------------------------------------


    POTLOK:  cpu time      1.3562: real time      1.4356
    SETDIJ:  cpu time      0.6246: real time      0.6278
    EDDIAG:  cpu time      2.9790: real time      3.2272
     EDDAV:  cpu time     15.9216: real time     17.2469
       DOS:  cpu time      0.0007: real time      0.0007
    --------------------------------------------
      LOOP:  cpu time     20.8821: real time     22.5383

 eigenvalue-minimisations  :   720
 total energy-change (2. order) : 0.1912392E+02  (-0.7505679E+02)
 number of electron       7.0000000 magnetization 
 augmentation part        7.0000000 magnetization 

 Free energy of the ion-electron system (eV)
  ---------------------------------------------------
  alpha Z        PSCENC =         0.01972279
  Ewald energy   TEWEN  =        84.28533025
  -Hartree energ DENC   =      -172.00259509
  -exchange      EXHF   =         0.00000000
  -V(xc)+E(xc)   XCENC  =         1.69336815
  PAW double counting   =        89.41188855      -79.11819258
  entropy T*S    EENTRO =        -0.00722199
  eigenvalues    EBANDS =       -45.68890914
  atomic energy  EATOM  =       140.53052484
  Solvation  Ediel_sol  =         0.00000000
  ---------------------------------------------------
  free energy    TOTEN  =        19.12391580 eV

  energy without entropy =       19.13113779  energy(sigma->0) =       19.12752679


--------------------------------------------------------------------------------------------------------




--------------------------------------- Iteration      1(   2)  ---------------------------------------


    EDDIAG:  cpu time      3.0034: real time      3.2639
     EDDAV:  cpu time     14.3491: real time     15.5552
       DOS:  cpu time      0.0007: real time      0.0007
    --------------------------------------------
      LOOP:  cpu time     17.3532: real time     18.8198

 eigenvalue-minimisations  :   608
 total energy-change (2. order) :-0.3202866E+02  (-0.2900328E+02)
 number of electron       7.0000000 magnetization 
 augmentation part        7.0000000 magnetization 

 Free energy of the ion-electron system (eV)
  ---------------------------------------------------
  alpha Z        PSCENC =         0.01972279
  Ewald energy   TEWEN  =        84.28533025
  -Hartree energ DENC   =      -172.00259509
  -exchange      EXHF   =         0.00000000
  -V(xc)+E(xc)   XCENC  =         1.69336815
  PAW double counting   =        89.41188855      -79.11819258
  entropy T*S    EENTRO =        -0.00341869
  eigenvalues    EBANDS =       -77.72137550
  atomic energy  EATOM  =       140.53052484
  Solvation  Ediel_sol  =         0.00000000
  ---------------------------------------------------
  free energy    TOTEN  =       -12.90474726 eV

  energy without entropy =      -12.90132857  energy(sigma->0) =      -12.90303792


--------------------------------------------------------------------------------------------------------




--------------------------------------- Iteration      1(   3)  ---------------------------------------


    EDDIAG:  cpu time      2.9875: real time      3.2530
     EDDAV:  cpu time     15.4467: real time     16.7469
       DOS:  cpu time      0.0007: real time      0.0007
    --------------------------------------------
      LOOP:  cpu time     18.4350: real time     20.0007

 eigenvalue-minimisations  :   688
 total energy-change (2. order) :-0.6694837E+01  (-0.6673218E+01)
 number of electron       7.0000000 magnetization 
 augmentation part        7.0000000 magnetization 

 Free energy of the ion-electron system (eV)
  ---------------------------------------------------
  alpha Z        PSCENC =         0.01972279
  Ewald energy   TEWEN  =        84.28533025
  -Hartree energ DENC   =      -172.00259509
  -exchange      EXHF   =         0.00000000
  -V(xc)+E(xc)   XCENC  =         1.69336815
  PAW double counting   =        89.41188855      -79.11819258
  entropy T*S    EENTRO =        -0.03513531
  eigenvalues    EBANDS =       -84.38449560
  atomic energy  EATOM  =       140.53052484
  Solvation  Ediel_sol  =         0.00000000
  ---------------------------------------------------
  free energy    TOTEN  =       -19.59958398 eV

  energy without entropy =      -19.56444867  energy(sigma->0) =      -19.58201633


--------------------------------------------------------------------------------------------------------




--------------------------------------- Iteration      1(   4)  ---------------------------------------


    EDDIAG:  cpu time      3.0087: real time      3.2672
     EDDAV:  cpu time     19.2141: real time     20.8153
       DOS:  cpu time      0.0008: real time      0.0008
    --------------------------------------------
      LOOP:  cpu time     22.2236: real time     24.0832

 eigenvalue-minimisations  :   952
 total energy-change (2. order) :-0.3331554E+00  (-0.3119839E+00)
 number of electron       7.0000000 magnetization 
 augmentation part        7.0000000 magnetization 

 Free energy of the ion-electron system (eV)
  ---------------------------------------------------
  alpha Z        PSCENC =         0.01972279
  Ewald energy   TEWEN  =        84.28533025
  -Hartree energ DENC   =      -172.00259509
  -exchange      EXHF   =         0.00000000
  -V(xc)+E(xc)   XCENC  =         1.69336815
  PAW double counting   =        89.41188855      -79.11819258
  entropy T*S    EENTRO =        -0.05641875
  eigenvalues    EBANDS =       -84.69636757
  atomic energy  EATOM  =       140.53052484
  Solvation  Ediel_sol  =         0.00000000
  ---------------------------------------------------
  free energy    TOTEN  =       -19.93273939 eV

  energy without entropy =      -19.87632064  energy(sigma->0) =      -19.90453001


--------------------------------------------------------------------------------------------------------




--------------------------------------- Iteration      1(   5)  ---------------------------------------


    EDDIAG:  cpu time      2.9463: real time      3.2458
     EDDAV:  cpu time     15.0325: real time     16.3227
       DOS:  cpu time      0.0007: real time      0.0007
    CHARGE:  cpu time     10.2864: real time     10.5165
    MIXING:  cpu time      0.0194: real time      0.0197
    --------------------------------------------
      LOOP:  cpu time     28.2853: real time     30.1054

 eigenvalue-minimisations  :   656
 total energy-change (2. order) :-0.1147576E-02  (-0.1147367E-02)
 number of electron       7.0000000 magnetization 
 augmentation part       -0.1711533 magnetization 

 Broyden mixing:
  rms(total) = 0.56685E+00    rms(broyden)= 0.56682E+00
  rms(prec ) = 0.61632E+00
  weight for this iteration     100.00

 Free energy of the ion-electron system (eV)
  ---------------------------------------------------
  alpha Z        PSCENC =         0.01972279
  Ewald energy   TEWEN  =        84.28533025
  -Hartree energ DENC   =      -172.00259509
  -exchange      EXHF   =         0.00000000
  -V(xc)+E(xc)   XCENC  =         1.69336815
  PAW double counting   =        89.41188855      -79.11819258
  entropy T*S    EENTRO =        -0.05641896
  eigenvalues    EBANDS =       -84.69751493
  atomic energy  EATOM  =       140.53052484
  Solvation  Ediel_sol  =         0.00000000
  ---------------------------------------------------
  free energy    TOTEN  =       -19.93388696 eV

  energy without entropy =      -19.87746801  energy(sigma->0) =      -19.90567749


--------------------------------------------------------------------------------------------------------




--------------------------------------- Iteration      1(   6)  ---------------------------------------


    POTLOK:  cpu time      1.3316: real time      1.3920
    SETDIJ:  cpu time      0.6219: real time      0.6252
    EDDIAG:  cpu time      2.9583: real time      3.2170
     EDDAV:  cpu time     16.5623: real time     17.9590
       DOS:  cpu time      0.0009: real time      0.0009
    CHARGE:  cpu time     10.9493: real time     11.1760
    MIXING:  cpu time      0.0203: real time      0.0206
    --------------------------------------------
      LOOP:  cpu time     32.4447: real time     34.3907

 eigenvalue-minimisations  :   768
 total energy-change (2. order) : 0.1530268E+01  (-0.4836981E-01)
 number of electron       7.0000000 magnetization 
 augmentation part       -0.1729933 magnetization 

 Broyden mixing:
  rms(total) = 0.30979E+00    rms(broyden)= 0.30979E+00
  rms(prec ) = 0.33831E+00
  weight for this iteration     100.00

 eigenvalues of (default mixing * dielectric matrix)
  average eigenvalue GAMMA=   2.1608
  2.1608

 Free energy of the ion-electron system (eV)
  ---------------------------------------------------
  alpha Z        PSCENC =         0.01972279
  Ewald energy   TEWEN  =        84.28533025
  -Hartree energ DENC   =      -177.19668676
  -exchange      EXHF   =         0.00000000
  -V(xc)+E(xc)   XCENC  =         2.58849683
  PAW double counting   =       113.84403939     -103.60387927
  entropy T*S    EENTRO =        -0.05641895
  eigenvalues    EBANDS =       -78.81474850
  atomic energy  EATOM  =       140.53052484
  Solvation  Ediel_sol  =         0.00000000
  ---------------------------------------------------
  free energy    TOTEN  =       -18.40361939 eV

  energy without entropy =      -18.34720043  energy(sigma->0) =      -18.37540991


--------------------------------------------------------------------------------------------------------




--------------------------------------- Iteration      1(   7)  ---------------------------------------


    POTLOK:  cpu time      1.3321: real time      1.4085
    SETDIJ:  cpu time      0.6215: real time      0.6249
    EDDIAG:  cpu time      2.9454: real time      3.1940
     EDDAV:  cpu time     19.3255: real time     20.9422
       DOS:  cpu time      0.0009: real time      0.0009
    CHARGE:  cpu time     10.7054: real time     10.9449
    MIXING:  cpu time      0.0179: real time      0.0182
    --------------------------------------------
      LOOP:  cpu time     34.9487: real time     37.1336

 eigenvalue-minimisations  :   960
 total energy-change (2. order) : 0.3676044E+00  (-0.4403529E-01)
 number of electron       7.0000000 magnetization 
 augmentation part       -0.1771527 magnetization 

 Broyden mixing:
  rms(total) = 0.39211E-01    rms(broyden)= 0.39202E-01
  rms(prec ) = 0.48680E-01
  weight for this iteration     100.00

 eigenvalues of (default mixing * dielectric matrix)
  average eigenvalue GAMMA=   2.0463
  1.6483  2.4442

 Free energy of the ion-electron system (eV)
  ---------------------------------------------------
  alpha Z        PSCENC =         0.01972279
  Ewald energy   TEWEN  =        84.28533025
  -Hartree energ DENC   =      -184.96764235
  -exchange      EXHF   =         0.00000000
  -V(xc)+E(xc)   XCENC  =         3.58734444
  PAW double counting   =       153.37091020     -143.22771064
  entropy T*S    EENTRO =        -0.05641896
  eigenvalues    EBANDS =       -71.57807553
  atomic energy  EATOM  =       140.53052484
  Solvation  Ediel_sol  =         0.00000000
  ---------------------------------------------------
  free energy    TOTEN  =       -18.03601495 eV

  energy without entropy =      -17.97959599  energy(sigma->0) =      -18.00780547


--------------------------------------------------------------------------------------------------------




--------------------------------------- Iteration      1(   8)  ---------------------------------------


    POTLOK:  cpu time      1.3258: real time      1.3818
    SETDIJ:  cpu time      0.6235: real time      0.6267
    EDDIAG:  cpu time      2.9600: real time      3.2157
     EDDAV:  cpu time     19.3101: real time     20.9180
       DOS:  cpu time      0.0008: real time      0.0008
    CHARGE:  cpu time     10.4691: real time     10.7061
    MIXING:  cpu time      0.0174: real time      0.0177
    --------------------------------------------
      LOOP:  cpu time     34.7066: real time     36.8667

 eigenvalue-minimisations  :   960
 total energy-change (2. order) : 0.4276523E-02  (-0.3223416E-02)
 number of electron       7.0000000 magnetization 
 augmentation part       -0.1756814 magnetization 

 Broyden mixing:
  rms(total) = 0.17621E-01    rms(broyden)= 0.17620E-01
  rms(prec ) = 0.23027E-01
  weight for this iteration     100.00

 eigenvalues of (default mixing * dielectric matrix)
  average eigenvalue GAMMA=   1.9530
  1.1303  2.3643  2.3643

 Free energy of the ion-electron system (eV)
  ---------------------------------------------------
  alpha Z        PSCENC =         0.01972279
  Ewald energy   TEWEN  =        84.28533025
  -Hartree energ DENC   =      -186.90027032
  -exchange      EXHF   =         0.00000000
  -V(xc)+E(xc)   XCENC  =         3.76873874
  PAW double counting   =       158.97131369     -148.83802364
  entropy T*S    EENTRO =        -0.05641896
  eigenvalues    EBANDS =       -69.81265583
  atomic energy  EATOM  =       140.53052484
  Solvation  Ediel_sol  =         0.00000000
  ---------------------------------------------------
  free energy    TOTEN  =       -18.03173843 eV

  energy without entropy =      -17.97531947  energy(sigma->0) =      -18.00352895


--------------------------------------------------------------------------------------------------------




--------------------------------------- Iteration      1(   9)  ---------------------------------------


    POTLOK:  cpu time      1.3391: real time      1.4152
    SETDIJ:  cpu time      0.6206: real time      0.6239
    EDDIAG:  cpu time      2.9773: real time      3.2369
     EDDAV:  cpu time     19.3936: real time     21.0472
       DOS:  cpu time      0.0008: real time      0.0008
    CHARGE:  cpu time     10.5633: real time     10.7984
    MIXING:  cpu time      0.0217: real time      0.0219
    --------------------------------------------
      LOOP:  cpu time     34.9163: real time     37.1444

 eigenvalue-minimisations  :   960
 total energy-change (2. order) :-0.5829848E-02  (-0.4390977E-03)
 number of electron       7.0000000 magnetization 
 augmentation part       -0.1749117 magnetization 

 Broyden mixing:
  rms(total) = 0.77934E-02    rms(broyden)= 0.77933E-02
  rms(prec ) = 0.12492E-01
  weight for this iteration     100.00

 eigenvalues of (default mixing * dielectric matrix)
  average eigenvalue GAMMA=   2.1939
  1.0160  3.3251  2.1054  2.3292

 Free energy of the ion-electron system (eV)
  ---------------------------------------------------
  alpha Z        PSCENC =         0.01972279
  Ewald energy   TEWEN  =        84.28533025
  -Hartree energ DENC   =      -187.34585076
  -exchange      EXHF   =         0.00000000
  -V(xc)+E(xc)   XCENC  =         3.78447543
  PAW double counting   =       156.72040104     -146.58151106
  entropy T*S    EENTRO =        -0.05641896
  eigenvalues    EBANDS =       -69.39424185
  atomic energy  EATOM  =       140.53052484
  Solvation  Ediel_sol  =         0.00000000
  ---------------------------------------------------
  free energy    TOTEN  =       -18.03756828 eV

  energy without entropy =      -17.98114932  energy(sigma->0) =      -18.00935880


--------------------------------------------------------------------------------------------------------




--------------------------------------- Iteration      1(  10)  ---------------------------------------


    POTLOK:  cpu time      1.3293: real time      1.3911
    SETDIJ:  cpu time      0.6231: real time      0.6268
    EDDIAG:  cpu time      2.9513: real time      3.2078
     EDDAV:  cpu time     12.5464: real time     13.5901
       DOS:  cpu time      0.0009: real time      0.0009
    CHARGE:  cpu time     10.2883: real time     10.5223
    MIXING:  cpu time      0.0189: real time      0.0190
    --------------------------------------------
      LOOP:  cpu time     27.7581: real time     29.3579

 eigenvalue-minimisations  :   480
 total energy-change (2. order) :-0.6865820E-02  (-0.1109082E-02)
 number of electron       7.0000000 magnetization 
 augmentation part       -0.1749145 magnetization 

 Broyden mixing:
  rms(total) = 0.34548E-02    rms(broyden)= 0.34546E-02
  rms(prec ) = 0.58000E-02
  weight for this iteration     100.00

 eigenvalues of (default mixing * dielectric matrix)
  average eigenvalue GAMMA=   2.2200
  3.1483  3.1483  0.9837  2.0379  1.7819

 Free energy of the ion-electron system (eV)
  ---------------------------------------------------
  alpha Z        PSCENC =         0.01972279
  Ewald energy   TEWEN  =        84.28533025
  -Hartree energ DENC   =      -188.14077802
  -exchange      EXHF   =         0.00000000
  -V(xc)+E(xc)   XCENC  =         3.85350387
  PAW double counting   =       155.54289638     -145.40151389
  entropy T*S    EENTRO =        -0.05641896
  eigenvalues    EBANDS =       -68.67770137
  atomic energy  EATOM  =       140.53052484
  Solvation  Ediel_sol  =         0.00000000
  ---------------------------------------------------
  free energy    TOTEN  =       -18.04443410 eV

  energy without entropy =      -17.98801514  energy(sigma->0) =      -18.01622462


--------------------------------------------------------------------------------------------------------




--------------------------------------- Iteration      1(  11)  ---------------------------------------


    POTLOK:  cpu time      1.3309: real time      1.3947
    SETDIJ:  cpu time      0.6218: real time      0.6253
    EDDIAG:  cpu time      2.9423: real time      3.1960
     EDDAV:  cpu time     17.1492: real time     18.6013
       DOS:  cpu time      0.0008: real time      0.0008
    CHARGE:  cpu time     10.6238: real time     10.8672
    MIXING:  cpu time      0.0223: real time      0.0227
    --------------------------------------------
      LOOP:  cpu time     32.6911: real time     34.7079

 eigenvalue-minimisations  :   800
 total energy-change (2. order) :-0.2164642E-02  (-0.5196347E-03)
 number of electron       7.0000000 magnetization 
 augmentation part       -0.1748174 magnetization 

 Broyden mixing:
  rms(total) = 0.16566E-02    rms(broyden)= 0.16565E-02
  rms(prec ) = 0.28747E-02
  weight for this iteration     100.00

 eigenvalues of (default mixing * dielectric matrix)
  average eigenvalue GAMMA=   2.3010
  4.4803  3.2432  2.1868  2.0391  0.9883  0.8682

 Free energy of the ion-electron system (eV)
  ---------------------------------------------------
  alpha Z        PSCENC =         0.01972279
  Ewald energy   TEWEN  =        84.28533025
  -Hartree energ DENC   =      -188.30057322
  -exchange      EXHF   =         0.00000000
  -V(xc)+E(xc)   XCENC  =         3.85424217
  PAW double counting   =       155.30090651     -145.15921301
  entropy T*S    EENTRO =        -0.05641896
  eigenvalues    EBANDS =       -68.52112011
  atomic energy  EATOM  =       140.53052484
  Solvation  Ediel_sol  =         0.00000000
  ---------------------------------------------------
  free energy    TOTEN  =       -18.04659874 eV

  energy without entropy =      -17.99017978  energy(sigma->0) =      -18.01838926


--------------------------------------------------------------------------------------------------------




--------------------------------------- Iteration      1(  12)  ---------------------------------------


    POTLOK:  cpu time      1.3312: real time      1.3942
    SETDIJ:  cpu time      0.6248: real time      0.6281
    EDDIAG:  cpu time      2.9734: real time      3.2329
     EDDAV:  cpu time     12.5491: real time     13.5971
       DOS:  cpu time      0.0008: real time      0.0017
    CHARGE:  cpu time      9.8803: real time     10.1187
    MIXING:  cpu time      0.0232: real time      0.0235
    --------------------------------------------
      LOOP:  cpu time     27.3830: real time     28.9963

 eigenvalue-minimisations  :   480
 total energy-change (2. order) :-0.3882398E-03  (-0.1439036E-03)
 number of electron       7.0000000 magnetization 
 augmentation part       -0.1748060 magnetization 

 Broyden mixing:
  rms(total) = 0.11477E-02    rms(broyden)= 0.11477E-02
  rms(prec ) = 0.19138E-02
  weight for this iteration     100.00

 eigenvalues of (default mixing * dielectric matrix)
  average eigenvalue GAMMA=   2.4332
  4.3145  4.3145  2.4957  1.9509  1.9509  1.0030  1.0030

 Free energy of the ion-electron system (eV)
  ---------------------------------------------------
  alpha Z        PSCENC =         0.01972279
  Ewald energy   TEWEN  =        84.28533025
  -Hartree energ DENC   =      -188.39409948
  -exchange      EXHF   =         0.00000000
  -V(xc)+E(xc)   XCENC  =         3.85641546
  PAW double counting   =       155.41668840     -145.27526743
  entropy T*S    EENTRO =        -0.05641896
  eigenvalues    EBANDS =       -68.42988285
  atomic energy  EATOM  =       140.53052484
  Solvation  Ediel_sol  =         0.00000000
  ---------------------------------------------------
  free energy    TOTEN  =       -18.04698698 eV

  energy without entropy =      -17.99056802  energy(sigma->0) =      -18.01877750


--------------------------------------------------------------------------------------------------------




--------------------------------------- Iteration      1(  13)  ---------------------------------------


    POTLOK:  cpu time      1.3359: real time      1.4071
    SETDIJ:  cpu time      0.6217: real time      0.6257
    EDDIAG:  cpu time      2.9580: real time      3.2128
     EDDAV:  cpu time     15.4472: real time     16.7399
       DOS:  cpu time      0.0009: real time      0.0009
    CHARGE:  cpu time     11.3643: real time     11.6147
    MIXING:  cpu time      0.0214: real time      0.0215
    --------------------------------------------
      LOOP:  cpu time     31.7493: real time     33.6225

 eigenvalue-minimisations  :   680
 total energy-change (2. order) :-0.3039809E-03  (-0.3820860E-03)
 number of electron       7.0000000 magnetization 
 augmentation part       -0.1748647 magnetization 

 Broyden mixing:
  rms(total) = 0.52188E-03    rms(broyden)= 0.52263E-03
  rms(prec ) = 0.91972E-03
  weight for this iteration     100.00

 eigenvalues of (default mixing * dielectric matrix)
  average eigenvalue GAMMA=   2.5178
  5.3739  4.6779  2.8606  2.2932  1.9623  0.9804  0.9970  0.9970

 Free energy of the ion-electron system (eV)
  ---------------------------------------------------
  alpha Z        PSCENC =         0.01972279
  Ewald energy   TEWEN  =        84.28533025
  -Hartree energ DENC   =      -188.41477093
  -exchange      EXHF   =         0.00000000
  -V(xc)+E(xc)   XCENC  =         3.85230979
  PAW double counting   =       155.43238974     -145.29088258
  entropy T*S    EENTRO =        -0.05641896
  eigenvalues    EBANDS =       -68.40549591
  atomic energy  EATOM  =       140.53052484
  Solvation  Ediel_sol  =         0.00000000
  ---------------------------------------------------
  free energy    TOTEN  =       -18.04729096 eV

  energy without entropy =      -17.99087200  energy(sigma->0) =      -18.01908148


--------------------------------------------------------------------------------------------------------




--------------------------------------- Iteration      1(  14)  ---------------------------------------


    POTLOK:  cpu time      1.3336: real time      1.3969
    SETDIJ:  cpu time      0.6218: real time      0.6253
    EDDIAG:  cpu time      2.9470: real time      3.2034
     EDDAV:  cpu time     13.0184: real time     14.0917
       DOS:  cpu time      0.0008: real time      0.0008
    CHARGE:  cpu time     10.3298: real time     10.5657
    MIXING:  cpu time      0.0227: real time      0.0231
    --------------------------------------------
      LOOP:  cpu time     28.2741: real time     29.9068

 eigenvalue-minimisations  :   512
 total energy-change (2. order) :-0.3289606E-03  (-0.1462980E-03)
 number of electron       7.0000000 magnetization 
 augmentation part       -0.1748928 magnetization 

 Broyden mixing:
  rms(total) = 0.36621E-03    rms(broyden)= 0.36953E-03
  rms(prec ) = 0.55871E-03
  weight for this iteration     100.00

 eigenvalues of (default mixing * dielectric matrix)
  average eigenvalue GAMMA=   2.4436
  5.9805  4.6574  2.9995  2.3055  1.9445  0.9865  1.1552  1.1552  0.8082

 Free energy of the ion-electron system (eV)
  ---------------------------------------------------
  alpha Z        PSCENC =         0.01972279
  Ewald energy   TEWEN  =        84.28533025
  -Hartree energ DENC   =      -188.42111197
  -exchange      EXHF   =         0.00000000
  -V(xc)+E(xc)   XCENC  =         3.84827098
  PAW double counting   =       155.31779460     -145.17594774
  entropy T*S    EENTRO =        -0.05641896
  eigenvalues    EBANDS =       -68.39578472
  atomic energy  EATOM  =       140.53052484
  Solvation  Ediel_sol  =         0.00000000
  ---------------------------------------------------
  free energy    TOTEN  =       -18.04761992 eV

  energy without entropy =      -17.99120096  energy(sigma->0) =      -18.01941044


--------------------------------------------------------------------------------------------------------




--------------------------------------- Iteration      1(  15)  ---------------------------------------


    POTLOK:  cpu time      1.3404: real time      1.6595
    SETDIJ:  cpu time      0.6207: real time      0.6240
    EDDIAG:  cpu time      2.9559: real time      3.2051
     EDDAV:  cpu time     15.9235: real time     17.2445
       DOS:  cpu time      0.0010: real time      0.0010
    CHARGE:  cpu time      9.9947: real time     10.2207
    MIXING:  cpu time      0.0260: real time      0.0265
    --------------------------------------------
      LOOP:  cpu time     30.8622: real time     32.9813

 eigenvalue-minimisations  :   720
 total energy-change (2. order) :-0.1320603E-03  (-0.3008495E-04)
 number of electron       7.0000000 magnetization 
 augmentation part       -0.1748675 magnetization 

 Broyden mixing:
  rms(total) = 0.18429E-03    rms(broyden)= 0.23287E-03
  rms(prec ) = 0.27753E-03
  weight for this iteration     100.00
  WARNING: grid for Broyden might be to small

 eigenvalues of (default mixing * dielectric matrix)
  average eigenvalue GAMMA=   2.5188
  6.7562  4.6228  3.3862  2.4116  2.4116  1.9466  1.0413  1.0090  0.9578  0.6450

 Free energy of the ion-electron system (eV)
  ---------------------------------------------------
  alpha Z        PSCENC =         0.01972279
  Ewald energy   TEWEN  =        84.28533025
  -Hartree energ DENC   =      -188.44752657
  -exchange      EXHF   =         0.00000000
  -V(xc)+E(xc)   XCENC  =         3.84924409
  PAW double counting   =       155.40458087     -145.26291949
  entropy T*S    EENTRO =        -0.05641896
  eigenvalues    EBANDS =       -68.37028981
  atomic energy  EATOM  =       140.53052484
  Solvation  Ediel_sol  =         0.00000000
  ---------------------------------------------------
  free energy    TOTEN  =       -18.04775198 eV

  energy without entropy =      -17.99133302  energy(sigma->0) =      -18.01954250


--------------------------------------------------------------------------------------------------------




--------------------------------------- Iteration      1(  16)  ---------------------------------------


    POTLOK:  cpu time      1.3351: real time      1.3954
    SETDIJ:  cpu time      0.6216: real time      0.6244
    EDDIAG:  cpu time      3.2270: real time      3.4774
     EDDAV:  cpu time     16.8554: real time     18.2504
       DOS:  cpu time      0.0008: real time      0.0008
    CHARGE:  cpu time     10.5812: real time     10.8161
    MIXING:  cpu time      0.0236: real time      0.0239
    --------------------------------------------
      LOOP:  cpu time     32.6446: real time     34.5883

 eigenvalue-minimisations  :   784
 total energy-change (2. order) :-0.5317219E-04  (-0.5204410E-05)
 number of electron       7.0000000 magnetization 
 augmentation part       -0.1748721 magnetization 

 Broyden mixing:
  rms(total) = 0.11244E-03    rms(broyden)= 0.19344E-03
  rms(prec ) = 0.17629E-03
  weight for this iteration     100.00
  WARNING: grid for Broyden might be to small

 eigenvalues of (default mixing * dielectric matrix)
  average eigenvalue GAMMA=   2.4925
  7.3139  4.4544  3.6104  2.7836  2.2459  1.8447  1.5367  1.0524  0.9718  0.9718
  0.6323

 Free energy of the ion-electron system (eV)
  ---------------------------------------------------
  alpha Z        PSCENC =         0.01972279
  Ewald energy   TEWEN  =        84.28533025
  -Hartree energ DENC   =      -188.45293219
  -exchange      EXHF   =         0.00000000
  -V(xc)+E(xc)   XCENC  =         3.84944261
  PAW double counting   =       155.36806884     -145.22633928
  entropy T*S    EENTRO =        -0.05641896
  eigenvalues    EBANDS =       -68.36520407
  atomic energy  EATOM  =       140.53052484
  Solvation  Ediel_sol  =         0.00000000
  ---------------------------------------------------
  free energy    TOTEN  =       -18.04780515 eV

  energy without entropy =      -17.99138619  energy(sigma->0) =      -18.01959567


--------------------------------------------------------------------------------------------------------




--------------------------------------- Iteration      1(  17)  ---------------------------------------


    POTLOK:  cpu time      1.9706: real time      2.0558
    SETDIJ:  cpu time      0.6200: real time      0.6234
    EDDIAG:  cpu time      2.9434: real time      3.2006
     EDDAV:  cpu time     22.8086: real time     24.4393
       DOS:  cpu time      0.0004: real time      0.0004
    CHARGE:  cpu time     11.1375: real time     11.3761
    MIXING:  cpu time      0.0253: real time      0.0257
    --------------------------------------------
      LOOP:  cpu time     39.5057: real time     41.7212

 eigenvalue-minimisations  :   960
 total energy-change (2. order) :-0.7791178E+03  (-0.7685425E+03)
 number of electron       7.0000000 magnetization 
 augmentation part       -0.0026736 magnetization 

 Broyden mixing:
  rms(total) = 0.43858E+01    rms(broyden)= 0.10187E+03
  rms(prec ) = 0.51536E+01
  weight for this iteration     100.00
  WARNING: grid for Broyden might be to small

 eigenvalues of (default mixing * dielectric matrix)
  average eigenvalue GAMMA=   2.2848
  7.3139  4.4544  3.6104  2.7836  2.2459  1.8447  1.5367  1.0524  0.9718  0.9718
  0.6323  0.0000

 Free energy of the ion-electron system (eV)
  ---------------------------------------------------
  alpha Z        PSCENC =         0.01972279
  Ewald energy   TEWEN  =        84.28533025
  -Hartree energ DENC   =      -188.45217516
  -exchange      EXHF   =         0.00000000
  -V(xc)+E(xc)   XCENC  =         3.84924057
  PAW double counting   =       155.35162436     -145.20986657
  entropy T*S    EENTRO =        -0.00000000
  eigenvalues    EBANDS =      -847.53997414
  atomic energy  EATOM  =       140.53052484
  Solvation  Ediel_sol  =         0.00000000
  ---------------------------------------------------
  free energy    TOTEN  =      -797.16557305 eV

  energy without entropy =     -797.16557305  energy(sigma->0) =     -797.16557305


--------------------------------------------------------------------------------------------------------




--------------------------------------- Iteration      1(  18)  ---------------------------------------


    POTLOK:  cpu time      1.3630: real time      1.4249
    SETDIJ:  cpu time      0.6227: real time      0.6261
    EDDIAG:  cpu time      2.9421: real time      3.1960
     EDDAV:  cpu time     12.5965: real time     13.6550
       DOS:  cpu time      0.0008: real time      0.0008
    CHARGE:  cpu time     10.0011: real time     10.2360
    MIXING:  cpu time      0.0248: real time      0.0250
    --------------------------------------------
      LOOP:  cpu time     27.5510: real time     29.1636

 eigenvalue-minimisations  :   480
 total energy-change (2. order) : 0.7965784E+03  (-0.1009009E+04)
 number of electron       7.0000000 magnetization 
 augmentation part       -0.1597342 magnetization 

 Broyden mixing:
  rms(total) = 0.71702E+00    rms(broyden)= 0.37938E+00
  rms(prec ) = 0.56598E+00
  weight for this iteration     100.00
  WARNING: grid for Broyden might be to small

 eigenvalues of (default mixing * dielectric matrix)
  average eigenvalue GAMMA=   2.1090
  7.3486  4.3179  3.7466  2.7652  2.2497  1.8646  1.4877  1.0559  0.9743  0.9743
  0.6319  0.0002  0.0001

 Free energy of the ion-electron system (eV)
  ---------------------------------------------------
  alpha Z        PSCENC =         0.01972279
  Ewald energy   TEWEN  =        84.28533025
  -Hartree energ DENC   =      -188.54566116
  -exchange      EXHF   =         0.00000000
  -V(xc)+E(xc)   XCENC  =         6.63007668
  PAW double counting   =       155.27773548     -145.11985705
  entropy T*S    EENTRO =        -0.00499693
  eigenvalues    EBANDS =       -53.66000133
  atomic energy  EATOM  =       140.53052484
  Solvation  Ediel_sol  =         0.00000000
  ---------------------------------------------------
  free energy    TOTEN  =        -0.58712642 eV

  energy without entropy =       -0.58212949  energy(sigma->0) =       -0.58462795


--------------------------------------------------------------------------------------------------------




--------------------------------------- Iteration      1(  19)  ---------------------------------------


    POTLOK:  cpu time      1.3555: real time      1.4150
    SETDIJ:  cpu time      0.6226: real time      0.6259
    EDDIAG:  cpu time      2.9373: real time      3.1957
     EDDAV:  cpu time     15.2828: real time     16.5571
       DOS:  cpu time      0.0008: real time      0.0008
    CHARGE:  cpu time     10.4073: real time     10.6440
    MIXING:  cpu time      0.0223: real time      0.0229
    --------------------------------------------
      LOOP:  cpu time     30.6286: real time     32.4614

 eigenvalue-minimisations  :   672
 total energy-change (2. order) :-0.1205229E+02  (-0.9799857E+01)
 number of electron       7.0000000 magnetization 
 augmentation part       -0.1782006 magnetization 

 Broyden mixing:
  rms(total) = 0.28749E+00    rms(broyden)= 0.26644E+00
  rms(prec ) = 0.31160E+00
  weight for this iteration     100.00

 eigenvalues of (default mixing * dielectric matrix)
  average eigenvalue GAMMA=   1.9570
  7.3485  4.2954  3.7647  2.7610  2.2474  1.8708  1.4663  1.0578  0.9746  0.9746
  0.6318  0.0024  0.0024  0.0001

 Free energy of the ion-electron system (eV)
  ---------------------------------------------------
  alpha Z        PSCENC =         0.01972279
  Ewald energy   TEWEN  =        84.28533025
  -Hartree energ DENC   =      -185.24857062
  -exchange      EXHF   =         0.00000000
  -V(xc)+E(xc)   XCENC  =         3.87966911
  PAW double counting   =       154.13391926     -143.99154595
  entropy T*S    EENTRO =        -0.01116546
  eigenvalues    EBANDS =       -66.23730116
  atomic energy  EATOM  =       140.53052484
  Solvation  Ediel_sol  =         0.00000000
  ---------------------------------------------------
  free energy    TOTEN  =       -12.63941695 eV

  energy without entropy =      -12.62825148  energy(sigma->0) =      -12.63383422


--------------------------------------------------------------------------------------------------------




--------------------------------------- Iteration      1(  20)  ---------------------------------------


    POTLOK:  cpu time      1.3435: real time      1.4041
    SETDIJ:  cpu time      0.6206: real time      0.6239
    EDDIAG:  cpu time      2.9660: real time      3.2204
     EDDAV:  cpu time     15.3057: real time     16.5644
       DOS:  cpu time      0.0009: real time      0.0009
    CHARGE:  cpu time      9.9211: real time     10.1496
    MIXING:  cpu time      0.0255: real time      0.0260
    --------------------------------------------
      LOOP:  cpu time     30.1833: real time     31.9893

 eigenvalue-minimisations  :   672
 total energy-change (2. order) :-0.4140879E+01  (-0.3908554E+01)
 number of electron       7.0000000 magnetization 
 augmentation part       -0.1774009 magnetization 

 Broyden mixing:
  rms(total) = 0.99655E-01    rms(broyden)= 0.10314E+00
  rms(prec ) = 0.10469E+00
  weight for this iteration     100.00

 eigenvalues of (default mixing * dielectric matrix)
  average eigenvalue GAMMA=   1.8283
  7.3400  4.3313  3.7334  2.7683  2.2511  1.8723  1.4526  1.0587  0.9743  0.9743
  0.6319  0.0181  0.0092  0.0092  0.0001

 Free energy of the ion-electron system (eV)
  ---------------------------------------------------
  alpha Z        PSCENC =         0.01972279
  Ewald energy   TEWEN  =        84.28533025
  -Hartree energ DENC   =      -185.94339000
  -exchange      EXHF   =         0.00000000
  -V(xc)+E(xc)   XCENC  =         3.62289028
  PAW double counting   =       154.08099079     -143.93449479
  entropy T*S    EENTRO =        -0.05077099
  eigenvalues    EBANDS =       -69.39109865
  atomic energy  EATOM  =       140.53052484
  Solvation  Ediel_sol  =         0.00000000
  ---------------------------------------------------
  free energy    TOTEN  =       -16.78029548 eV

  energy without entropy =      -16.72952449  energy(sigma->0) =      -16.75490999


--------------------------------------------------------------------------------------------------------




--------------------------------------- Iteration      1(  21)  ---------------------------------------


    POTLOK:  cpu time      1.3453: real time      1.4463
    SETDIJ:  cpu time      0.6217: real time      0.6250
    EDDIAG:  cpu time      2.9528: real time      3.2032
     EDDAV:  cpu time     16.6401: real time     18.0267
       DOS:  cpu time      0.0009: real time      0.0009
    CHARGE:  cpu time     10.3543: real time     10.5994
    MIXING:  cpu time      0.0253: real time      0.0257
    --------------------------------------------
      LOOP:  cpu time     31.9403: real time     33.9272

 eigenvalue-minimisations  :   768
 total energy-change (2. order) :-0.1227780E+01  (-0.1232315E+01)
 number of electron       7.0000000 magnetization 
 augmentation part       -0.1763482 magnetization 

 Broyden mixing:
  rms(total) = 0.38679E-01    rms(broyden)= 0.77608E-01
  rms(prec ) = 0.42489E-01
  weight for this iteration     100.00
  WARNING: grid for Broyden might be to small

 eigenvalues of (default mixing * dielectric matrix)
  average eigenvalue GAMMA=   1.7842
  7.3324  4.6656  3.5267  2.8194  2.2276  1.8791  1.7280  1.0366  0.9760  0.9760
  0.6410  0.4007  0.1656  0.1656  0.0061  0.0001

 Free energy of the ion-electron system (eV)
  ---------------------------------------------------
  alpha Z        PSCENC =         0.01972279
  Ewald energy   TEWEN  =        84.28533025
  -Hartree energ DENC   =      -188.32250321
  -exchange      EXHF   =         0.00000000
  -V(xc)+E(xc)   XCENC  =         3.74582523
  PAW double counting   =       148.58158039     -138.41923931
  entropy T*S    EENTRO =        -0.05641511
  eigenvalues    EBANDS =       -68.37290090
  atomic energy  EATOM  =       140.53052484
  Solvation  Ediel_sol  =         0.00000000
  ---------------------------------------------------
  free energy    TOTEN  =       -18.00807502 eV

  energy without entropy =      -17.95165991  energy(sigma->0) =      -17.97986746


--------------------------------------------------------------------------------------------------------




--------------------------------------- Iteration      1(  22)  ---------------------------------------


    POTLOK:  cpu time      1.3508: real time      1.4122
    SETDIJ:  cpu time      0.6214: real time      0.6249
    EDDIAG:  cpu time      2.9499: real time      3.2149
     EDDAV:  cpu time     18.4058: real time     19.9607
       DOS:  cpu time      0.0008: real time      0.0008
    CHARGE:  cpu time      9.9067: real time     10.1354
    MIXING:  cpu time      0.0252: real time      0.0253
    --------------------------------------------
      LOOP:  cpu time     33.2606: real time     35.3742

 eigenvalue-minimisations  :   896
 total energy-change (2. order) :-0.3997361E-01  (-0.4753485E-01)
 number of electron       7.0000000 magnetization 
 augmentation part       -0.1747867 magnetization 

 Broyden mixing:
  rms(total) = 0.29176E-01    rms(broyden)= 0.37378E-01
  rms(prec ) = 0.31715E-01
  weight for this iteration     100.00
  WARNING: grid for Broyden might be to small

 eigenvalues of (default mixing * dielectric matrix)
  average eigenvalue GAMMA=   1.7085
  7.3634  4.5985  3.6087  2.8048  2.2204  1.8786  1.7702  1.0373  0.9788  0.9788
  0.6529  0.5462  0.3090  0.1449  0.1449  0.0061  0.0001

 Free energy of the ion-electron system (eV)
  ---------------------------------------------------
  alpha Z        PSCENC =         0.01972279
  Ewald energy   TEWEN  =        84.28533025
  -Hartree energ DENC   =      -187.68296369
  -exchange      EXHF   =         0.00000000
  -V(xc)+E(xc)   XCENC  =         3.75580900
  PAW double counting   =       155.43708165     -145.29166926
  entropy T*S    EENTRO =        -0.05641894
  eigenvalues    EBANDS =       -69.04546527
  atomic energy  EATOM  =       140.53052484
  Solvation  Ediel_sol  =         0.00000000
  ---------------------------------------------------
  free energy    TOTEN  =       -18.04804862 eV

  energy without entropy =      -17.99162968  energy(sigma->0) =      -18.01983915


--------------------------------------------------------------------------------------------------------




--------------------------------------- Iteration      1(  23)  ---------------------------------------


    POTLOK:  cpu time      1.3495: real time      1.4248
    SETDIJ:  cpu time      0.6189: real time      0.6221
    EDDIAG:  cpu time      2.9663: real time      3.2284
     EDDAV:  cpu time     18.0025: real time     19.4987
       DOS:  cpu time      0.0009: real time      0.0009
    CHARGE:  cpu time     10.3672: real time     10.6023
    MIXING:  cpu time      0.0267: real time      0.0274
    --------------------------------------------
      LOOP:  cpu time     33.3319: real time     35.4046

 eigenvalue-minimisations  :   864
 total energy-change (2. order) :-0.2818675E-02  (-0.1008989E-02)
 number of electron       7.0000000 magnetization 
 augmentation part       -0.1749319 magnetization 

 Broyden mixing:
  rms(total) = 0.26884E-01    rms(broyden)= 0.26978E-01
  rms(prec ) = 0.29483E-01
  weight for this iteration     100.00

 eigenvalues of (default mixing * dielectric matrix)
  average eigenvalue GAMMA=   1.7353
  7.3351  4.8314  3.5351  2.8460  2.1661  1.9900  1.9900  0.8694  0.8694  1.0592
  0.9655  0.9655  0.8830  0.6262  0.1489  0.1489  0.0061  0.0001

 Free energy of the ion-electron system (eV)
  ---------------------------------------------------
  alpha Z        PSCENC =         0.01972279
  Ewald energy   TEWEN  =        84.28533025
  -Hartree energ DENC   =      -187.56701011
  -exchange      EXHF   =         0.00000000
  -V(xc)+E(xc)   XCENC  =         3.76282616
  PAW double counting   =       154.76904004     -144.62315613
  entropy T*S    EENTRO =        -0.05641896
  eigenvalues    EBANDS =       -69.17172619
  atomic energy  EATOM  =       140.53052484
  Solvation  Ediel_sol  =         0.00000000
  ---------------------------------------------------
  free energy    TOTEN  =       -18.05086730 eV

  energy without entropy =      -17.99444834  energy(sigma->0) =      -18.02265782


--------------------------------------------------------------------------------------------------------




--------------------------------------- Iteration      1(  24)  ---------------------------------------


    POTLOK:  cpu time      1.3368: real time      1.4043
    SETDIJ:  cpu time      0.6190: real time      0.6223
    EDDIAG:  cpu time      2.9707: real time      3.2216
     EDDAV:  cpu time     17.9957: real time     19.4774
       DOS:  cpu time      0.0009: real time      0.0010
    CHARGE:  cpu time     10.1027: real time     10.3343
    MIXING:  cpu time      0.0271: real time      0.0274
    --------------------------------------------
      LOOP:  cpu time     33.0528: real time     35.0883

 eigenvalue-minimisations  :   864
 total energy-change (2. order) : 0.9573622E-04  (-0.6057003E-04)
 number of electron       7.0000000 magnetization 
 augmentation part       -0.1750709 magnetization 

 Broyden mixing:
  rms(total) = 0.23723E-01    rms(broyden)= 0.31785E-01
  rms(prec ) = 0.26386E-01
  weight for this iteration     100.00
  WARNING: grid for Broyden might be to small

 eigenvalues of (default mixing * dielectric matrix)
  average eigenvalue GAMMA=   1.6930
  7.2319  4.9775  3.4631  2.8488  2.1924  1.9595  1.9595  1.1949  1.1949  1.0593
  0.9585  0.9585  0.8868  0.6248  0.3519  0.1495  0.1495  0.0061  0.0001

 Free energy of the ion-electron system (eV)
  ---------------------------------------------------
  alpha Z        PSCENC =         0.01972279
  Ewald energy   TEWEN  =        84.28533025
  -Hartree energ DENC   =      -187.44951565
  -exchange      EXHF   =         0.00000000
  -V(xc)+E(xc)   XCENC  =         3.76114505
  PAW double counting   =       154.59422113     -144.44851819
  entropy T*S    EENTRO =        -0.05641896
  eigenvalues    EBANDS =       -69.28726283
  atomic energy  EATOM  =       140.53052484
  Solvation  Ediel_sol  =         0.00000000
  ---------------------------------------------------
  free energy    TOTEN  =       -18.05077156 eV

  energy without entropy =      -17.99435260  energy(sigma->0) =      -18.02256208


--------------------------------------------------------------------------------------------------------




--------------------------------------- Iteration      1(  25)  ---------------------------------------


    POTLOK:  cpu time      1.3328: real time      1.3950
    SETDIJ:  cpu time      0.6218: real time      0.6252
    EDDIAG:  cpu time      2.9427: real time      3.1926
     EDDAV:  cpu time     17.3423: real time     18.7626
       DOS:  cpu time      0.0008: real time      0.0008
    CHARGE:  cpu time      9.8611: real time     10.0869
    MIXING:  cpu time      0.0285: real time      0.0289
    --------------------------------------------
      LOOP:  cpu time     32.1300: real time     34.0919

 eigenvalue-minimisations  :   816
 total energy-change (2. order) : 0.3918150E-03  (-0.4542645E-04)
 number of electron       7.0000000 magnetization 
 augmentation part       -0.1751735 magnetization 

 Broyden mixing:
  rms(total) = 0.21300E-01    rms(broyden)= 0.21950E-01
  rms(prec ) = 0.24082E-01
  weight for this iteration     100.00

[...]

 Fermi energy:        -4.6738530012

 k-point     1 :       0.0000    0.0000    0.0000
  band No.  band energies     occupation 
      1     -13.7009      2.00000
      2      -9.0917      2.00000
      3      -9.0910      2.00000
      4      -4.6739      1.00000
      5      -0.0383      0.00000
      6       0.2230      0.00000
      7       0.3440      0.00000
      8       0.3565      0.00000

 k-point     2 :       0.2500    0.0000    0.0000
  band No.  band energies     occupation 
      1     -13.7009      2.00000
      2      -9.0917      2.00000
      3      -9.0910      2.00000
      4      -4.6739      1.00000
      5      -0.0189      0.00000
      6       0.1722      0.00000
      7       0.2964      0.00000
      8       0.3732      0.00000

 k-point     3 :       0.0000    0.2500    0.0000
  band No.  band energies     occupation 
      1     -13.7009      2.00000
      2      -9.0917      2.00000
      3      -9.0910      2.00000
      4      -4.6739      1.00000
      5      -0.0189      0.00000
      6       0.1722      0.00000
      7       0.2965      0.00000
      8       0.3714      0.00000

 k-point     4 :       0.0000    0.0000    0.2500
  band No.  band energies     occupation 
      1     -13.7009      2.00000
      2      -9.0917      2.00000
      3      -9.0910      2.00000
      4      -4.6739      1.00000
      5      -0.0202      0.00000
      6       0.1732      0.00000
      7       0.3220      0.00000
      8       0.3599      0.00000

 k-point     5 :       0.5000    0.0000    0.0000
  band No.  band energies     occupation 
      1     -13.7009      2.00000
      2      -9.0917      2.00000
      3      -9.0910      2.00000
      4      -4.6739      1.00000
      5       0.0146      0.00000
      6       0.1055      0.00000
      7       0.3083      0.00000
      8       0.3978      0.00000

 k-point     6 :       0.0000    0.5000    0.0000
  band No.  band energies     occupation 
      1     -13.7009      2.00000
      2      -9.0917      2.00000
      3      -9.0910      2.00000
      4      -4.6739      1.00000
      5       0.0146      0.00000
      6       0.1054      0.00000
      7       0.3084      0.00000
      8       0.3924      0.00000

 k-point     7 :       0.0000    0.0000    0.5000
  band No.  band energies     occupation 
      1     -13.7009      2.00000
      2      -9.0917      2.00000
      3      -9.0910      2.00000
      4      -4.6739      0.99999
      5       0.0088      0.00000
      6       0.1137      0.00000
      7       0.3271      0.00000
      8       0.3835      0.00000

 k-point     8 :       0.2500    0.2500    0.0000
  band No.  band energies     occupation 
      1     -13.7009      2.00000
      2      -9.0917      2.00000
      3      -9.0910      2.00000
      4      -4.6739      1.00000
      5      -0.0002      0.00000
      6       0.1728      0.00000
      7       0.2383      0.00000
      8       0.3476      0.00000

 k-point     9 :       0.0000    0.2500    0.2500
  band No.  band energies     occupation 
      1     -13.7009      2.00000
      2      -9.0917      2.00000
      3      -9.0910      2.00000
      4      -4.6739      1.00000
      5      -0.0018      0.00000
      6       0.1724      0.00000
      7       0.2457      0.00000
      8       0.3592      0.00000

 k-point    10 :       0.2500    0.0000    0.2500
  band No.  band energies     occupation 
      1     -13.7009      2.00000
      2      -9.0917      2.00000
      3      -9.0910      2.00000
      4      -4.6739      1.00000
      5      -0.0017      0.00000
      6       0.1724      0.00000
      7       0.2459      0.00000
      8       0.3604      0.00000

 k-point    11 :       0.0000   -0.2500    0.2500
  band No.  band energies     occupation 
      1     -13.7009      2.00000
      2      -9.0917      2.00000
      3      -9.0910      2.00000
      4      -4.6739      1.00000
      5      -0.0017      0.00000
      6       0.1723      0.00000
      7       0.2461      0.00000
      8       0.3661      0.00000

 k-point    12 :       0.5000    0.2500    0.0000
  band No.  band energies     occupation 
      1     -13.7009      2.00000
      2      -9.0917      2.00000
      3      -9.0910      2.00000
      4      -4.6739      1.00000
      5       0.0306      0.00000
      6       0.1284      0.00000
      7       0.2503      0.00000
      8       0.3092      0.00000

 k-point    13 :       0.0000    0.5000    0.2500
  band No.  band energies     occupation 
      1     -13.7009      2.00000
      2      -9.0917      2.00000
      3      -9.0910      2.00000
      4      -4.6739      1.00000
      5       0.0285      0.00000
      6       0.1286      0.00000
      7       0.2579      0.00000
      8       0.3128      0.00000

 k-point    14 :       0.2500    0.0000    0.5000
  band No.  band energies     occupation 
      1     -13.7009      2.00000
      2      -9.0917      2.00000
      3      -9.0910      2.00000
      4      -4.6739      1.00000
      5       0.0246      0.00000
      6       0.1369      0.00000
      7       0.2521      0.00000
      8       0.3222      0.00000

 k-point    15 :      -0.2500    0.5000    0.0000
  band No.  band energies     occupation 
      1     -13.7009      2.00000
      2      -9.0917      2.00000
      3      -9.0910      2.00000
      4      -4.6739      1.00000
      5       0.0306      0.00000
      6       0.1284      0.00000
      7       0.2503      0.00000
      8       0.3092      0.00000

 k-point    16 :       0.5000    0.0000    0.2500
  band No.  band energies     occupation 
      1     -13.7009      2.00000
      2      -9.0917      2.00000
      3      -9.0910      2.00000
      4      -4.6739      1.00000
      5       0.0285      0.00000
      6       0.1287      0.00000
      7       0.2579      0.00000
      8       0.3128      0.00000

 k-point    17 :       0.0000    0.2500    0.5000
  band No.  band energies     occupation 
      1     -13.7009      2.00000
      2      -9.0917      2.00000
      3      -9.0910      2.00000
      4      -4.6739      1.00000
      5       0.0246      0.00000
      6       0.1369      0.00000
      7       0.2521      0.00000
      8       0.3221      0.00000

 k-point    18 :       0.5000    0.5000    0.0000
  band No.  band energies     occupation 
      1     -13.7009      2.00000
      2      -9.0917      2.00000
      3      -9.0910      2.00000
      4      -4.6739      1.00000
      5       0.0538      0.00000
      6       0.1918      0.00000
      7       0.1940      0.00000
      8       0.2027      0.00000

 k-point    19 :       0.0000    0.5000    0.5000
  band No.  band energies     occupation 
      1     -13.7009      2.00000
      2      -9.0917      2.00000
      3      -9.0910      2.00000
      4      -4.6739      1.00000
      5       0.0472      0.00000
      6       0.1929      0.00000
      7       0.2037      0.00000
      8       0.2094      0.00000

 k-point    20 :       0.5000    0.0000    0.5000
  band No.  band energies     occupation 
      1     -13.7009      2.00000
      2      -9.0917      2.00000
      3      -9.0910      2.00000
      4      -4.6739      1.00000
      5       0.0473      0.00000
      6       0.1929      0.00000
      7       0.2039      0.00000
      8       0.2094      0.00000

 k-point    21 :       0.2500    0.2500    0.2500
  band No.  band energies     occupation 
      1     -13.7009      2.00000
      2      -9.0917      2.00000
      3      -9.0910      2.00000
      4      -4.6739      1.00000
      5       0.0159      0.00000
      6       0.1782      0.00000
      7       0.2590      0.00000
      8       0.2723      0.00000

 k-point    22 :      -0.2500   -0.2500    0.2500
  band No.  band energies     occupation 
      1     -13.7009      2.00000
      2      -9.0917      2.00000
      3      -9.0910      2.00000
      4      -4.6739      1.00000
      5       0.0159      0.00000
      6       0.1783      0.00000
      7       0.2600      0.00000
      8       0.2723      0.00000

 k-point    23 :       0.5000    0.2500    0.2500
  band No.  band energies     occupation 
      1     -13.7009      2.00000
      2      -9.0917      2.00000
      3      -9.0910      2.00000
      4      -4.6739      1.00000
      5       0.0434      0.00000
      6       0.1513      0.00000
      7       0.2529      0.00000
      8       0.3343      0.00000

 k-point    24 :       0.2500    0.5000    0.2500
  band No.  band energies     occupation 
      1     -13.7009      2.00000
      2      -9.0917      2.00000
      3      -9.0910      2.00000
      4      -4.6739      1.00000
      5       0.0434      0.00000
      6       0.1515      0.00000
      7       0.2531      0.00000
      8       0.3289      0.00000

 k-point    25 :       0.2500    0.2500    0.5000
  band No.  band energies     occupation 
      1     -13.7009      2.00000
      2      -9.0917      2.00000
      3      -9.0910      2.00000
      4      -4.6739      1.00000
      5       0.0395      0.00000
      6       0.1601      0.00000
      7       0.2518      0.00000
      8       0.3164      0.00000

 k-point    26 :       0.5000   -0.2500    0.2500
  band No.  band energies     occupation 
      1     -13.7009      2.00000
      2      -9.0917      2.00000
      3      -9.0910      2.00000
      4      -4.6739      1.00000
      5       0.0435      0.00000
      6       0.1518      0.00000
      7       0.2535      0.00000
      8       0.3226      0.00000

 k-point    27 :       0.5000    0.5000    0.2500
  band No.  band energies     occupation 
      1     -13.7009      2.00000
      2      -9.0917      2.00000
      3      -9.0910      2.00000
      4      -4.6739      1.00000
      5       0.0640      0.00000
      6       0.2142      0.00000
      7       0.2166      0.00000
      8       0.2262      0.00000

 k-point    28 :       0.2500    0.5000    0.5000
  band No.  band energies     occupation 
      1     -13.7009      2.00000
      2      -9.0917      2.00000
      3      -9.0910      2.00000
      4      -4.6739      1.00001
      5       0.0600      0.00000
      6       0.2150      0.00000
      7       0.2271      0.00000
      8       0.2324      0.00000

 k-point    29 :       0.5000    0.2500    0.5000
  band No.  band energies     occupation 
      1     -13.7009      2.00000
      2      -9.0917      2.00000
      3      -9.0910      2.00000
      4      -4.6739      1.00000
      5       0.0600      0.00000
      6       0.2150      0.00000
      7       0.2274      0.00000
      8       0.2324      0.00000

 k-point    30 :       0.5000    0.5000    0.5000
  band No.  band energies     occupation 
      1     -13.7009      2.00000
      2      -9.0917      2.00000
      3      -9.0910      2.00000
      4      -4.6739      1.00001
      5       0.0763      0.00000
      6       0.2682      0.00000
      7       0.2735      0.00000
      8       0.2963      0.00000


--------------------------------------------------------------------------------------------------------


 soft charge-density along one line, spin component           1
         0         1         2         3         4         5         6         7         8         9
 total charge-density along one line

 pseudopotential strength for first ion, spin component:           1
 18.027 -18.550  -0.000   0.006  -0.000   0.000  -0.029  -0.000
-18.550  50.205  -0.000  -0.009  -0.000  -0.000   0.042   0.000
 -0.000  -0.000   3.994   0.000  -0.000 -11.776   0.000   0.000
  0.006  -0.009   0.000   3.995   0.000   0.000 -11.789  -0.000
 -0.000  -0.000  -0.000   0.000   3.994   0.000  -0.000 -11.776
  0.000  -0.000 -11.776   0.000   0.000  37.880  -0.000   0.000
 -0.029   0.042   0.000 -11.789  -0.000  -0.000  37.947  -0.000
 -0.000   0.000   0.000  -0.000 -11.776   0.000  -0.000  37.880
 -0.000   0.000   0.000   0.000  -0.011  -0.002  -0.000   0.029
  0.000   0.000  -0.003  -0.000   0.000   0.015   0.000  -0.000
  0.002  -0.003  -0.000   0.014   0.000   0.000  -0.014  -0.000
  0.000  -0.000   0.000   0.000  -0.003  -0.000   0.000   0.015
  0.000   0.000  -0.011   0.000  -0.000   0.029  -0.000   0.002
 -0.000   0.000  -0.001  -0.000   0.029  -0.000  -0.000  -0.026
  0.000  -0.000  -0.004   0.000  -0.000   0.062  -0.000  -0.000
 -0.023   0.028  -0.000  -0.027   0.000   0.000   0.060  -0.000
  0.000  -0.000  -0.000   0.000  -0.004  -0.000   0.000   0.062
 -0.000   0.000   0.029  -0.000   0.001  -0.025   0.000   0.000
 total augmentation occupancy for first ion, spin component:           1
  1.548   0.027  -0.000   0.015   0.000   0.000  -0.008   0.000   0.000   0.000  -0.082   0.000   0.000   0.000   0.000  -0.002
  0.027   0.001   0.000  -0.009   0.000   0.000  -0.000   0.000   0.000   0.000  -0.002   0.000   0.000   0.000   0.000  -0.000
 -0.000   0.000   1.355   0.000   0.000   0.042   0.000   0.000   0.000  -0.143  -0.000   0.000  -0.232   0.000  -0.001  -0.000
  0.015  -0.009   0.000   0.932   0.000   0.000   0.014   0.000   0.000  -0.000   0.055   0.000  -0.000   0.000  -0.000  -0.000
  0.000   0.000   0.000   0.000   1.356   0.000   0.000   0.042  -0.232   0.000   0.000  -0.143   0.000  -0.001   0.000   0.000
  0.000   0.000   0.042   0.000   0.000   0.001   0.000   0.000   0.000  -0.004  -0.000   0.000  -0.007   0.000  -0.000  -0.000
 -0.008  -0.000   0.000   0.014   0.000   0.000   0.000   0.000   0.000  -0.000   0.001   0.000  -0.000   0.000  -0.000   0.000
  0.000   0.000   0.000   0.000   0.042   0.000   0.000   0.001  -0.007   0.000   0.000  -0.004   0.000  -0.000   0.000   0.000
  0.000   0.000   0.000   0.000  -0.232   0.000   0.000  -0.007   0.040   0.000   0.000   0.025   0.000   0.000   0.000   0.000
  0.000   0.000  -0.143  -0.000   0.000  -0.004  -0.000   0.000   0.000   0.015  -0.000   0.000   0.024   0.000   0.000   0.000
 -0.082  -0.002  -0.000   0.055   0.000  -0.000   0.001   0.000   0.000  -0.000   0.008   0.000  -0.000   0.000  -0.000   0.000
  0.000   0.000   0.000   0.000  -0.143   0.000   0.000  -0.004   0.025   0.000   0.000   0.015   0.000   0.000   0.000   0.000
  0.000   0.000  -0.232  -0.000   0.000  -0.007  -0.000   0.000   0.000   0.024  -0.000   0.000   0.040   0.000   0.000   0.000
  0.000   0.000   0.000   0.000  -0.001   0.000   0.000  -0.000   0.000   0.000   0.000   0.000   0.000   0.000   0.000   0.000
  0.000   0.000  -0.001  -0.000   0.000  -0.000  -0.000   0.000   0.000   0.000  -0.000   0.000   0.000   0.000   0.000   0.000
 -0.002  -0.000  -0.000  -0.000   0.000  -0.000   0.000   0.000   0.000   0.000   0.000   0.000   0.000   0.000   0.000   0.000
  0.000   0.000   0.000   0.000  -0.001   0.000   0.000  -0.000   0.000   0.000   0.000   0.000   0.000   0.000   0.000   0.000
 -0.000  -0.000  -0.001  -0.000   0.000  -0.000   0.000   0.000   0.000   0.000   0.000   0.000   0.000   0.000   0.000   0.000


------------------------ aborting loop because EDIFF is reached ----------------------------------------


    CHARGE:  cpu time      7.9590: real time      8.0644
    FORLOC:  cpu time      0.0394: real time      0.0395
    FORNL :  cpu time      0.1417: real time      0.1429
    STRESS:  cpu time     20.7705: real time     22.5957
    FORCOR:  cpu time      1.2273: real time      1.2704
    FORHAR:  cpu time      0.0929: real time      0.1006
    MIXING:  cpu time      0.0480: real time      0.0498
    OFIELD:  cpu time      0.0001: real time      0.0001

  FORCE on cell =-STRESS in cart. coord.  units (eV):
  Direction    XX          YY          ZZ          XY          YZ          ZX
  --------------------------------------------------------------------------------------
  Alpha Z     0.01965     0.01965     0.01965
  Ewald      45.53710    45.51295    -6.62664     0.00000     0.00724    -0.00000
  Hartree    69.21727    69.20400    50.11434     0.00000     0.00192    -0.00000
  E(xc)     -20.82398   -20.82356   -20.44490     0.00000     0.00018     0.00000
  Local    -171.26005  -171.22444  -100.33927    -0.00000    -0.00919    -0.00000
  n-local    28.73384    28.73031    23.48926     0.00017     0.00160    -0.00002
  augment    -4.94437    -4.94396    -4.53648    -0.00000    -0.00006     0.00000
  Kinetic    53.51901    53.51936    58.31945     0.00001     0.00021    -0.00000
  Fock        0.00000     0.00000     0.00000     0.00000     0.00000     0.00000
  -------------------------------------------------------------------------------------
  Total      -0.00152    -0.00570    -0.00460     0.00000     0.00192     0.00000
  in kB      -0.00030    -0.00114    -0.00092     0.00000     0.00038     0.00000
  external pressure =       -0.00 kB  Pullay stress =        0.00 kB


 VOLUME and BASIS-vectors are now :
 -----------------------------------------------------------------------------
  energy-cutoff  :      600.00
  volume of cell :     8029.82
      direct lattice vectors                 reciprocal lattice vectors
    20.031872991  0.000000000  0.000000000     0.049920444  0.000000000  0.000000000
     0.000000000 20.037246683  0.000136493     0.000000000  0.049907056 -0.000000337
     0.000000000  0.000134909 20.005361823     0.000000000 -0.000000341  0.049986599

  length of vectors
    20.031872991 20.037246683 20.005361823     0.049920444  0.049907056  0.049986599


 FORCES acting on ions
    electron-ion (+dipol)            ewald-force                    non-local-force                 convergence-correction
 -----------------------------------------------------------------------------------------------
   0.307E-08 -.655E-02 -.251E+02   0.711E-14 0.368E-02 0.231E+02   0.352E-22 0.503E-02 0.214E+01   0.422E-13 0.140E-03 0.424E-03
   0.311E-13 -.261E+02 0.678E+01   -.444E-15 0.292E+02 -.768E+01   -.434E-21 -.307E+01 0.906E+00   0.133E-13 0.888E-03 -.263E-03
   -.226E+02 0.130E+02 0.678E+01   0.253E+02 -.146E+02 -.769E+01   -.266E+01 0.154E+01 0.907E+00   0.780E-03 -.440E-03 -.258E-03
   0.226E+02 0.130E+02 0.678E+01   -.253E+02 -.146E+02 -.769E+01   0.266E+01 0.154E+01 0.907E+00   -.780E-03 -.440E-03 -.258E-03
 -----------------------------------------------------------------------------------------------
   0.307E-08 -.536E-02 -.487E+01   0.000E+00 0.000E+00 0.000E+00   0.000E+00 0.748E-02 0.486E+01   0.702E-13 0.148E-03 -.354E-03


 POSITION                                       TOTAL-FORCE (eV/Angst)
 -----------------------------------------------------------------------------------
     10.01594     10.01857     10.07112         0.000000      0.003671      0.003444
     10.01594     11.43504      9.63637         0.000000     -0.000358     -0.000071
     11.24245      9.31057      9.63617         0.003567     -0.001657     -0.001687
      8.78943      9.31057      9.63617        -0.003567     -0.001657     -0.001687
 -----------------------------------------------------------------------------------
    total drift:                                0.000000      0.002268     -0.004857


--------------------------------------------------------------------------------------------------------



  FREE ENERGIE OF THE ION-ELECTRON SYSTEM (eV)
  ---------------------------------------------------
  free  energy   TOTEN  =       -18.04832183 eV

  energy  without entropy=      -17.99190287  energy(sigma->0) =      -18.02011235

 d Force = 0.1718216E-05[-0.210E-06, 0.365E-05]  d Energy =-0.3303552E-04 0.348E-04
 d Force =-0.1277138E-01[-0.128E-01,-0.128E-01]  d Ewald  =-0.1435036E-01 0.158E-02


--------------------------------------------------------------------------------------------------------


    POTLOK:  cpu time      1.9568: real time      2.0217


--------------------------------------------------------------------------------------------------------




--------------------------------------------------------------------------------------------------------


  
 reached required accuracy - stopping structural energy minimisation
     LOOP+:  cpu time   1626.6582: real time   1714.9469
