4
Lattice="20.0 0.0 0.0 0.0 20.0 0.0 0.0 0.0 20.0" Properties=species:S:1:pos:R:3:forces:R:3 energy=-147.381237911979 free_energy=-147.381237911979 pbc="T T T"
Si      10.00000000       9.99999991      10.22299910       0.00000000      -0.00000001      -0.00005317
H       10.00000000      11.32305108       9.58203898       0.00000000       0.00007276       0.00001772
H       11.14579604       9.33847450       9.58203896       0.00006215      -0.00003638       0.00001773
H        8.85420396       9.33847450       9.58203896      -0.00006215      -0.00003638       0.00001773
