4
Lattice="20.0 0.0 0.0 0.0 20.0 0.0 0.0 0.0 20.0" Properties=species:S:1:pos:R:3:forces:R:3:energies:R:1 energy=-14.778814177939099 free_energy=-14.778814177939099 stress="-1.7958912550154898e-09 -3.2400568719303207e-21 -2.0908529079765257e-20 -3.2400568719303207e-21 -1.8025985468239177e-09 2.6634354832930218e-11 -2.0908529079765257e-20 2.6634354832930218e-11 -1.6604741021438723e-10" pbc="T T T"
Si      10.00000000      10.00000001      10.15207062       0.00000000      -0.00000039       0.00000243      -3.40022166
H       10.00000000      11.38471584       9.60568184       0.00000000       0.00000707      -0.00000091      -3.79286421
H       11.19919907       9.30764208       9.60568177       0.00000599      -0.00000334      -0.00000076      -3.79286415
H        8.80080093       9.30764208       9.60568177      -0.00000599      -0.00000334      -0.00000076      -3.79286415
