
units metal
atom_style atomic

read_data ${data_file}
read_data /u/vld/spet5633/Silicon/a-Si_potential/DFT_1200eV/Testing/Paper/l-SiH/1,000_structures/NVT_2.58/Hconc-50/10/*.data
ERROR: Cannot open file /u/vld/spet5633/Silicon/a-Si_potential/DFT_1200eV/Testing/Paper/l-SiH/1,000_structures/NVT_2.58/Hconc-50/10/*.data: No such file or directory (src/read_data.cpp:369)
Last input line: read_data ${data_file}

units metal
atom_style atomic

read_data ${data_file}
read_data /u/vld/spet5633/Silicon/a-Si_potential/DFT_1200eV/Testing/Paper/l-SiH/1,000_structures/NVT_2.58/Hconc-50/10/SiH.data
Reading data file ...
  orthogonal box = (0 0 0) to (21.076377 21.076377 21.076377)
  2 by 2 by 4 MPI processor grid
  reading atoms ...
  1000 atoms
  read_data CPU = 0.015 seconds
# reset_timestep 0

mass 2 28.0855
mass 1 1.00784

labelmap atom 2 Si 1 H

pair_style  pace
ACE version: 2023.11.25
Recursive evaluator is used
pair_coeff  * * ${yacepot} H Si
pair_coeff  * * /u/vld/spet5633/Silicon/a-Si_potential/DFT_1200eV/Testing/Ites/Ite_6.8_kappa_auto_10/output_potential_tuned_repulsion_vHH_vSiH.yaml H Si
Loading /u/vld/spet5633/Silicon/a-Si_potential/DFT_1200eV/Testing/Ites/Ite_6.8_kappa_auto_10/output_potential_tuned_repulsion_vHH_vSiH.yaml
Total number of basis functions
	H: 26 (r=1) 1352 (r>1)
	Si: 28 (r=1) 2101 (r>1)
Mapping LAMMPS atom type #1(H) -> ACE species type #0
Mapping LAMMPS atom type #2(Si) -> ACE species type #1


neighbor 2.0 bin #default bin value for unit style (ie. metal)
neigh_modify every 1 delay 0 check yes #rebuild the neighbor list at every timestep

variable Nfreq equal 1000
variable Nprint equal 1000
variable Nevery equal 1000
variable Nrepeat equal ${Nfreq}/${Nevery}
variable Nrepeat equal 1000/${Nevery}
variable Nrepeat equal 1000/1000
variable Ndump equal ${ndump}
variable Ndump equal 10000
#variable nAtoms equal atoms
#variable Nrestart equal ${quench_timesteps}/15

timestep 0.0001

fix removeMomentum all momentum 1 linear 1 1 1

compute T all temp
fix TempAve all ave/time ${Nevery} ${Nrepeat} ${Nfreq} c_T
fix TempAve all ave/time 1000 ${Nrepeat} ${Nfreq} c_T
fix TempAve all ave/time 1000 1 ${Nfreq} c_T
fix TempAve all ave/time 1000 1 1000 c_T

variable P equal press
fix PressAve all ave/time ${Nevery} ${Nrepeat} ${Nfreq} v_P
fix PressAve all ave/time 1000 ${Nrepeat} ${Nfreq} v_P
fix PressAve all ave/time 1000 1 ${Nfreq} v_P
fix PressAve all ave/time 1000 1 1000 v_P

variable v equal vol
fix vAve all ave/time ${Nevery} ${Nrepeat} ${Nfreq} v_v
fix vAve all ave/time 1000 ${Nrepeat} ${Nfreq} v_v
fix vAve all ave/time 1000 1 ${Nfreq} v_v
fix vAve all ave/time 1000 1 1000 v_v

compute PE all pe pair
fix PEAve all ave/time ${Nevery} ${Nrepeat} ${Nfreq} c_PE
fix PEAve all ave/time 1000 ${Nrepeat} ${Nfreq} c_PE
fix PEAve all ave/time 1000 1 ${Nfreq} c_PE
fix PEAve all ave/time 1000 1 1000 c_PE
compute PEa all pe/atom pair

compute MSD all msd

thermo_style custom step cpu temp f_TempAve press f_PressAve f_PEAve vol f_vAve c_MSD[4]
thermo_modify flush yes
thermo ${Nfreq}
thermo 1000


######### Extrapolation grade check for >5  #########
# fix pace_gamma_1 all pair 100 pace/extrapolation gamma 1 # compute per-atom extrapolation grade every 10 steps
# compute gamma_ave all reduce ave f_pace_gamma_1 # compute average gamma
# compute max_pace_gamma_1 all reduce max f_pace_gamma_1 # compute maximum extrapolation grade over complete structure
# dump extrapolative structures if c_max_pace_gamma > 5, skip otherwise, check every 20 steps
# variable dump_skip equal "c_max_pace_gamma_1 < 5"
# dump pace_dump all custom 100 ${rundir}/out_str/extrapolative_structures.dump id element x y z# f_pace_gamma_1
# dump_modify pace_dump skip v_dump_skip
# dump_modify pace_dump element H Si


######### Dumping  #########
# fix pace_gamma_reg all pair ${Ndump} pace/extrapolation gamma 1 # compute per-atom extrapolation grade every 10 steps
dump ens all custom ${Ndump} ${rundir}/NPT/dump_custom_pace id element x y z fx fy fz c_PEa #f_pace_gamma_reg
dump ens all custom 10000 ${rundir}/NPT/dump_custom_pace id element x y z fx fy fz c_PEa 
dump ens all custom 10000 /u/vld/spet5633/Silicon/a-Si_potential/DFT_1200eV/Testing/Paper/l-SiH/1,000_structures/NVT_2.58/Hconc-50/10/NPT/dump_custom_pace id element x y z fx fy fz c_PEa 
#difference between dump ens and dump sep is that dump sep has a .dat file for each timestep vs ens is 1 big file
dump_modify ens sort 1 #sorting the dump by the 1st column of data ie the id
dump_modify ens element H Si

# variable max_pace_gamma equal c_gamma_ave
# fix extreme_extrapolation all halt 10 v_max_pace_gamma > 25

minimize 0 1.0e-6 1000 100000

CITE-CITE-CITE-CITE-CITE-CITE-CITE-CITE-CITE-CITE-CITE-CITE-CITE

Your simulation uses code contributions which should be cited:

- Type Label Framework: https://doi.org/10.1021/acs.jpcb.3c08419

@Article{Gissinger24,
 author = {Jacob R. Gissinger, Ilia Nikiforov, Yaser Afshar, Brendon Waters, Moon-ki Choi, Daniel S. Karls, Alexander Stukowski, Wonpil Im, Hendrik Heinz, Axel Kohlmeyer, and Ellad B. Tadmor},
 title = {Type Label Framework for Bonded Force Fields in LAMMPS},
 journal = {J. Phys. Chem. B},
 year =    2024,
 volume =  128,
 number =  13,
 pages =   {3282--3297}
}

CITE-CITE-CITE-CITE-CITE-CITE-CITE-CITE-CITE-CITE-CITE-CITE-CITE

Neighbor list info ...
  update: every = 1 steps, delay = 0 steps, check = yes
  max neighbors/atom: 2000, page size: 100000
  master list distance cutoff = 8.4
  ghost atom cutoff = 8.4
  binsize = 4.2, bins = 6 6 6
  1 neighbor lists, perpetual/occasional/extra = 1 0 0
  (1) pair pace, perpetual
      attributes: full, newton on
      pair build: full/bin/atomonly
      stencil: full/bin/3d
      bin: standard
Per MPI rank memory allocation (min/avg/max) = 4.761 | 4.763 | 4.765 Mbytes
   Step          CPU            Temp        f_TempAve        Press        f_PressAve      f_PEAve         Volume         f_vAve        c_MSD[4]   
         0   0              0              0              423700.98      0              0              9362.4153      0              0            
       225   49.750691      0              0              20977.627      0              0              9362.4153      0              0.59323814   
Loop time of 49.752 on 16 procs for 225 steps with 1000 atoms

92.8% CPU use with 16 MPI tasks x 1 OpenMP threads

Minimization stats:
  Stopping criterion = linesearch alpha is zero
  Energy initial, next-to-last, final = 
     -3234.84392403438  -4371.29406108906  -4371.29406108906
  Force two-norm initial, final = 217.68391 65.282836
  Force max component initial, final = 27.915367 35.518303
  Final line search alpha, max atom move = 2.622092e-12 9.3132257e-11
  Iterations, force evaluations = 225 1376

MPI task timing breakdown:
Section |  min time  |  avg time  |  max time  |%varavg| %total
---------------------------------------------------------------
Pair    | 39.897     | 44.47      | 48.945     |  39.1 | 89.38
Neigh   | 0.0011058  | 0.0012003  | 0.0013216  |   0.2 |  0.00
Comm    | 0.75119    | 5.2232     | 9.79       | 113.9 | 10.50
Output  | 0          | 0          | 0          |   0.0 |  0.00
Modify  | 0          | 0          | 0          |   0.0 |  0.00
Other   |            | 0.058      |            |       |  0.12

Nlocal:           62.5 ave          67 max          57 min
Histogram: 1 1 1 1 3 1 2 0 2 4
Nghost:        1690.56 ave        1712 max        1682 min
Histogram: 3 4 3 3 0 1 0 0 1 1
Neighs:              0 ave           0 max           0 min
Histogram: 16 0 0 0 0 0 0 0 0 0
FullNghs:      16516.8 ave       17946 max       14980 min
Histogram: 2 0 1 3 1 3 2 0 2 2

Total # of neighbors = 264268
Ave neighs/atom = 264.268
Neighbor list builds = 3
Dangerous builds = 0

velocity all create ${t_anneal} ${rand}
velocity all create 2000 ${rand}
velocity all create 2000 290663100

fix integrate all nvt temp ${t_anneal} ${t_anneal} $(100.0*dt) #iso 0.0 0.0 $(1000.0*dt)
fix integrate all nvt temp 2000 ${t_anneal} $(100.0*dt) 
fix integrate all nvt temp 2000 2000 $(100.0*dt) 
fix integrate all nvt temp 2000 2000 0.010000000000000000208 
run ${anneal_timesteps}
run 1000000
Per MPI rank memory allocation (min/avg/max) = 5.021 | 5.023 | 5.025 Mbytes
   Step          CPU            Temp        f_TempAve        Press        f_PressAve      f_PEAve         Volume         f_vAve        c_MSD[4]   
       225   0              2000           0              50441.601      0              0              9362.4153      0              0.59323814   
      1000   30.974036      73836.133      73836.133      1817885.9      1817885.9     -4051.2691      9362.4153      9362.4153      31.997763    
ERROR: Lost atoms: original 1000 current 998
For more information see https://docs.lammps.org/err0008 (src/thermo.cpp:518)

units metal
atom_style atomic

read_data ${data_file}
read_data /u/vld/spet5633/Silicon/a-Si_potential/DFT_1200eV/Testing/Paper/l-SiH/1,000_structures/NVT_2.58/Hconc-50/10/SiH.data
Reading data file ...
  orthogonal box = (0 0 0) to (21.076377 21.076377 21.076377)
  2 by 2 by 4 MPI processor grid
  reading atoms ...
  1000 atoms
  read_data CPU = 0.009 seconds
# reset_timestep 0

mass 2 28.0855
mass 1 1.00784

labelmap atom 2 Si 1 H

pair_style  pace
ACE version: 2023.11.25
Recursive evaluator is used
pair_coeff  * * ${yacepot} H Si
pair_coeff  * * /u/vld/spet5633/Silicon/a-Si_potential/DFT_1200eV/Testing/Ites/Ite_6.8_kappa_auto_10/output_potential_tuned_repulsion_vHH_vSiH.yaml H Si
Loading /u/vld/spet5633/Silicon/a-Si_potential/DFT_1200eV/Testing/Ites/Ite_6.8_kappa_auto_10/output_potential_tuned_repulsion_vHH_vSiH.yaml
Total number of basis functions
	H: 26 (r=1) 1352 (r>1)
	Si: 28 (r=1) 2101 (r>1)
Mapping LAMMPS atom type #1(H) -> ACE species type #0
Mapping LAMMPS atom type #2(Si) -> ACE species type #1


neighbor 2.0 bin #default bin value for unit style (ie. metal)
neigh_modify every 1 delay 0 check yes #rebuild the neighbor list at every timestep

variable Nfreq equal 1000
variable Nprint equal 1000
variable Nevery equal 1000
variable Nrepeat equal ${Nfreq}/${Nevery}
variable Nrepeat equal 1000/${Nevery}
variable Nrepeat equal 1000/1000
variable Ndump equal ${ndump}
variable Ndump equal 10000
#variable nAtoms equal atoms
#variable Nrestart equal ${quench_timesteps}/15

timestep 0.0001

fix removeMomentum all momentum 1 linear 1 1 1

compute T all temp
fix TempAve all ave/time ${Nevery} ${Nrepeat} ${Nfreq} c_T
fix TempAve all ave/time 1000 ${Nrepeat} ${Nfreq} c_T
fix TempAve all ave/time 1000 1 ${Nfreq} c_T
fix TempAve all ave/time 1000 1 1000 c_T

variable P equal press
fix PressAve all ave/time ${Nevery} ${Nrepeat} ${Nfreq} v_P
fix PressAve all ave/time 1000 ${Nrepeat} ${Nfreq} v_P
fix PressAve all ave/time 1000 1 ${Nfreq} v_P
fix PressAve all ave/time 1000 1 1000 v_P

variable v equal vol
fix vAve all ave/time ${Nevery} ${Nrepeat} ${Nfreq} v_v
fix vAve all ave/time 1000 ${Nrepeat} ${Nfreq} v_v
fix vAve all ave/time 1000 1 ${Nfreq} v_v
fix vAve all ave/time 1000 1 1000 v_v

compute PE all pe pair
fix PEAve all ave/time ${Nevery} ${Nrepeat} ${Nfreq} c_PE
fix PEAve all ave/time 1000 ${Nrepeat} ${Nfreq} c_PE
fix PEAve all ave/time 1000 1 ${Nfreq} c_PE
fix PEAve all ave/time 1000 1 1000 c_PE
compute PEa all pe/atom pair

compute MSD all msd

thermo_style custom step cpu temp f_TempAve press f_PressAve f_PEAve vol f_vAve c_MSD[4]
thermo_modify flush yes
thermo ${Nfreq}
thermo 1000


######### Extrapolation grade check for >5  #########
# fix pace_gamma_1 all pair 100 pace/extrapolation gamma 1 # compute per-atom extrapolation grade every 10 steps
# compute gamma_ave all reduce ave f_pace_gamma_1 # compute average gamma
# compute max_pace_gamma_1 all reduce max f_pace_gamma_1 # compute maximum extrapolation grade over complete structure
# dump extrapolative structures if c_max_pace_gamma > 5, skip otherwise, check every 20 steps
# variable dump_skip equal "c_max_pace_gamma_1 < 5"
# dump pace_dump all custom 100 ${rundir}/out_str/extrapolative_structures.dump id element x y z# f_pace_gamma_1
# dump_modify pace_dump skip v_dump_skip
# dump_modify pace_dump element H Si


######### Dumping  #########
# fix pace_gamma_reg all pair ${Ndump} pace/extrapolation gamma 1 # compute per-atom extrapolation grade every 10 steps
dump ens all custom ${Ndump} ${rundir}/NPT/dump_custom_pace id element x y z fx fy fz c_PEa #f_pace_gamma_reg
dump ens all custom 10000 ${rundir}/NPT/dump_custom_pace id element x y z fx fy fz c_PEa 
dump ens all custom 10000 /u/vld/spet5633/Silicon/a-Si_potential/DFT_1200eV/Testing/Paper/l-SiH/1,000_structures/NVT_2.58/Hconc-50/10/NPT/dump_custom_pace id element x y z fx fy fz c_PEa 
#difference between dump ens and dump sep is that dump sep has a .dat file for each timestep vs ens is 1 big file
dump_modify ens sort 1 #sorting the dump by the 1st column of data ie the id
dump_modify ens element H Si

# variable max_pace_gamma equal c_gamma_ave
# fix extreme_extrapolation all halt 10 v_max_pace_gamma > 25

# minimize 0 1.0e-6 1000 100000

velocity all create ${t_anneal} ${rand}
velocity all create 2000 ${rand}
velocity all create 2000 295420805

fix integrate all nvt temp ${t_anneal} ${t_anneal} $(100.0*dt) #iso 0.0 0.0 $(1000.0*dt)
fix integrate all nvt temp 2000 ${t_anneal} $(100.0*dt) 
fix integrate all nvt temp 2000 2000 $(100.0*dt) 
fix integrate all nvt temp 2000 2000 0.010000000000000000208 
run ${anneal_timesteps}
run 1000000

CITE-CITE-CITE-CITE-CITE-CITE-CITE-CITE-CITE-CITE-CITE-CITE-CITE

Your simulation uses code contributions which should be cited:

- Type Label Framework: https://doi.org/10.1021/acs.jpcb.3c08419

@Article{Gissinger24,
 author = {Jacob R. Gissinger, Ilia Nikiforov, Yaser Afshar, Brendon Waters, Moon-ki Choi, Daniel S. Karls, Alexander Stukowski, Wonpil Im, Hendrik Heinz, Axel Kohlmeyer, and Ellad B. Tadmor},
 title = {Type Label Framework for Bonded Force Fields in LAMMPS},
 journal = {J. Phys. Chem. B},
 year =    2024,
 volume =  128,
 number =  13,
 pages =   {3282--3297}
}

CITE-CITE-CITE-CITE-CITE-CITE-CITE-CITE-CITE-CITE-CITE-CITE-CITE

Neighbor list info ...
  update: every = 1 steps, delay = 0 steps, check = yes
  max neighbors/atom: 2000, page size: 100000
  master list distance cutoff = 8.4
  ghost atom cutoff = 8.4
  binsize = 4.2, bins = 6 6 6
  1 neighbor lists, perpetual/occasional/extra = 1 0 0
  (1) pair pace, perpetual
      attributes: full, newton on
      pair build: full/bin/atomonly
      stencil: full/bin/3d
      bin: standard
Per MPI rank memory allocation (min/avg/max) = 3.636 | 3.638 | 3.64 Mbytes
   Step          CPU            Temp        f_TempAve        Press        f_PressAve      f_PEAve         Volume         f_vAve        c_MSD[4]   
         0   0              2000           2000           453164.95      453164.95     -3234.8439      9362.4153      9362.4153      0            
      1000   35.657473      1038.9155      1038.9155      108613.37      108613.37     -4049.4946      9362.4153      9362.4153      53.922414    
ERROR: Lost atoms: original 1000 current 998
For more information see https://docs.lammps.org/err0008 (src/thermo.cpp:518)

units metal
atom_style atomic

read_data ${data_file}
read_data /u/vld/spet5633/Silicon/a-Si_potential/DFT_1200eV/Testing/Paper/l-SiH/1,000_structures/NVT_2.58/Hconc-50/10/SiH.data
Reading data file ...
  orthogonal box = (0 0 0) to (21.076377 21.076377 21.076377)
  2 by 2 by 4 MPI processor grid
  reading atoms ...
  1000 atoms
  read_data CPU = 0.025 seconds
# reset_timestep 0

mass 2 28.0855
mass 1 1.00784

labelmap atom 2 Si 1 H

pair_style  pace
ACE version: 2023.11.25
Recursive evaluator is used
pair_coeff  * * ${yacepot} H Si
pair_coeff  * * /u/vld/spet5633/Silicon/a-Si_potential/DFT_1200eV/Testing/Ites/Ite_6.8_kappa_auto_10/output_potential_tuned_repulsion_vHH_vSiH.yaml H Si
Loading /u/vld/spet5633/Silicon/a-Si_potential/DFT_1200eV/Testing/Ites/Ite_6.8_kappa_auto_10/output_potential_tuned_repulsion_vHH_vSiH.yaml
Total number of basis functions
	H: 26 (r=1) 1352 (r>1)
	Si: 28 (r=1) 2101 (r>1)
Mapping LAMMPS atom type #1(H) -> ACE species type #0
Mapping LAMMPS atom type #2(Si) -> ACE species type #1


neighbor 2.0 bin #default bin value for unit style (ie. metal)
neigh_modify every 1 delay 0 check yes #rebuild the neighbor list at every timestep

variable Nfreq equal 1000
variable Nprint equal 1000
variable Nevery equal 1000
variable Nrepeat equal ${Nfreq}/${Nevery}
variable Nrepeat equal 1000/${Nevery}
variable Nrepeat equal 1000/1000
variable Ndump equal ${ndump}
variable Ndump equal 10000
#variable nAtoms equal atoms
#variable Nrestart equal ${quench_timesteps}/15

timestep 0.0001

fix removeMomentum all momentum 1 linear 1 1 1

compute T all temp
fix TempAve all ave/time ${Nevery} ${Nrepeat} ${Nfreq} c_T
fix TempAve all ave/time 1000 ${Nrepeat} ${Nfreq} c_T
fix TempAve all ave/time 1000 1 ${Nfreq} c_T
fix TempAve all ave/time 1000 1 1000 c_T

variable P equal press
fix PressAve all ave/time ${Nevery} ${Nrepeat} ${Nfreq} v_P
fix PressAve all ave/time 1000 ${Nrepeat} ${Nfreq} v_P
fix PressAve all ave/time 1000 1 ${Nfreq} v_P
fix PressAve all ave/time 1000 1 1000 v_P

variable v equal vol
fix vAve all ave/time ${Nevery} ${Nrepeat} ${Nfreq} v_v
fix vAve all ave/time 1000 ${Nrepeat} ${Nfreq} v_v
fix vAve all ave/time 1000 1 ${Nfreq} v_v
fix vAve all ave/time 1000 1 1000 v_v

compute PE all pe pair
fix PEAve all ave/time ${Nevery} ${Nrepeat} ${Nfreq} c_PE
fix PEAve all ave/time 1000 ${Nrepeat} ${Nfreq} c_PE
fix PEAve all ave/time 1000 1 ${Nfreq} c_PE
fix PEAve all ave/time 1000 1 1000 c_PE
compute PEa all pe/atom pair

compute MSD all msd

thermo_style custom step cpu temp f_TempAve press f_PressAve f_PEAve vol f_vAve c_MSD[4]
thermo_modify flush yes
thermo ${Nfreq}
thermo 1000


######### Extrapolation grade check for >5  #########
# fix pace_gamma_1 all pair 100 pace/extrapolation gamma 1 # compute per-atom extrapolation grade every 10 steps
# compute gamma_ave all reduce ave f_pace_gamma_1 # compute average gamma
# compute max_pace_gamma_1 all reduce max f_pace_gamma_1 # compute maximum extrapolation grade over complete structure
# dump extrapolative structures if c_max_pace_gamma > 5, skip otherwise, check every 20 steps
# variable dump_skip equal "c_max_pace_gamma_1 < 5"
# dump pace_dump all custom 100 ${rundir}/out_str/extrapolative_structures.dump id element x y z# f_pace_gamma_1
# dump_modify pace_dump skip v_dump_skip
# dump_modify pace_dump element H Si


######### Dumping  #########
# fix pace_gamma_reg all pair ${Ndump} pace/extrapolation gamma 1 # compute per-atom extrapolation grade every 10 steps
dump ens all custom ${Ndump} ${rundir}/NPT/dump_custom_pace id element x y z fx fy fz c_PEa #f_pace_gamma_reg
dump ens all custom 10000 ${rundir}/NPT/dump_custom_pace id element x y z fx fy fz c_PEa 
dump ens all custom 10000 /u/vld/spet5633/Silicon/a-Si_potential/DFT_1200eV/Testing/Paper/l-SiH/1,000_structures/NVT_2.58/Hconc-50/10/NPT/dump_custom_pace id element x y z fx fy fz c_PEa 
#difference between dump ens and dump sep is that dump sep has a .dat file for each timestep vs ens is 1 big file
dump_modify ens sort 1 #sorting the dump by the 1st column of data ie the id
dump_modify ens element H Si

# variable max_pace_gamma equal c_gamma_ave
# fix extreme_extrapolation all halt 10 v_max_pace_gamma > 25

# minimize 0 1.0e-6 1000 100000

velocity all create ${t_anneal} ${rand}
velocity all create 2000 ${rand}
velocity all create 2000 269153822

fix integrate all nvt temp ${t_anneal} ${t_anneal} $(100.0*dt) #iso 0.0 0.0 $(1000.0*dt)
fix integrate all nvt temp 2000 ${t_anneal} $(100.0*dt) 
fix integrate all nvt temp 2000 2000 $(100.0*dt) 
fix integrate all nvt temp 2000 2000 0.010000000000000000208 
run ${anneal_timesteps}
run 1000000

CITE-CITE-CITE-CITE-CITE-CITE-CITE-CITE-CITE-CITE-CITE-CITE-CITE

Your simulation uses code contributions which should be cited:

- Type Label Framework: https://doi.org/10.1021/acs.jpcb.3c08419

@Article{Gissinger24,
 author = {Jacob R. Gissinger, Ilia Nikiforov, Yaser Afshar, Brendon Waters, Moon-ki Choi, Daniel S. Karls, Alexander Stukowski, Wonpil Im, Hendrik Heinz, Axel Kohlmeyer, and Ellad B. Tadmor},
 title = {Type Label Framework for Bonded Force Fields in LAMMPS},
 journal = {J. Phys. Chem. B},
 year =    2024,
 volume =  128,
 number =  13,
 pages =   {3282--3297}
}

CITE-CITE-CITE-CITE-CITE-CITE-CITE-CITE-CITE-CITE-CITE-CITE-CITE

Neighbor list info ...
  update: every = 1 steps, delay = 0 steps, check = yes
  max neighbors/atom: 2000, page size: 100000
  master list distance cutoff = 8.4
  ghost atom cutoff = 8.4
  binsize = 4.2, bins = 6 6 6
  1 neighbor lists, perpetual/occasional/extra = 1 0 0
  (1) pair pace, perpetual
      attributes: full, newton on
      pair build: full/bin/atomonly
      stencil: full/bin/3d
      bin: standard
Per MPI rank memory allocation (min/avg/max) = 3.637 | 3.638 | 3.64 Mbytes
   Step          CPU            Temp        f_TempAve        Press        f_PressAve      f_PEAve         Volume         f_vAve        c_MSD[4]   
         0   0              2000           2000           516195.2       516195.2      -3197.9409      9362.4153      9362.4153      0            
      1000   36.825403      1887.0807      1887.0807      163709.12      163709.12     -3985.4115      9362.4153      9362.4153      3.4551716    
ERROR: Lost atoms: original 1000 current 996
For more information see https://docs.lammps.org/err0008 (src/thermo.cpp:518)

units metal
atom_style atomic

read_data ${data_file}
read_data /u/vld/spet5633/Silicon/a-Si_potential/DFT_1200eV/Testing/Paper/l-SiH/1,000_structures/NVT_2.58/Hconc-50/10/SiH.data
Reading data file ...
  orthogonal box = (0 0 0) to (21.158708 21.158708 21.158708)
  2 by 2 by 4 MPI processor grid
  reading atoms ...
  1000 atoms
  read_data CPU = 0.006 seconds
# reset_timestep 0

mass 2 28.0855
mass 1 1.00784

labelmap atom 2 Si 1 H

pair_style  pace
ACE version: 2023.11.25
Recursive evaluator is used
pair_coeff  * * ${yacepot} H Si
pair_coeff  * * /u/vld/spet5633/Silicon/a-Si_potential/DFT_1200eV/Testing/Ites/Ite_6.8_kappa_auto_10/output_potential_tuned_repulsion_vHH_vSiH.yaml H Si
Loading /u/vld/spet5633/Silicon/a-Si_potential/DFT_1200eV/Testing/Ites/Ite_6.8_kappa_auto_10/output_potential_tuned_repulsion_vHH_vSiH.yaml
Total number of basis functions
	H: 26 (r=1) 1352 (r>1)
	Si: 28 (r=1) 2101 (r>1)
Mapping LAMMPS atom type #1(H) -> ACE species type #0
Mapping LAMMPS atom type #2(Si) -> ACE species type #1


neighbor 2.0 bin #default bin value for unit style (ie. metal)
neigh_modify every 1 delay 0 check yes #rebuild the neighbor list at every timestep

variable Nfreq equal 1000
variable Nprint equal 1000
variable Nevery equal 1000
variable Nrepeat equal ${Nfreq}/${Nevery}
variable Nrepeat equal 1000/${Nevery}
variable Nrepeat equal 1000/1000
variable Ndump equal ${ndump}
variable Ndump equal 10000
#variable nAtoms equal atoms
#variable Nrestart equal ${quench_timesteps}/15

timestep 0.0001

fix removeMomentum all momentum 1 linear 1 1 1

compute T all temp
fix TempAve all ave/time ${Nevery} ${Nrepeat} ${Nfreq} c_T
fix TempAve all ave/time 1000 ${Nrepeat} ${Nfreq} c_T
fix TempAve all ave/time 1000 1 ${Nfreq} c_T
fix TempAve all ave/time 1000 1 1000 c_T

variable P equal press
fix PressAve all ave/time ${Nevery} ${Nrepeat} ${Nfreq} v_P
fix PressAve all ave/time 1000 ${Nrepeat} ${Nfreq} v_P
fix PressAve all ave/time 1000 1 ${Nfreq} v_P
fix PressAve all ave/time 1000 1 1000 v_P

variable v equal vol
fix vAve all ave/time ${Nevery} ${Nrepeat} ${Nfreq} v_v
fix vAve all ave/time 1000 ${Nrepeat} ${Nfreq} v_v
fix vAve all ave/time 1000 1 ${Nfreq} v_v
fix vAve all ave/time 1000 1 1000 v_v

compute PE all pe pair
fix PEAve all ave/time ${Nevery} ${Nrepeat} ${Nfreq} c_PE
fix PEAve all ave/time 1000 ${Nrepeat} ${Nfreq} c_PE
fix PEAve all ave/time 1000 1 ${Nfreq} c_PE
fix PEAve all ave/time 1000 1 1000 c_PE
compute PEa all pe/atom pair

compute MSD all msd

thermo_style custom step cpu temp f_TempAve press f_PressAve f_PEAve vol f_vAve c_MSD[4]
thermo_modify flush yes
thermo ${Nfreq}
thermo 1000


######### Extrapolation grade check for >5  #########
# fix pace_gamma_1 all pair 100 pace/extrapolation gamma 1 # compute per-atom extrapolation grade every 10 steps
# compute gamma_ave all reduce ave f_pace_gamma_1 # compute average gamma
# compute max_pace_gamma_1 all reduce max f_pace_gamma_1 # compute maximum extrapolation grade over complete structure
# dump extrapolative structures if c_max_pace_gamma > 5, skip otherwise, check every 20 steps
# variable dump_skip equal "c_max_pace_gamma_1 < 5"
# dump pace_dump all custom 100 ${rundir}/out_str/extrapolative_structures.dump id element x y z# f_pace_gamma_1
# dump_modify pace_dump skip v_dump_skip
# dump_modify pace_dump element H Si


######### Dumping  #########
# fix pace_gamma_reg all pair ${Ndump} pace/extrapolation gamma 1 # compute per-atom extrapolation grade every 10 steps
dump ens all custom ${Ndump} ${rundir}/NPT/dump_custom_pace id element x y z fx fy fz c_PEa #f_pace_gamma_reg
dump ens all custom 10000 ${rundir}/NPT/dump_custom_pace id element x y z fx fy fz c_PEa 
dump ens all custom 10000 /u/vld/spet5633/Silicon/a-Si_potential/DFT_1200eV/Testing/Paper/l-SiH/1,000_structures/NVT_2.58/Hconc-50/10/NPT/dump_custom_pace id element x y z fx fy fz c_PEa 
#difference between dump ens and dump sep is that dump sep has a .dat file for each timestep vs ens is 1 big file
dump_modify ens sort 1 #sorting the dump by the 1st column of data ie the id
dump_modify ens element H Si

# variable max_pace_gamma equal c_gamma_ave
# fix extreme_extrapolation all halt 10 v_max_pace_gamma > 25

# minimize 0 1.0e-6 1000 100000

velocity all create ${t_anneal} ${rand}
velocity all create 2000 ${rand}
velocity all create 2000 1155769267

fix integrate all nvt temp ${t_anneal} ${t_anneal} $(100.0*dt) #iso 0.0 0.0 $(1000.0*dt)
fix integrate all nvt temp 2000 ${t_anneal} $(100.0*dt) 
fix integrate all nvt temp 2000 2000 $(100.0*dt) 
fix integrate all nvt temp 2000 2000 0.010000000000000000208 
run ${anneal_timesteps}
run 1000000

CITE-CITE-CITE-CITE-CITE-CITE-CITE-CITE-CITE-CITE-CITE-CITE-CITE

Your simulation uses code contributions which should be cited:

- Type Label Framework: https://doi.org/10.1021/acs.jpcb.3c08419

@Article{Gissinger24,
 author = {Jacob R. Gissinger, Ilia Nikiforov, Yaser Afshar, Brendon Waters, Moon-ki Choi, Daniel S. Karls, Alexander Stukowski, Wonpil Im, Hendrik Heinz, Axel Kohlmeyer, and Ellad B. Tadmor},
 title = {Type Label Framework for Bonded Force Fields in LAMMPS},
 journal = {J. Phys. Chem. B},
 year =    2024,
 volume =  128,
 number =  13,
 pages =   {3282--3297}
}

CITE-CITE-CITE-CITE-CITE-CITE-CITE-CITE-CITE-CITE-CITE-CITE-CITE

Neighbor list info ...
  update: every = 1 steps, delay = 0 steps, check = yes
  max neighbors/atom: 2000, page size: 100000
  master list distance cutoff = 8.4
  ghost atom cutoff = 8.4
  binsize = 4.2, bins = 6 6 6
  1 neighbor lists, perpetual/occasional/extra = 1 0 0
  (1) pair pace, perpetual
      attributes: full, newton on
      pair build: full/bin/atomonly
      stencil: full/bin/3d
      bin: standard
Per MPI rank memory allocation (min/avg/max) = 3.636 | 3.637 | 3.638 Mbytes
   Step          CPU            Temp        f_TempAve        Press        f_PressAve      f_PEAve         Volume         f_vAve        c_MSD[4]   
         0   0              2000           2000           423727.28      423727.28     -3264.876       9472.5614      9472.5614      0            
      1000   35.162198      365582.28      365582.28      5365723.1      5365723.1     -4011.1705      9472.5614      9472.5614      26.067759    
ERROR: Lost atoms: original 1000 current 998
For more information see https://docs.lammps.org/err0008 (src/thermo.cpp:518)

units metal
atom_style atomic

read_data ${data_file}
read_data /u/vld/spet5633/Silicon/a-Si_potential/DFT_1200eV/Testing/Paper/l-SiH/1,000_structures/NVT_2.58/Hconc-50/10/SiH.data
Reading data file ...
  orthogonal box = (0 0 0) to (21.158708 21.158708 21.158708)
  2 by 2 by 4 MPI processor grid
  reading atoms ...
  1000 atoms
  read_data CPU = 0.015 seconds
# reset_timestep 0

mass 2 28.0855
mass 1 1.00784

labelmap atom 2 Si 1 H

pair_style  pace
ACE version: 2023.11.25
Recursive evaluator is used
pair_coeff  * * ${yacepot} H Si
pair_coeff  * * /u/vld/spet5633/Silicon/a-Si_potential/DFT_1200eV/Testing/Ites/Ite_6.8_kappa_auto_10/output_potential_tuned_repulsion_vHH_vSiH.yaml H Si
Loading /u/vld/spet5633/Silicon/a-Si_potential/DFT_1200eV/Testing/Ites/Ite_6.8_kappa_auto_10/output_potential_tuned_repulsion_vHH_vSiH.yaml
Total number of basis functions
	H: 26 (r=1) 1352 (r>1)
	Si: 28 (r=1) 2101 (r>1)
Mapping LAMMPS atom type #1(H) -> ACE species type #0
Mapping LAMMPS atom type #2(Si) -> ACE species type #1


neighbor 2.0 bin #default bin value for unit style (ie. metal)
neigh_modify every 1 delay 0 check yes #rebuild the neighbor list at every timestep

variable Nfreq equal 1000
variable Nprint equal 1000
variable Nevery equal 1000
variable Nrepeat equal ${Nfreq}/${Nevery}
variable Nrepeat equal 1000/${Nevery}
variable Nrepeat equal 1000/1000
variable Ndump equal ${ndump}
variable Ndump equal 10000
#variable nAtoms equal atoms
#variable Nrestart equal ${quench_timesteps}/15

timestep 0.0001

fix removeMomentum all momentum 1 linear 1 1 1

compute T all temp
fix TempAve all ave/time ${Nevery} ${Nrepeat} ${Nfreq} c_T
fix TempAve all ave/time 1000 ${Nrepeat} ${Nfreq} c_T
fix TempAve all ave/time 1000 1 ${Nfreq} c_T
fix TempAve all ave/time 1000 1 1000 c_T

variable P equal press
fix PressAve all ave/time ${Nevery} ${Nrepeat} ${Nfreq} v_P
fix PressAve all ave/time 1000 ${Nrepeat} ${Nfreq} v_P
fix PressAve all ave/time 1000 1 ${Nfreq} v_P
fix PressAve all ave/time 1000 1 1000 v_P

variable v equal vol
fix vAve all ave/time ${Nevery} ${Nrepeat} ${Nfreq} v_v
fix vAve all ave/time 1000 ${Nrepeat} ${Nfreq} v_v
fix vAve all ave/time 1000 1 ${Nfreq} v_v
fix vAve all ave/time 1000 1 1000 v_v

compute PE all pe pair
fix PEAve all ave/time ${Nevery} ${Nrepeat} ${Nfreq} c_PE
fix PEAve all ave/time 1000 ${Nrepeat} ${Nfreq} c_PE
fix PEAve all ave/time 1000 1 ${Nfreq} c_PE
fix PEAve all ave/time 1000 1 1000 c_PE
compute PEa all pe/atom pair

compute MSD all msd

thermo_style custom step cpu temp f_TempAve press f_PressAve f_PEAve vol f_vAve c_MSD[4]
thermo_modify flush yes
thermo ${Nfreq}
thermo 1000


######### Extrapolation grade check for >5  #########
# fix pace_gamma_1 all pair 100 pace/extrapolation gamma 1 # compute per-atom extrapolation grade every 10 steps
# compute gamma_ave all reduce ave f_pace_gamma_1 # compute average gamma
# compute max_pace_gamma_1 all reduce max f_pace_gamma_1 # compute maximum extrapolation grade over complete structure
# dump extrapolative structures if c_max_pace_gamma > 5, skip otherwise, check every 20 steps
# variable dump_skip equal "c_max_pace_gamma_1 < 5"
# dump pace_dump all custom 100 ${rundir}/out_str/extrapolative_structures.dump id element x y z# f_pace_gamma_1
# dump_modify pace_dump skip v_dump_skip
# dump_modify pace_dump element H Si


######### Dumping  #########
# fix pace_gamma_reg all pair ${Ndump} pace/extrapolation gamma 1 # compute per-atom extrapolation grade every 10 steps
dump ens all custom ${Ndump} ${rundir}/NPT/dump_custom_pace id element x y z fx fy fz c_PEa #f_pace_gamma_reg
dump ens all custom 10000 ${rundir}/NPT/dump_custom_pace id element x y z fx fy fz c_PEa 
dump ens all custom 10000 /u/vld/spet5633/Silicon/a-Si_potential/DFT_1200eV/Testing/Paper/l-SiH/1,000_structures/NVT_2.58/Hconc-50/10/NPT/dump_custom_pace id element x y z fx fy fz c_PEa 
#difference between dump ens and dump sep is that dump sep has a .dat file for each timestep vs ens is 1 big file
dump_modify ens sort 1 #sorting the dump by the 1st column of data ie the id
dump_modify ens element H Si

# variable max_pace_gamma equal c_gamma_ave
# fix extreme_extrapolation all halt 10 v_max_pace_gamma > 25

# minimize 0 1.0e-6 1000 100000

velocity all create ${t_anneal} ${rand}
velocity all create 2000 ${rand}
velocity all create 2000 1495981506

fix integrate all nvt temp ${t_anneal} ${t_anneal} $(100.0*dt) #iso 0.0 0.0 $(1000.0*dt)
fix integrate all nvt temp 2000 ${t_anneal} $(100.0*dt) 
fix integrate all nvt temp 2000 2000 $(100.0*dt) 
fix integrate all nvt temp 2000 2000 0.010000000000000000208 
run ${anneal_timesteps}
run 1000000

CITE-CITE-CITE-CITE-CITE-CITE-CITE-CITE-CITE-CITE-CITE-CITE-CITE

Your simulation uses code contributions which should be cited:

- Type Label Framework: https://doi.org/10.1021/acs.jpcb.3c08419

@Article{Gissinger24,
 author = {Jacob R. Gissinger, Ilia Nikiforov, Yaser Afshar, Brendon Waters, Moon-ki Choi, Daniel S. Karls, Alexander Stukowski, Wonpil Im, Hendrik Heinz, Axel Kohlmeyer, and Ellad B. Tadmor},
 title = {Type Label Framework for Bonded Force Fields in LAMMPS},
 journal = {J. Phys. Chem. B},
 year =    2024,
 volume =  128,
 number =  13,
 pages =   {3282--3297}
}

CITE-CITE-CITE-CITE-CITE-CITE-CITE-CITE-CITE-CITE-CITE-CITE-CITE

Neighbor list info ...
  update: every = 1 steps, delay = 0 steps, check = yes
  max neighbors/atom: 2000, page size: 100000
  master list distance cutoff = 8.4
  ghost atom cutoff = 8.4
  binsize = 4.2, bins = 6 6 6
  1 neighbor lists, perpetual/occasional/extra = 1 0 0
  (1) pair pace, perpetual
      attributes: full, newton on
      pair build: full/bin/atomonly
      stencil: full/bin/3d
      bin: standard
Per MPI rank memory allocation (min/avg/max) = 3.636 | 3.637 | 3.638 Mbytes
   Step          CPU            Temp        f_TempAve        Press        f_PressAve      f_PEAve         Volume         f_vAve        c_MSD[4]   
         0   0              2000           2000           423727.28      423727.28     -3264.876       9472.5614      9472.5614      0            
      1000   35.43442       2026.7305      2026.7305      171745         171745        -3994.7824      9472.5614      9472.5614      3.5430393    
      2000   70.48193       2544.4754      2544.4754      155080.77      155080.77     -4146.7469      9472.5614      9472.5614      37.452835    
      3000   105.05653      2174.7549      2174.7549      175951.06      175951.06     -4047.6866      9472.5614      9472.5614      50.846242    
      4000   139.76886      1978.9021      1978.9021      183190.87      183190.87     -4004.2986      9472.5614      9472.5614      53.783135    
      5000   174.31548      1984.7403      1984.7403      178733.66      178733.66     -3995.692       9472.5614      9472.5614      57.147892    
      6000   208.71556      2100.2506      2100.2506      189235.39      189235.39     -3995.5072      9472.5614      9472.5614      60.724121    
      7000   243.00217      2061.5063      2061.5063      174570.37      174570.37     -3996.8886      9472.5614      9472.5614      64.071869    
      8000   277.50388      2033.6638      2033.6638      190448.41      190448.41     -4005.666       9472.5614      9472.5614      67.248938    
      9000   312.0605       1989.0679      1989.0679      171228.69      171228.69     -4011.8686      9472.5614      9472.5614      70.591885    
     10000   347.48523      1969.6569      1969.6569      182963.35      182963.35     -3986.817       9472.5614      9472.5614      74.391172    
     11000   382.17082      2108.7032      2108.7032      187753.06      187753.06     -4007.3656      9472.5614      9472.5614      77.202257    
     12000   416.7456       2060.1477      2060.1477      188633.95      188633.95     -4000.5083      9472.5614      9472.5614      81.451528    
     13000   452.01816      2012.8657      2012.8657      170843.57      170843.57     -3996.9738      9472.5614      9472.5614      84.190132    
     14000   485.82162      1980.1844      1980.1844      191241.11      191241.11     -3999.0733      9472.5614      9472.5614      87.44724     
     15000   520.32397      2049.0655      2049.0655      182887.32      182887.32     -4002.2434      9472.5614      9472.5614      90.563363    
     16000   554.23571      1998.9509      1998.9509      177916.59      177916.59     -3991.1109      9472.5614      9472.5614      94.23333     
     17000   588.34832      2042.0173      2042.0173      181515.48      181515.48     -4002.6586      9472.5614      9472.5614      98.773034    
     18000   622.34829      2009.3478      2009.3478      174804.83      174804.83     -4003.3418      9472.5614      9472.5614      103.25261    
     19000   657.10924      2020.906       2020.906       204593.49      204593.49     -4000.8132      9472.5614      9472.5614      108.13417    
     20000   690.77052      1960.7295      1960.7295      191652.86      191652.86     -3984.5924      9472.5614      9472.5614      110.54995    
     21000   724.27158      1961.3933      1961.3933      175801.94      175801.94     -4006.6043      9472.5614      9472.5614      114.02638    
     22000   758.64921      1907.7925      1907.7925      181387.85      181387.85     -4009.7308      9472.5614      9472.5614      116.4133     
     23000   792.95081      2021.137       2021.137       196519.57      196519.57     -3989.7248      9472.5614      9472.5614      120.1676     
     24000   826.74164      1933.2317      1933.2317      174492.19      174492.19     -4006.4115      9472.5614      9472.5614      123.78337    
     25000   860.44695      2021.9339      2021.9339      191126.23      191126.23     -4002.8036      9472.5614      9472.5614      129.56623    
     26000   894.38225      2034.7887      2034.7887      184912.98      184912.98     -4006.9624      9472.5614      9472.5614      134.94534    
     27000   928.92494      1872.3865      1872.3865      179100.98      179100.98     -4012.6975      9472.5614      9472.5614      140.60254    
     28000   963.36823      2220.5286      2220.5286      184942.43      184942.43     -3991.2462      9472.5614      9472.5614      143.28822    
     29000   997.49211      2108.513       2108.513       179515.63      179515.63     -3999.4297      9472.5614      9472.5614      147.35397    
     30000   1032.146       1987.5433      1987.5433      181214.27      181214.27     -3993.0966      9472.5614      9472.5614      151.59777    
     31000   1065.8307      1941.715       1941.715       188689.52      188689.52     -3996.4728      9472.5614      9472.5614      155.31714    
     32000   1100.267       2042.8651      2042.8651      194346.37      194346.37     -3990.4014      9472.5614      9472.5614      158.37297    
     33000   1134.972       1953.0485      1953.0485      184982.93      184982.93     -3989.8314      9472.5614      9472.5614      161.97537    
     34000   1168.8523      2068.7505      2068.7505      189513.05      189513.05     -3994.9425      9472.5614      9472.5614      165.89894    
     35000   1203.159       2047.746       2047.746       179707.39      179707.39     -4005.4014      9472.5614      9472.5614      167.82438    
     36000   1237.2905      1942.4252      1942.4252      175048.55      175048.55     -4001.2376      9472.5614      9472.5614      173.10893    
     37000   1271.1828      2067.1019      2067.1019      187149.05      187149.05     -4016.2104      9472.5614      9472.5614      177.25261    
     38000   1305.1034      2134.0251      2134.0251      186846.85      186846.85     -3990.5465      9472.5614      9472.5614      178.40851    
     39000   1338.9991      2028.8219      2028.8219      179526.54      179526.54     -3996.4227      9472.5614      9472.5614      182.02661    
     40000   1372.8263      2018.3991      2018.3991      182849.61      182849.61     -4001.1488      9472.5614      9472.5614      185.90762    
     41000   1407.3723      2012.26        2012.26        186192.19      186192.19     -4003.5929      9472.5614      9472.5614      189.60969    
     42000   1441.7354      2024.6488      2024.6488      175850.91      175850.91     -4000.7821      9472.5614      9472.5614      193.1772     
     43000   1475.8728      2006.5575      2006.5575      176137.31      176137.31     -3995.2643      9472.5614      9472.5614      197.08063    
     44000   1510.21        2011.2923      2011.2923      177144.55      177144.55     -3989.7867      9472.5614      9472.5614      198.99033    
     45000   1544.408       1985.5392      1985.5392      177134.5       177134.5      -3999.478       9472.5614      9472.5614      201.95224    
     46000   1578.3453      2038.3968      2038.3968      188153.27      188153.27     -3997.6795      9472.5614      9472.5614      205.05495    
     47000   1612.3352      2083.1058      2083.1058      186789         186789        -3987.2756      9472.5614      9472.5614      207.07007    
     48000   1646.8297      2006.6228      2006.6228      173182.32      173182.32     -3996.685       9472.5614      9472.5614      212.28265    
     49000   1680.7877      1917.2992      1917.2992      183847.55      183847.55     -3995.3175      9472.5614      9472.5614      214.33499    
     50000   1714.8975      1992.9079      1992.9079      175656.92      175656.92     -4004.7761      9472.5614      9472.5614      220.02711    
     51000   1748.9146      2076.0945      2076.0945      172854.04      172854.04     -3999.9198      9472.5614      9472.5614      222.55131    
     52000   1783.2639      1948.3757      1948.3757      177654.6       177654.6      -3997.5225      9472.5614      9472.5614      228.27039    
     53000   1817.1817      1987.657       1987.657       178992.31      178992.31     -3998.1133      9472.5614      9472.5614      229.27277    
     54000   1851.5106      1924.5992      1924.5992      179422.38      179422.38     -4002.4679      9472.5614      9472.5614      234.74023    
     55000   1885.3198      2033.8161      2033.8161      181376.37      181376.37     -4003.1506      9472.5614      9472.5614      238.34923    
     56000   1919.0483      2091.3082      2091.3082      185152.99      185152.99     -4009.7246      9472.5614      9472.5614      241.54794    
     57000   1953.0671      1997.2735      1997.2735      180965.68      180965.68     -3997.7425      9472.5614      9472.5614      246.55324    
     58000   1986.6134      1864.5651      1864.5651      177518.87      177518.87     -3996.6824      9472.5614      9472.5614      250.91133    
     59000   2020.6548      1924.9841      1924.9841      179073.58      179073.58     -3997.1465      9472.5614      9472.5614      254.01429    
     60000   2054.6277      2006.1533      2006.1533      177739.95      177739.95     -3998.7495      9472.5614      9472.5614      259.7598     
     61000   2088.7131      1938.0793      1938.0793      178220.08      178220.08     -4009.8027      9472.5614      9472.5614      260.80744    
     62000   2122.7475      1917.2866      1917.2866      185585.68      185585.68     -4008.3529      9472.5614      9472.5614      264.75016    
     63000   2156.6107      2083.3423      2083.3423      191312.44      191312.44     -3997.7559      9472.5614      9472.5614      266.86386    
     64000   2190.4175      1981.8689      1981.8689      179412.84      179412.84     -3990.872       9472.5614      9472.5614      272.10108    
     65000   2224.573       1996.9971      1996.9971      175311.86      175311.86     -4008.0008      9472.5614      9472.5614      275.40966    
     66000   2259.0293      1891.4182      1891.4182      181541.13      181541.13     -4009.1927      9472.5614      9472.5614      280.68551    
     67000   2293.3821      1998.6014      1998.6014      191150.04      191150.04     -3991.5468      9472.5614      9472.5614      284.49589    
     68000   2327.8566      2041.8234      2041.8234      176629.04      176629.04     -3994.8012      9472.5614      9472.5614      288.86522    
     69000   2361.6395      1983.5995      1983.5995      189817.45      189817.45     -3992.9547      9472.5614      9472.5614      294.91892    
     70000   2395.7354      1943.5862      1943.5862      185787.1       185787.1      -4000.6993      9472.5614      9472.5614      299.3327     
     71000   2429.6667      2033.9297      2033.9297      180845.03      180845.03     -3997.8515      9472.5614      9472.5614      302.66408    
     72000   2463.8018      1998.0437      1998.0437      185315.17      185315.17     -4008.8246      9472.5614      9472.5614      305.97858    
     73000   2498.058       2062.185       2062.185       182635.52      182635.52     -3998.1588      9472.5614      9472.5614      311.62309    
     74000   2532.4176      2058.0362      2058.0362      180367.38      180367.38     -4008.3731      9472.5614      9472.5614      315.25243    
     75000   2566.7823      2049.8321      2049.8321      175075.73      175075.73     -3993.9509      9472.5614      9472.5614      319.97982    
     76000   2601.0371      2112.953       2112.953       189707.2       189707.2      -3991.3702      9472.5614      9472.5614      325.5464     
     77000   2635.1817      1955.0703      1955.0703      174398.04      174398.04     -4004.7894      9472.5614      9472.5614      330.35923    
     78000   2669.2953      1961.108       1961.108       181740.77      181740.77     -3994.3583      9472.5614      9472.5614      333.08108    
     79000   2703.6854      1935.5666      1935.5666      183704.37      183704.37     -3998.0152      9472.5614      9472.5614      334.03149    
     80000   2737.7913      2030.1783      2030.1783      192769.78      192769.78     -3997.2518      9472.5614      9472.5614      336.46491    
     81000   2771.317       2113.1096      2113.1096      186175.72      186175.72     -3997.2869      9472.5614      9472.5614      338.49321    
     82000   2805.2689      1855.279       1855.279       171631.74      171631.74     -4007.9648      9472.5614      9472.5614      340.62748    
     83000   2840.065       1984.2415      1984.2415      186156.75      186156.75     -3997.9352      9472.5614      9472.5614      341.2457     
     84000   2874.5964      2061.6466      2061.6466      181072.18      181072.18     -3992.6758      9472.5614      9472.5614      344.94504    
     85000   2908.8025      1958.0471      1958.0471      174747.78      174747.78     -4002.8661      9472.5614      9472.5614      348.17186    
     86000   2942.6802      2045.8818      2045.8818      189427.31      189427.31     -4002.6515      9472.5614      9472.5614      354.3381     
     87000   2976.6552      1993.302       1993.302       184682.71      184682.71     -3997.3058      9472.5614      9472.5614      357.47371    
     88000   3010.3626      2089.9479      2089.9479      167052.59      167052.59     -4003.1393      9472.5614      9472.5614      361.65936    
     89000   3044.589       1920.4415      1920.4415      172040.13      172040.13     -4005.6412      9472.5614      9472.5614      365.4201     
     90000   3078.8159      2047.3042      2047.3042      182288.62      182288.62     -4009.2062      9472.5614      9472.5614      370.94342    
     91000   3113.1033      1961.0627      1961.0627      172429.56      172429.56     -3998.8037      9472.5614      9472.5614      375.21547    
     92000   3147.7851      2064.9166      2064.9166      194239.12      194239.12     -3980.8962      9472.5614      9472.5614      380.75918    
     93000   3181.8037      1894.697       1894.697       181173.18      181173.18     -3998.3249      9472.5614      9472.5614      384.31097    
     94000   3214.9294      1977.9857      1977.9857      181528.98      181528.98     -4005.3105      9472.5614      9472.5614      389.94604    
     95000   3248.7752      2036.5435      2036.5435      185239.85      185239.85     -3990.7406      9472.5614      9472.5614      395.67618    
     96000   3282.3949      2013.0707      2013.0707      183524.03      183524.03     -3996.9793      9472.5614      9472.5614      398.01829    
     97000   3315.8007      1935.6549      1935.6549      186122.81      186122.81     -4005.7785      9472.5614      9472.5614      402.63865    
     98000   3349.2818      2010.2723      2010.2723      196651.34      196651.34     -3998.1545      9472.5614      9472.5614      408.18479    
     99000   3383.6092      2027.0742      2027.0742      191408.33      191408.33     -3995.3838      9472.5614      9472.5614      414.05034    
    100000   3417.7268      1881.6921      1881.6921      176559.06      176559.06     -3995.8479      9472.5614      9472.5614      417.88293    
    101000   3451.8746      1986.3021      1986.3021      181843.05      181843.05     -3993.0067      9472.5614      9472.5614      424.16399    
    102000   3486.5146      1960.5704      1960.5704      167187.84      167187.84     -4016.0017      9472.5614      9472.5614      429.90288    
    103000   3520.8153      2046.9477      2046.9477      182404.9       182404.9      -3995.1871      9472.5614      9472.5614      436.64596    
    104000   3554.2494      1985.6738      1985.6738      196328.1       196328.1      -3998.8097      9472.5614      9472.5614      438.29189    
    105000   3588.186       2025.0312      2025.0312      183082.83      183082.83     -3997.0043      9472.5614      9472.5614      442.32392    
    106000   3622.0989      1964.279       1964.279       176125.13      176125.13     -4001.7636      9472.5614      9472.5614      447.40584    
    107000   3655.323       2032.9813      2032.9813      177767.77      177767.77     -4003.8064      9472.5614      9472.5614      451.49164    
    108000   3689.3156      2036.1291      2036.1291      181736.8       181736.8      -3989.3038      9472.5614      9472.5614      455.12119    
    109000   3723.9289      2021.7138      2021.7138      193050.92      193050.92     -3995.6772      9472.5614      9472.5614      460.983      
    110000   3757.8448      1974.3894      1974.3894      182272.31      182272.31     -4005.0534      9472.5614      9472.5614      463.11624    
    111000   3792.2724      2006.098       2006.098       184414.45      184414.45     -3997.9146      9472.5614      9472.5614      465.56991    
    112000   3826.9305      2020.8603      2020.8603      177804.32      177804.32     -3999.2224      9472.5614      9472.5614      468.15488    
    113000   3860.3789      1999.2251      1999.2251      183921.89      183921.89     -4002.4218      9472.5614      9472.5614      473.241      
    114000   3894.2928      2045.0142      2045.0142      186173.49      186173.49     -3999.6478      9472.5614      9472.5614      474.21667    
    115000   3928.5741      1918.7309      1918.7309      173591.76      173591.76     -3994.1788      9472.5614      9472.5614      481.0239     
    116000   3962.0287      1933.8407      1933.8407      180105.63      180105.63     -4002.6528      9472.5614      9472.5614      484.86035    
    117000   3996.3106      2005.7754      2005.7754      174744.88      174744.88     -4000.975       9472.5614      9472.5614      489.77196    
    118000   4029.8044      1911.8936      1911.8936      177549.79      177549.79     -4000.5915      9472.5614      9472.5614      493.45888    
    119000   4063.2332      1946.1817      1946.1817      176899.91      176899.91     -3999.8993      9472.5614      9472.5614      493.13654    
    120000   4097.3129      1977.5882      1977.5882      198258.85      198258.85     -3999.4433      9472.5614      9472.5614      497.08987    
    121000   4131.9227      1998.1251      1998.1251      169057.06      169057.06     -4004.6886      9472.5614      9472.5614      503.25947    
ERROR: Lost atoms: original 1000 current 998
For more information see https://docs.lammps.org/err0008 (src/thermo.cpp:518)
