 vasp.6.5.0 16Dec24 (build Jan 20 2025 08:32:48) complex                         
 executed on        HPECrayEX_GCC date 2025.07.21  14:26:03
 running  128 mpi-ranks, with    1 threads/rank, on    1 nodes
 distrk:  each k-point on  128 cores,    1 groups
 distr:  one band on NCORE=  16 cores,    8 groups


--------------------------------------------------------------------------------------------------------


 INCAR:
   SYSTEM = a-Si SPC
   NCORE = 16
   ISTART = 1
   ICHARG = 1
   ISPIN = 1
   ISYM = 1
   EDIFF = 1E-6
   NELM = 150
   EDIFFG = -0.01
   NSW = 0
   ISIF = 2
   IBRION = -1
   PREC = Accurate
   ENCUT = 1200
   KSPACING = 0.23
   KGAMMA = .TRUE.
   METAGGA = SCAN
   LASPH = .TRUE.
   LDIAG = .FALSE.
   LMIXTAU = .TRUE.
   ADDGRID = .TRUE.
   ALGO = Normal
   ISMEAR = 0
   SIGMA = 0.1
   LORBIT = 11
   NEDOS = 2000
   LWAVE = .FALSE.
   LCHARG = .FALSE.

 POTCAR:    PAW_PBE H 15Jun2001                   
 POTCAR:    PAW_PBE Si 05Jan2001                  
 POTCAR:    PAW_PBE H 15Jun2001                   
   SHA256 =  030f79b5d3ab3cf0e668861823c8fb652ff669f3e15e46930bd03bfd63a607b6 H/POTCAR              
   COPYR  = (c) Copyright 15Jun2001 Georg Kresse                                                    
   COPYR  = This file is part of the software VASP. Any use, copying, and all other rights are regul
   COPYR  = If you do not have a valid VASP license, you may not use, copy or distribute this file. 
   VRHFIN =H: ultrasoft test                                                                        
   LEXCH  = PE                                                                                      
   EATOM  =    12.4884 eV,    0.9179 Ry                                                             
                                                                                                    
   TITEL  = PAW_PBE H 15Jun2001                                                                     
   LULTRA =        F    use ultrasoft PP ?                                                          
   IUNSCR =        0    unscreen: 0-lin 1-nonlin 2-no                                               
   RPACOR =    0.000    partial core radius                                                         
   POMASS =    1.000; ZVAL   =    1.000    mass and valenz                                          
   RCORE  =    1.100    outmost cutoff radius                                                       
   RWIGS  =    0.700; RWIGS  =    0.370    wigner-seitz radius (au A)                               
   ENMAX  =  250.000; ENMIN  =  200.000 eV                                                          
   RCLOC  =    0.701    cutoff for local pot                                                        
   LCOR   =        T    correct aug charges                                                         
   LPAW   =        T    paw PP                                                                      
   EAUG   =  400.000                                                                                
   RMAX   =    1.123    core radius for proj-oper                                                   
   RAUG   =    1.200    factor for augmentation sphere                                              
   RDEP   =    1.112    radius for radial grids                                                     
   RDEPT  =    0.926    core radius for aug-charge                                                  
                                                                                                    
   Atomic configuration                                                                             
    2 entries                                                                                       
     n  l   j            E        occ.                                                              
     1  0  0.50        -6.4927   1.0000                                                             
     2  1  0.50        -3.4015   0.0000                                                             
   Description                                                                                      
     l       E           TYP  RCUT    TYP  RCUT                                                     
     0     -6.4927494     23  1.100                                                                 
     0      6.8029130     23  1.100                                                                 
     1     -4.0817478     23  1.100                                                                 
  local pseudopotential read in
  atomic valenz-charges read in
  non local Contribution for L=           0  read in
    real space projection operators read in
  non local Contribution for L=           0  read in
    real space projection operators read in
  non local Contribution for L=           1  read in
    real space projection operators read in
    PAW grid and wavefunctions read in

   number of l-projection  operators is LMAX  =           3
   number of lm-projection operators is LMMAX =           5

 POTCAR:    PAW_PBE Si 05Jan2001                  
   SHA256 =  79d9987ad8750f624c4d6acb2a16d13abf6a777132adc04dc6c8399be72b42bb Si/POTCAR             
   COPYR  = (c) Copyright 05Jan2001 Georg Kresse                                                    
   COPYR  = This file is part of the software VASP. Any use, copying, and all other rights are regul
   COPYR  = If you do not have a valid VASP license, you may not use, copy or distribute this file. 
   VRHFIN =Si: s2p2                                                                                 
   LEXCH  = PE                                                                                      
   EATOM  =   103.0669 eV,    7.5752 Ry                                                             
                                                                                                    
   TITEL  = PAW_PBE Si 05Jan2001                                                                    
   LULTRA =        F    use ultrasoft PP ?                                                          
   IUNSCR =        1    unscreen: 0-lin 1-nonlin 2-no                                               
   RPACOR =    1.500    partial core radius                                                         
   POMASS =   28.085; ZVAL   =    4.000    mass and valenz                                          
   RCORE  =    1.900    outmost cutoff radius                                                       
   RWIGS  =    2.480; RWIGS  =    1.312    wigner-seitz radius (au A)                               
   ENMAX  =  245.345; ENMIN  =  184.009 eV                                                          
   ICORE  =        2    local potential                                                             
   LCOR   =        T    correct aug charges                                                         
   LPAW   =        T    paw PP                                                                      
   EAUG   =  322.069                                                                                
   DEXC   =    0.000                                                                                
   RMAX   =    1.950    core radius for proj-oper                                                   
   RAUG   =    1.300    factor for augmentation sphere                                              
   RDEP   =    1.993    radius for radial grids                                                     
   RDEPT  =    1.837    core radius for aug-charge                                                  
                                                                                                    
   Atomic configuration                                                                             
    6 entries                                                                                       
     n  l   j            E        occ.                                                              
     1  0  0.50     -1785.8828   2.0000                                                             
     2  0  0.50      -139.4969   2.0000                                                             
     2  1  1.50       -95.5546   6.0000                                                             
     3  0  0.50       -10.8127   2.0000                                                             
     3  1  0.50        -4.0811   2.0000                                                             
     3  2  1.50        -4.0817   0.0000                                                             
   Description                                                                                      
     l       E           TYP  RCUT    TYP  RCUT                                                     
     0    -10.8127223     23  1.900                                                                 
     0     -7.6451159     23  1.900                                                                 
     1     -4.0811372     23  1.900                                                                 
     1      2.4879257     23  1.900                                                                 
     2     -4.0817478      7  1.900                                                                 
  local pseudopotential read in
  partial core-charges read in
  partial kinetic energy density read in
  atomic valenz-charges read in
  non local Contribution for L=           0  read in
    real space projection operators read in
  non local Contribution for L=           0  read in
    real space projection operators read in
  non local Contribution for L=           1  read in
    real space projection operators read in
  non local Contribution for L=           1  read in
    real space projection operators read in
    PAW grid and wavefunctions read in

   number of l-projection  operators is LMAX  =           4
   number of lm-projection operators is LMMAX =           8

 -----------------------------------------------------------------------------
|                                                                             |
|               ----> ADVICE to this user running VASP <----                  |
|                                                                             |
|     You have a (more or less) 'large supercell' and for larger cells it     |
|     might be more efficient to use real-space projection operators.         |
|     Therefore, try LREAL= Auto in the INCAR file.                           |
|     Mind: For very accurate calculation, you might also keep the            |
|     reciprocal projection scheme (i.e. LREAL=.FALSE.).                      |
|                                                                             |
 -----------------------------------------------------------------------------

 -----------------------------------------------------------------------------
|                                                                             |
|               ----> ADVICE to this user running VASP <----                  |
|                                                                             |
|     You enforced a specific xc type in the INCAR file but a different       |
|     type was found in the POTCAR file.                                      |
|     I HOPE YOU KNOW WHAT YOU ARE DOING!                                     |
|                                                                             |
 -----------------------------------------------------------------------------

  PAW_PBE H 15Jun2001                   :
 energy of atom  1       EATOM=  -12.4884
 kinetic energy error for atom=    0.0000 (will be added to EATOM!!)
  PAW_PBE Si 05Jan2001                  :
 energy of atom  2       EATOM= -103.0669
 kinetic energy error for atom=    0.0001 (will be added to EATOM!!)


 POSCAR:  H Si
  positions in cartesian coordinates
  No initial velocities read in


 exchange-correlation table for SCAN
   RHO(1)=    0.500       N(1)  =     2000
   RHO(2)=  100.500       N(2)  =     4000



--------------------------------------------------------------------------------------------------------


 ion  position               nearest neighbor table
   1  0.559  0.106  0.423-  37 1.47
   2  0.238  0.864  0.464-  24 1.49
   3  0.092  0.198  0.510-  56 1.56
   4  0.341  0.634  0.405-  42 1.46
   5  0.742  0.141  0.464-  29 1.45
   6  0.152  0.230  0.405-  16 1.52
   7  0.825  0.347  0.491-  38 1.51
   8  0.523  0.615  0.599-
   9  0.238  0.384  0.575-
  10  0.206  0.050  0.540-  25 1.47
  11  0.988  0.328  0.481-  65 1.65
  12  0.254  0.722  0.455-  60 1.52
  13  0.044  0.961  0.498-  25 2.20  41 2.28  32 2.33  23 2.36
  14  0.795  0.942  0.598-  59 2.26  21 2.32  34 2.32
  15  0.076  0.484  0.404-  65 2.37  19 2.37
  16  0.224  0.305  0.397-   6 1.52  48 2.33
  17  0.688  0.468  0.578-  38 2.44  63 2.53  28 3.06
  18  0.041  0.504  0.557-  54 2.34  20 2.40  19 2.59
  19  0.161  0.513  0.482-  60 2.27  48 2.31  15 2.37  18 2.59
  20  0.055  0.348  0.586-  49 2.30  56 2.37  18 2.40
  21  0.849  0.074  0.557-  41 2.28  14 2.32  29 2.47
  22  0.330  0.118  0.463-  53 2.34  68 2.40  57 2.51
  23  0.068  0.026  0.414-  13 2.36  68 2.37  40 2.51  41 2.78
  24  0.266  0.883  0.409-   2 1.49  68 2.28  62 2.29  70 3.07
  25  0.130  1.000  0.565-  10 1.47  13 2.20  27 2.37
  26  0.662  0.936  0.455-  64 2.25  51 2.31  37 2.33  33 2.44  59 3.14
  27  0.209  0.860  0.582-  25 2.37  45 2.37  46 2.40
  28  0.655  0.276  0.533-  38 2.25  29 2.29  39 2.38  47 2.42  17 3.06
  29  0.705  0.129  0.516-   5 1.45  28 2.29  64 2.35  21 2.47
  30  0.689  0.474  0.442-  63 2.34  47 2.35  36 2.37
  31  0.893  0.770  0.466-  44 2.24  52 2.26  32 2.31  33 2.38
  32  0.046  0.803  0.481-  46 2.30  31 2.31  13 2.33  70 2.35
  33  0.826  0.914  0.443-  31 2.38  41 2.40  26 2.44
  34  0.851  0.793  0.603-  44 2.20  14 2.32
  35  0.440  0.757  0.541-  50 2.23  66 2.29  67 2.32  45 2.38
  36  0.844  0.512  0.460-  54 2.29  52 2.32  65 2.33  30 2.37
  37  0.611  0.040  0.392-   1 1.47  26 2.33
  38  0.790  0.346  0.547-   7 1.51  28 2.25  49 2.30  17 2.44
  39  0.547  0.264  0.603-  69 2.23  28 2.38
  40  0.936  0.135  0.404-  41 2.36  23 2.51
  41  0.913  0.040  0.478-  13 2.28  21 2.28  40 2.36  33 2.40  23 2.78
  42  0.438  0.625  0.419-   4 1.46  43 2.17  50 2.30
  43  0.455  0.543  0.490-  42 2.17  67 2.26  63 2.34  55 2.36
  44  0.835  0.697  0.536-  34 2.20  31 2.24  58 2.28  54 2.31
  45  0.363  0.897  0.559-  27 2.37  35 2.38  53 2.47
  46  0.132  0.730  0.544-  60 2.27  32 2.30  27 2.40
  47  0.618  0.329  0.446-  30 2.35  61 2.36  28 2.42
  48  0.241  0.376  0.478-  55 2.28  19 2.31  16 2.33  56 2.45
  49  0.904  0.319  0.608-  38 2.30  20 2.30
  50  0.488  0.758  0.458-  35 2.23  42 2.30  51 2.39  62 2.39
  51  0.646  0.782  0.436-  58 2.29  26 2.31  50 2.39
  52  0.878  0.645  0.414-  31 2.26  36 2.32
  53  0.429  0.004  0.494-  22 2.34  62 2.41  64 2.47  45 2.47
  54  0.888  0.548  0.544-  36 2.29  44 2.31  18 2.34
  55  0.395  0.392  0.492-  48 2.28  61 2.32  69 2.33  43 2.36
  56  0.164  0.265  0.536-   3 1.56  20 2.37  57 2.41  48 2.45
  57  0.299  0.175  0.554-  69 2.37  56 2.41  22 2.51
  58  0.685  0.703  0.510-  44 2.28  51 2.29  63 2.34  66 2.42
  59  0.648  0.905  0.577-  66 2.20  14 2.26  64 2.28  26 3.14
  60  0.235  0.649  0.496-  12 1.52  67 2.27  46 2.27  19 2.27
  61  0.465  0.343  0.416-  55 2.32  47 2.36
  62  0.421  0.895  0.423-  24 2.29  50 2.39  53 2.41
  63  0.612  0.560  0.506-  43 2.34  30 2.34  58 2.34  17 2.53
  64  0.592  0.014  0.521-  26 2.25  59 2.28  29 2.35  53 2.47
  65  0.949  0.398  0.435-  11 1.65  36 2.33  15 2.37
  66  0.585  0.768  0.577-  59 2.20  35 2.29  58 2.42
  67  0.361  0.619  0.546-  43 2.26  60 2.27  35 2.32
  68  0.230  0.035  0.405-  24 2.28  23 2.37  22 2.40
  69  0.415  0.289  0.561-  39 2.23  55 2.33  57 2.37
  70  0.094  0.762  0.397-  32 2.35  24 3.07

  LATTYP: Found a simple tetragonal cell.
 ALAT       =    14.5399814335
 C/A-ratio  =     1.7542466279
  
  Lattice vectors:
  
 A1 = (  14.5399814335,   0.0000000000,   0.0000000000)
 A2 = (   0.0000000000,  14.5399814335,   0.0000000000)
 A3 = (   0.0000000000,   0.0000000000,  25.5067134000)


Analysis of symmetry for initial positions (statically):
=====================================================================
 Subroutine PRICEL returns:
 Original cell was already a primitive cell.
 

 Routine SETGRP: Setting up the symmetry group for a 
 simple tetragonal supercell.


 Subroutine GETGRP returns: Found  1 space group operations
 (whereof  1 operations were pure point group operations)
 out of a pool of 16 trial point group operations.


The static configuration has the point symmetry C_1 .


Analysis of symmetry for dynamics (positions and initial velocities):
=====================================================================
 Subroutine PRICEL returns:
 Original cell was already a primitive cell.
 

 Routine SETGRP: Setting up the symmetry group for a 
 simple tetragonal supercell.


 Subroutine GETGRP returns: Found  1 space group operations
 (whereof  1 operations were pure point group operations)
 out of a pool of 16 trial point group operations.


The dynamic configuration has the point symmetry C_1 .


 Subroutine INISYM returns: Found  1 space group operations
 (whereof  1 operations are pure point group operations),
 and found     1 'primitive' translations


----------------------------------------------------------------------------------------

                                     Primitive cell                                     

  volume of cell :    5392.4013

  direct lattice vectors                    reciprocal lattice vectors
    14.539981434  0.000000000  0.000000000     0.068775879  0.000000000  0.000000000
     0.000000000 14.539981434  0.000000000     0.000000000  0.068775879  0.000000000
     0.000000000  0.000000000 25.506713400     0.000000000  0.000000000  0.039205365

  length of vectors
    14.539981434 14.539981434 25.506713400     0.068775879  0.068775879  0.039205365

  position of ions in fractional coordinates (direct lattice)
     0.558572240  0.106131497  0.423299985
     0.238371694  0.864065753  0.463927799
     0.092245647  0.197939042  0.509703590
     0.340716391  0.634265597  0.404989825
     0.741699709  0.141471983  0.464049727
     0.151730593  0.230128217  0.405419673
     0.824636541  0.346765230  0.491370378
     0.522977284  0.614784829  0.598581760
     0.238201817  0.383679307  0.575338860
     0.205724472  0.049677230  0.540347680
     0.988309378  0.327844985  0.480937830
     0.253589732  0.722009175  0.454869007
     0.043827085  0.961101640  0.497611088
     0.794684646  0.941789373  0.597919581
     0.076180290  0.483612034  0.404233750
     0.224091758  0.304545093  0.396991774
     0.688171443  0.468412565  0.577782530
     0.041418554  0.503590052  0.556501074
     0.161202407  0.513488964  0.481795644
     0.055083151  0.347790678  0.586037612
     0.849086366  0.073780699  0.557287534
     0.329757643  0.118284883  0.462603049
     0.068190115  0.026277681  0.414211358
     0.266148896  0.882669628  0.408505762
     0.129592325  0.999512968  0.565212114
     0.661570308  0.935737096  0.455459832
     0.208939744  0.860399998  0.581531739
     0.655166586  0.275594575  0.533099392
     0.705179718  0.128828225  0.516406532
     0.689099917  0.474332793  0.441985732
     0.893109806  0.770042249  0.466251893
     0.045911682  0.803240365  0.481479648
     0.826335306  0.913708182  0.443437507
     0.850888294  0.792531961  0.602733608
     0.440479930  0.756775382  0.541404656
     0.844272055  0.512180847  0.460265234
     0.611299268  0.039593930  0.392053647
     0.790338011  0.346420662  0.547166669
     0.547311565  0.264023033  0.602930419
     0.935572034  0.134947215  0.403917754
     0.913274894  0.040135746  0.477845311
     0.437647739  0.624766960  0.419462446
     0.454642946  0.542878960  0.490160500
     0.835296803  0.697373655  0.536307959
     0.363223297  0.897449564  0.559462647
     0.132209247  0.730083463  0.544254102
     0.617821284  0.329198495  0.445972134
     0.240635796  0.376044497  0.478388305
     0.904168967  0.318604946  0.607946353
     0.487953856  0.758013348  0.458382200
     0.645695460  0.781699760  0.435554876
     0.878013501  0.645478128  0.414170114
     0.429089956  0.004032963  0.493780332
     0.887965370  0.548106615  0.544126293
     0.394937918  0.391849194  0.492314051
     0.163554542  0.264517532  0.535593637
     0.299477686  0.175408752  0.554053483
     0.685329623  0.703302136  0.510142691
     0.647965752  0.905482587  0.577239536
     0.235401951  0.648738793  0.496220866
     0.465424253  0.343439228  0.415620007
     0.421159410  0.894918612  0.422971522
     0.611980836  0.560464265  0.505547430
     0.592207084  0.013562259  0.520860261
     0.948639451  0.398285928  0.435300826
     0.584892769  0.767683236  0.576562067
     0.360922056  0.618733940  0.546171244
     0.229994792  0.034863112  0.404958657
     0.415069306  0.289347687  0.561464865
     0.093795856  0.762387493  0.396685972

  ion indices of the primitive-cell ions
   primitive index   ion index
                 1           1
                 2           2
                 3           3
                 4           4
                 5           5
                 6           6
                 7           7
                 8           8
                 9           9
                10          10
                11          11
                12          12
                13          13
                14          14
                15          15
                16          16
                17          17
                18          18
                19          19
                20          20
                21          21
                22          22
                23          23
                24          24
                25          25
                26          26
                27          27
                28          28
                29          29
                30          30
                31          31
                32          32
                33          33
                34          34
                35          35
                36          36
                37          37
                38          38
                39          39
                40          40
                41          41
                42          42
                43          43
                44          44
                45          45
                46          46
                47          47
                48          48
                49          49
                50          50
                51          51
                52          52
                53          53
                54          54
                55          55
                56          56
                57          57
                58          58
                59          59
                60          60
                61          61
                62          62
                63          63
                64          64
                65          65
                66          66
                67          67
                68          68
                69          69
                70          70

----------------------------------------------------------------------------------------


 -----------------------------------------------------------------------------
|                                                                             |
|           W    W    AA    RRRRR   N    N  II  N    N   GGGG   !!!           |
|           W    W   A  A   R    R  NN   N  II  NN   N  G    G  !!!           |
|           W    W  A    A  R    R  N N  N  II  N N  N  G       !!!           |
|           W WW W  AAAAAA  RRRRR   N  N N  II  N  N N  G  GGG   !            |
|           WW  WW  A    A  R   R   N   NN  II  N   NN  G    G                |
|           W    W  A    A  R    R  N    N  II  N    N   GGGG   !!!           |
|                                                                             |
|     The requested file  could not be found or opened for reading            |
|     k-point information. Automatic k-point generation is used as a          |
|     fallback, which may lead to unwanted results.                           |
|                                                                             |
 -----------------------------------------------------------------------------



Automatic generation of k-mesh.
 Grid dimensions derived from KSPACING:
 generate k-points for:    2    2    2

 Generating k-lattice:

  Cartesian coordinates                     Fractional coordinates (reciprocal lattice)
     0.034387939  0.000000000  0.000000000     0.500000000  0.000000000  0.000000000
     0.000000000  0.034387939  0.000000000     0.000000000  0.500000000  0.000000000
     0.000000000  0.000000000  0.019602682     0.000000000  0.000000000  0.500000000

  Length of vectors
     0.034387939  0.034387939  0.019602682

  Shift w.r.t. Gamma in fractional coordinates (k-lattice)
     0.000000000  0.000000000  0.000000000

 
 Subroutine IBZKPT returns following result:
 ===========================================
 
 Found      8 irreducible k-points:
 
 Following reciprocal coordinates:
            Coordinates               Weight
  0.000000  0.000000  0.000000      1.000000
  0.500000  0.000000  0.000000      1.000000
  0.000000  0.500000  0.000000      1.000000
  0.500000  0.500000  0.000000      1.000000
  0.000000  0.000000  0.500000      1.000000
  0.500000  0.000000  0.500000      1.000000
  0.000000  0.500000  0.500000      1.000000
  0.500000  0.500000  0.500000      1.000000
 
 Following cartesian coordinates:
            Coordinates               Weight
  0.000000  0.000000  0.000000      1.000000
  0.034388  0.000000  0.000000      1.000000
  0.000000  0.034388  0.000000      1.000000
  0.034388  0.034388  0.000000      1.000000
  0.000000  0.000000  0.019603      1.000000
  0.034388  0.000000  0.019603      1.000000
  0.000000  0.034388  0.019603      1.000000
  0.034388  0.034388  0.019603      1.000000
 


--------------------------------------------------------------------------------------------------------




 Dimension of arrays:
   k-points           NKPTS =      8   k-points in BZ     NKDIM =      8   number of bands    NBANDS=    160
   number of dos      NEDOS =   2000   number of ions     NIONS =     70
   non local maximal  LDIM  =      4   non local SUM 2l+1 LMDIM =      8
   total plane-waves  NPLWV = ******
   max r-space proj   IRMAX =      1   max aug-charges    IRDMAX= 403351
   dimension x,y,z NGX =   168 NGY =  168 NGZ =  288
   dimension x,y,z NGXF=   336 NGYF=  336 NGZF=  576
   support grid    NGXF=   672 NGYF=  672 NGZF= 1152
   ions per type =              12  58
   NGX,Y,Z   is equivalent  to a cutoff of  19.21, 19.21, 18.77 a.u.
   NGXF,Y,Z  is equivalent  to a cutoff of  38.42, 38.42, 37.54 a.u.

 SYSTEM =  a-Si SPC                                
 POSCAR =   H Si                                   

 Startparameter for this run:
   NWRITE =      2    write-flag & timer
   PREC   = accura    normal or accurate (medium, high low for compatibility)
   ISTART =      1    job   : 0-new  1-cont  2-samecut
   ICHARG =      1    charge: 1-file 2-atom 10-const
   ISPIN  =      1    spin polarized calculation?
   LNONCOLLINEAR =      F non collinear calculations
   LSORBIT =      F    spin-orbit coupling
   INIWAV =      1    electr: 0-lowe 1-rand  2-diag
   LASPH  =      T    aspherical Exc in radial PAW
 Electronic Relaxation 1
   ENCUT  = 1200.0 eV  88.20 Ry    9.39 a.u.  41.07 41.07 72.04*2*pi/ulx,y,z
   ENINI  = 1200.0     initial cutoff
   ENAUG  =  400.0 eV  augmentation charge cutoff
   NELM   =    150;   NELMIN=  2; NELMDL=  0     # of ELM steps 
   EDIFF  = 0.1E-05   stopping-criterion for ELM
   LREAL  =      F    real-space projection
   NLSPLINE    = F    spline interpolate recip. space projectors
   LCOMPAT=      F    compatible to vasp.4.4
   GGA_COMPAT  = T    GGA compatible to vasp.4.4-vasp.4.6
   LMAXPAW     = -100 max onsite density
   LMAXMIX     =    2 max onsite mixed and CHGCAR
   VOSKOWN=      0    Vosko Wilk Nusair interpolation
   ROPT   =    0.00000   0.00000
 Ionic relaxation
   EDIFFG = -.1E-01   stopping-criterion for IOM
   NSW    =      0    number of steps for IOM
   NBLOCK =      1;   KBLOCK =      1    inner block; outer block 
   IBRION =     -1    ionic relax: 0-MD 1-quasi-New 2-CG
   NFREE  =      0    steps in history (QN), initial steepest desc. (CG)
   ISIF   =      2    stress and relaxation
   IWAVPR =     10    prediction:  0-non 1-charg 2-wave 3-comb
   ISYM   =      1    0-nonsym 1-usesym 2-fastsym
   LCORR  =      T    Harris-Foulkes like correction to forces

   POTIM  = 0.5000    time-step for ionic-motion
   TEIN   =    0.0    initial temperature
   TEBEG  =    0.0;   TEEND  =   0.0 temperature during run
   SMASS  =  -3.00    Nose mass-parameter (am)
   estimated Nose-frequenzy (Omega)   =  0.10E-29 period in steps = 0.13E+47 mass=  -0.483E-26a.u.
   SCALEE = 1.0000    scale energy and forces
   NPACO  =    256;   APACO  = 10.0  distance and # of slots for P.C.
   PSTRESS=    0.0 pullay stress

  Mass of Ions in am
   POMASS =   1.00 28.09
  Ionic Valenz
   ZVAL   =   1.00  4.00
  Atomic Wigner-Seitz radii
   RWIGS  =  -1.00 -1.00
  virtual crystal weights 
   VCA    =   1.00  1.00
   NELECT =     244.0000    total number of electrons
   NUPDOWN=      -1.0000    fix difference up-down

 DOS related values:
   EMIN   =  10.00;   EMAX   =-10.00  energy-range for DOS
   EFERMI =   0.00;   METHOD = LEGACY      
   ISMEAR =     0;   SIGMA  =   0.10  broadening in eV -4-tet -1-fermi 0-gaus
   EFERMI_NEDOS =   21; number of points for ismear=-14 and -15

 Electronic relaxation 2 (details)
   IALGO  =     38    algorithm
   LDIAG  =      F    sub-space diagonalisation (order eigenvalues)
   LSUBROT=      F    optimize rotation matrix (better conditioning)
   TURBO    =      0    0=normal 1=particle mesh
   IRESTART =      0    0=no restart 2=restart with 2 vectors
   NREBOOT  =      0    no. of reboots
   NMIN     =      0    reboot dimension
   EREF     =   0.00    reference energy to select bands
   IMIX   =      4    mixing-type and parameters
     AMIX     =   0.40;   BMIX     =  1.00
     AMIX_MAG =   1.60;   BMIX_MAG =  1.00
     AMIN     =   0.10
     WC   =   100.;   INIMIX=   1;  MIXPRE=   1;  MAXMIX= -45

 Intra band minimization:
   WEIMIN = 0.0000     energy-eigenvalue tresh-hold
   EBREAK =  0.16E-08  absolut break condition
   DEPER  =   0.30     relativ break condition  

   TIME   =   0.40     timestep for ELM

  volume/ion in A,a.u.               =      77.03       519.85
  Fermi-wavevector in a.u.,A,eV,Ry     =   0.583370  1.102409  4.630341  0.340320
  Thomas-Fermi vector in A             =   1.628643

 Write flags
   LWAVE        =      F    write WAVECAR
   LDOWNSAMPLE  =      F    k-point downsampling of WAVECAR
   LCHARG       =      F    write CHGCAR
   LVTOT        =      F    write LOCPOT, total local potential
   LVHAR        =      F    write LOCPOT, Hartree potential only
   WRT_POTENTIAL= false  ! write potential to hdf5 file
   LELF         =      F    write electronic localiz. function (ELF)
   LORBIT       =     11    0 simple, 1 ext, 2 COOP (PROOUT), +10 PAW based schemes


 Python interface
   PLUGINS active      =      F    recompile with -DPLUGINS to activate

 Dipole corrections
   LMONO      =      F    monopole corrections only (constant potential shift)
   LDIPOL     =      F    correct potential (dipole corrections)
   IDIPOL     =      0    1-x, 2-y, 3-z, 4-all directions 
   EPSILON    =  1.0000000 bulk dielectric constant
   LVACPOTAV  =      F  vacuum potentials using an averaging scheme for the charge density
   VACPOTFLAT =  0.1000000 required flatness to determine vacuum potential

Coulomb truncation method
  LTRUNCATE          =      F  Coulomb kernel truncation to be used
  IDIMENSIONALITY    =      3  Dimensionality of cutoff (0 molecules / 2 surfaces)
  ISURFACE           =     -1  Direction of surface normal
  LCOARSEN           =      F  Coarsen the charge grid before padding, preferred


 Exchange correlation treatment:
   METAGGA = SCAN    functional components
   XC_C    = 1    coefficients multiplying the functional components
   LIBXC   =     F    Libxc                    
   VOSKOWN =     0    Vosko Wilk Nusair interpolation
   LHFCALC =     F    Hartree Fock is set to
   LHFONE  =     F    Hartree Fock one center treatment
   AEXX    =    0.0000 exact exchange contribution

 Parameters of functionals:
   SCAN:
     P1 =  0.000000E+00
     P2 =  0.000000E+00
     P3 =  0.000000E+00

 Accuracy and mixing parameters for tau-dependent meta-GGA functionals:
   LMAXTAU = 6
   LMIXTAU = T

 Van der Waals corrections
   IVDW    =     0    specifies the selected vdW correction

 Linear response parameters
   LEPSILON=     F    determine dielectric tensor
   LRPA    =     F    only Hartree local field effects (RPA)
   LNABLA  =     F    use nabla operator in PAW spheres
   LVEL    =     F    velocity operator in full k-point grid
   CSHIFT  =0.1000    complex shift for real part using Kramers Kronig
   OMEGAMAX=  -1.0    maximum frequency
   DEG_THRESHOLD= 0.2000000E-02 threshold for treating states as degnerate
   RTIME   =   -0.100 relaxation time in fs
  (WPLASMAI=    0.000 imaginary part of plasma frequency in eV, 0.658/RTIME)
   DFIELD  = 0.0000000 0.0000000 0.0000000 field for delta impulse in time

  Optional k-point grid parameters
   LKPOINTS_OPT  =     F    use optional k-point grid
   KPOINTS_OPT_MODE=     1    mode for optional k-point grid

 Orbital magnetization related:
   ORBITALMAG=     F  switch on orbital magnetization
   LCHIMAG   =     F  perturbation theory with respect to B field
   DQ        =  0.001000  dq finite difference perturbation B field
   LLRAUG    =     F  two centre corrections for induced B field
   LBONE     =     F  B-component reconstruction in AE one-centre
   LVGVCALC  =     T  calculate vGv susceptibility
   LVGVAPPL  =     F  apply vGv susceptibility instead of pGv for G=0

 Random number generation:
   RANDOM_GENERATOR = DEFAULT
   PCG_SEED         = not used


--------------------------------------------------------------------------------------------------------


 Static calculation
 charge density and potential will be updated during run
 non-spin polarized calculation
 Variant of blocked Davidson
 perform Loewdin sub-space diagonalisation
    ordering is kept fixed
    before iterative eigenvector-optimisation
 modified Broyden-mixing scheme, WC =      100.0
 initial mixing is a Kerker type mixing with AMIX =  0.4000 and BMIX =      1.0000
 Hartree-type preconditioning will be used
 using additional bands           38
 reciprocal scheme for non local part
 use partial core corrections
 calculate Harris-corrections to forces   (improved forces if not selfconsistent)
 use gradient corrections 
 use of overlap-Matrix (Vanderbilt PP)
 Gauss-broadening in eV      SIGMA  =   0.10


--------------------------------------------------------------------------------------------------------


  energy-cutoff  :     1200.00
  volume of cell :     5392.40
      direct lattice vectors                 reciprocal lattice vectors
    14.539981434  0.000000000  0.000000000     0.068775879  0.000000000  0.000000000
     0.000000000 14.539981434  0.000000000     0.000000000  0.068775879  0.000000000
     0.000000000  0.000000000 25.506713400     0.000000000  0.000000000  0.039205365

  length of vectors
    14.539981434 14.539981434 25.506713400     0.068775879  0.068775879  0.039205365



 old parameters found on file WAVECAR:
  energy-cutoff  :     1200.00
  volume of cell :     5392.40
      direct lattice vectors                 reciprocal lattice vectors
    14.539981434  0.000000000  0.000000000     0.068775879  0.000000000  0.000000000
     0.000000000 14.539981434  0.000000000     0.000000000  0.068775879  0.000000000
     0.000000000  0.000000000 25.506713400     0.000000000  0.000000000  0.039205365

  length of vectors


 k-points in units of 2pi/SCALE and weight: read from INCAR                         
   0.00000000  0.00000000  0.00000000       0.125
   0.03438794  0.00000000  0.00000000       0.125
   0.00000000  0.03438794  0.00000000       0.125
   0.03438794  0.03438794  0.00000000       0.125
   0.00000000  0.00000000  0.01960268       0.125
   0.03438794  0.00000000  0.01960268       0.125
   0.00000000  0.03438794  0.01960268       0.125
   0.03438794  0.03438794  0.01960268       0.125

 k-points in reciprocal lattice and weights: read from INCAR                         
   0.00000000  0.00000000  0.00000000       0.125
   0.50000000  0.00000000  0.00000000       0.125
   0.00000000  0.50000000  0.00000000       0.125
   0.50000000  0.50000000  0.00000000       0.125
   0.00000000  0.00000000  0.50000000       0.125
   0.50000000  0.00000000  0.50000000       0.125
   0.00000000  0.50000000  0.50000000       0.125
   0.50000000  0.50000000  0.50000000       0.125

 position of ions in fractional coordinates (direct lattice) 
   0.55857224  0.10613150  0.42329999
   0.23837169  0.86406575  0.46392780
   0.09224565  0.19793904  0.50970359
   0.34071639  0.63426560  0.40498983
   0.74169971  0.14147198  0.46404973
   0.15173059  0.23012822  0.40541967
   0.82463654  0.34676523  0.49137038
   0.52297728  0.61478483  0.59858176
   0.23820182  0.38367931  0.57533886
   0.20572447  0.04967723  0.54034768
   0.98830938  0.32784499  0.48093783
   0.25358973  0.72200918  0.45486901
   0.04382708  0.96110164  0.49761109
   0.79468465  0.94178937  0.59791958
   0.07618029  0.48361203  0.40423375
   0.22409176  0.30454509  0.39699177
   0.68817144  0.46841257  0.57778253
   0.04141855  0.50359005  0.55650107
   0.16120241  0.51348896  0.48179564
   0.05508315  0.34779068  0.58603761
   0.84908637  0.07378070  0.55728753
   0.32975764  0.11828488  0.46260305
   0.06819011  0.02627768  0.41421136
   0.26614890  0.88266963  0.40850576
   0.12959233  0.99951297  0.56521211
   0.66157031  0.93573710  0.45545983
   0.20893974  0.86040000  0.58153174
   0.65516659  0.27559457  0.53309939
   0.70517972  0.12882823  0.51640653
   0.68909992  0.47433279  0.44198573
   0.89310981  0.77004225  0.46625189
   0.04591168  0.80324037  0.48147965
   0.82633531  0.91370818  0.44343751
   0.85088829  0.79253196  0.60273361
   0.44047993  0.75677538  0.54140466
   0.84427205  0.51218085  0.46026523
   0.61129927  0.03959393  0.39205365
   0.79033801  0.34642066  0.54716667
   0.54731157  0.26402303  0.60293042
   0.93557203  0.13494721  0.40391775
   0.91327489  0.04013575  0.47784531
   0.43764774  0.62476696  0.41946245
   0.45464295  0.54287896  0.49016050
   0.83529680  0.69737366  0.53630796
   0.36322330  0.89744956  0.55946265
   0.13220925  0.73008346  0.54425410
   0.61782128  0.32919849  0.44597213
   0.24063580  0.37604450  0.47838831
   0.90416897  0.31860495  0.60794635
   0.48795386  0.75801335  0.45838220
   0.64569546  0.78169976  0.43555488
   0.87801350  0.64547813  0.41417011
   0.42908996  0.00403296  0.49378033
   0.88796537  0.54810661  0.54412629
   0.39493792  0.39184919  0.49231405
   0.16355454  0.26451753  0.53559364
   0.29947769  0.17540875  0.55405348
   0.68532962  0.70330214  0.51014269
   0.64796575  0.90548259  0.57723954
   0.23540195  0.64873879  0.49622087
   0.46542425  0.34343923  0.41562001
   0.42115941  0.89491861  0.42297152
   0.61198084  0.56046426  0.50554743
   0.59220708  0.01356226  0.52086026
   0.94863945  0.39828593  0.43530083
   0.58489277  0.76768324  0.57656207
   0.36092206  0.61873394  0.54617124
   0.22999479  0.03486311  0.40495866
   0.41506931  0.28934769  0.56146487
   0.09379586  0.76238749  0.39668597

 position of ions in cartesian coordinates  (Angst):
   8.12163000  1.54315000 10.79699140
   3.46592000 12.56350000 11.83327340
   1.34125000  2.87803000 13.00086340
   4.95401000  9.22221000 10.32995940
  10.78430000  2.05700000 11.83638340
   2.20616000  3.34606000 10.34092340
  11.99020000  5.04196000 12.53324340
   7.60408000  8.93896000 15.26785340
   3.46345000  5.57869000 14.67500340
   2.99123000  0.72230600 13.78249340
  14.37000000  4.76686000 12.26714340
   3.68719000 10.49800000 11.60221340
   0.63724500 13.97440000 12.69242340
  11.55470000 13.69360000 15.25096340
   1.10766000  7.03171000 10.31067440
   3.25829000  4.42808000 10.12595540
  10.00600000  6.81071000 14.73733340
   0.60222500  7.32219000 14.19451340
   2.34388000  7.46612000 12.28902340
   0.80090800  5.05687000 14.94789340
  12.34570000  1.07277000 14.21457340
   4.79467000  1.71986000 11.79948340
   0.99148300  0.38207700 10.56517040
   3.86980000 12.83400000 10.41963940
   1.88427000 14.53290000 14.41670340
   9.61922000 13.60560000 11.61728340
   3.03798000 12.51020000 14.83296340
   9.52611000  4.00714000 13.59761340
  10.25330000  1.87316000 13.17183340
  10.01950000  6.89679000 11.27360340
  12.98580000 11.19640000 11.89255340
   0.66755500 11.67910000 12.28096340
  12.01490000 13.28530000 11.31063340
  12.37190000 11.52340000 15.37375340
   6.40457000 11.00350000 13.80945340
  12.27570000  7.44710000 11.73985340
   8.88828000  0.57569500 10.00000000
  11.49150000  5.03695000 13.95642340
   7.95790000  3.83889000 15.37877340
  13.60320000  1.96213000 10.30261440
  13.27900000  0.58357300 12.18826340
   6.36339000  9.08410000 10.69910840
   6.61050000  7.89345000 12.50238340
  12.14520000 10.13980000 13.67945340
   5.28126000 13.04890000 14.27005340
   1.92232000 10.61540000 13.88213340
   8.98311000  4.78654000 11.37528340
   3.49884000  5.46768000 12.20211340
  13.14660000  4.63251000 15.50671340
   7.09484000 11.02150000 11.69182340
   9.38840000 11.36590000 11.10957340
  12.76630000  9.38524000 10.56411840
   6.23896000  0.05863920 12.59471340
  12.91100000  7.96946000 13.87887340
   5.74239000  5.69748000 12.55731340
   2.37808000  3.84608000 13.66123340
   4.35440000  2.55044000 14.13208340
   9.96468000 10.22600000 13.01206340
   9.42141000 13.16570000 14.72348340
   3.42274000  9.43265000 12.65696340
   6.76726000  4.99360000 10.60110040
   6.12365000 13.01210000 10.78861340
   8.89819000  8.14914000 12.89485340
   8.61068000  0.19719500 13.28543340
  13.79320000  5.79107000 11.10309340
   8.50433000 11.16210000 14.70620340
   5.24780000  8.99638000 13.93103340
   3.34412000  0.50690900 10.32916440
   6.03510000  4.20711000 14.32112340
   1.36379000 11.08510000 10.11815540



--------------------------------------------------------------------------------------------------------


 k-point     1 :   0.0000 0.0000 0.0000  plane waves:  508801
 k-point     2 :   0.5000 0.0000 0.0000  plane waves:  509070
 k-point     3 :   0.0000 0.5000 0.0000  plane waves:  509070
 k-point     4 :   0.5000 0.5000 0.0000  plane waves:  509300
 k-point     5 :   0.0000 0.0000 0.5000  plane waves:  508664
 k-point     6 :   0.5000 0.0000 0.5000  plane waves:  509072
 k-point     7 :   0.0000 0.5000 0.5000  plane waves:  509072
 k-point     8 :   0.5000 0.5000 0.5000  plane waves:  508904

 maximum and minimum number of plane-waves per node :     31904    31713

 maximum number of plane-waves:    509300
 maximum index in each direction: 
   IXMAX=   41   IYMAX=   41   IZMAX=   72
   IXMIN=  -41   IYMIN=  -41   IZMIN=  -72


 parallel 3D FFT for wavefunctions:
    minimum data exchange during FFTs selected (reduces bandwidth)
 parallel 3D FFT for charge:
    minimum data exchange during FFTs selected (reduces bandwidth)


 total amount of memory used by VASP MPI-rank0   353615. kBytes
=======================================================================

   base                                    :      30000. kBytes
   nonl-proj                               :      68316. kBytes
   fftplans                                :      98005. kBytes
   grid                                    :      75605. kBytes
   one-center                              :         15. kBytes
   wavefun                                 :      81674. kBytes

     INWAV:  cpu time     24.1327: real time     24.1469
 Broyden mixing: mesh for mixing (old mesh)
   NGX = 83   NGY = 83   NGZ =145
  (NGX  =336   NGY  =336   NGZ  =576)
  gives a total of 998905 points

 initial charge density was supplied:
 number of electron     243.9999999 magnetization 
 keeping initial charge density in first step


--------------------------------------------------------------------------------------------------------


 Maximum index for augmentation-charges         9154 (set IRDMAX)


--------------------------------------------------------------------------------------------------------


 First call to EWALD:  gamma=   0.101
 Maximum number of real-space cells   3x   3x   2
 Maximum number of reciprocal cells   2x   2x   4

    FEWALD:  cpu time      0.0106: real time      0.0108


--------------------------------------- Ionic step        1  -------------------------------------------




--------------------------------------- Iteration      1(   1)  ---------------------------------------


    POTLOK:  cpu time      1.8886: real time      1.8901
    SETDIJ:  cpu time      1.3218: real time      1.3225
    EDDIAG:  cpu time     46.0267: real time     46.0501
     EDDAV:  cpu time    202.8352: real time    202.9519
       DOS:  cpu time      0.0082: real time      0.0089
    CHARGE:  cpu time     26.3188: real time     26.3449
    MIXING:  cpu time      0.0449: real time      0.0451
    --------------------------------------------
      LOOP:  cpu time    278.4443: real time    278.6138

 eigenvalue-minimisations  :  2560
 total energy-change (2. order) :-0.5997330E+03  (-0.7129101E+00)
 number of electron     243.9999999 magnetization 
 augmentation part      -13.2642591 magnetization 

 Broyden mixing:
  rms(total) = 0.88568E+00    rms(broyden)= 0.21684E+02
  rms(prec ) = 0.91378E+00
  weight for this iteration     100.00
  WARNING: grid for Broyden might be to small

 Free energy of the ion-electron system (eV)
  ---------------------------------------------------
  alpha Z        PSCENC =        23.40946968
  Ewald energy   TEWEN  =     26588.42245559
  -Hartree energ DENC   =    -31792.15574066
  -exchange      EXHF   =         0.00000000
  -V(xc)+E(xc)   XCENC  =      -262.01878053
  PAW double counting   =     19999.78943842   -19421.12886584
  entropy T*S    EENTRO =        -0.13900221
  eigenvalues    EBANDS =     -1863.64877204
  atomic energy  EATOM  =      6127.73682009
  Solvation  Ediel_sol  =         0.00000000
  ---------------------------------------------------
  free energy    TOTEN  =      -599.73297749 eV

  energy without entropy =     -599.59397528  energy(sigma->0) =     -599.66347639


--------------------------------------------------------------------------------------------------------




--------------------------------------- Iteration      1(   2)  ---------------------------------------


    POTLOK:  cpu time      1.8571: real time      1.8820
    SETDIJ:  cpu time      1.3135: real time      1.3142
    EDDIAG:  cpu time     46.2400: real time     46.2665
     EDDAV:  cpu time    203.6673: real time    203.7842
       DOS:  cpu time      0.0067: real time      0.0067
    CHARGE:  cpu time     26.2830: real time     26.3082
    MIXING:  cpu time      0.0383: real time      0.0386
    --------------------------------------------
      LOOP:  cpu time    279.4058: real time    279.6004

 eigenvalue-minimisations  :  2560
 total energy-change (2. order) : 0.4360992E+02  (-0.6755763E+00)
 number of electron     243.9999999 magnetization 
 augmentation part      -13.2361368 magnetization 

 Broyden mixing:
  rms(total) = 0.60031E+00    rms(broyden)= 0.12442E+02
  rms(prec ) = 0.61427E+00
  weight for this iteration     100.00
  WARNING: grid for Broyden might be to small

 eigenvalues of (default mixing * dielectric matrix)
  average eigenvalue GAMMA=   0.6355
  0.6355

 Free energy of the ion-electron system (eV)
  ---------------------------------------------------
  alpha Z        PSCENC =        23.40946968
  Ewald energy   TEWEN  =     26588.42245559
  -Hartree energ DENC   =    -31783.22743588
  -exchange      EXHF   =         0.00000000
  -V(xc)+E(xc)   XCENC  =      -256.48255632
  PAW double counting   =     23765.89272618   -23187.08092038
  entropy T*S    EENTRO =        -0.13295834
  eigenvalues    EBANDS =     -1834.66066026
  atomic energy  EATOM  =      6127.73682009
  Solvation  Ediel_sol  =         0.00000000
  ---------------------------------------------------
  free energy    TOTEN  =      -556.12305964 eV

  energy without entropy =     -555.99010130  energy(sigma->0) =     -556.05658047


--------------------------------------------------------------------------------------------------------




--------------------------------------- Iteration      1(   3)  ---------------------------------------


    POTLOK:  cpu time      1.8546: real time      1.8834
    SETDIJ:  cpu time      1.3143: real time      1.3151
    EDDIAG:  cpu time     46.2763: real time     46.3037
     EDDAV:  cpu time    203.6371: real time    203.7545
       DOS:  cpu time      0.0033: real time      0.0033
    CHARGE:  cpu time     26.2403: real time     26.2652
    MIXING:  cpu time      0.0357: real time      0.0358
    --------------------------------------------
      LOOP:  cpu time    279.3616: real time    279.5610

 eigenvalue-minimisations  :  2560
 total energy-change (2. order) :-0.1792197E+01  (-0.5196885E+00)
 number of electron     243.9999999 magnetization 
 augmentation part      -13.1932586 magnetization 

 Broyden mixing:
  rms(total) = 0.25966E+00    rms(broyden)= 0.17671E+02
  rms(prec ) = 0.31715E+00
  weight for this iteration     100.00
  WARNING: grid for Broyden might be to small

 eigenvalues of (default mixing * dielectric matrix)
  average eigenvalue GAMMA=   0.7505
  0.8746  0.6263

 Free energy of the ion-electron system (eV)
  ---------------------------------------------------
  alpha Z        PSCENC =        23.40946968
  Ewald energy   TEWEN  =     26588.42245559
  -Hartree energ DENC   =    -31783.23041196
  -exchange      EXHF   =         0.00000000
  -V(xc)+E(xc)   XCENC  =      -257.84527602
  PAW double counting   =     28149.65884394   -27570.95687219
  entropy T*S    EENTRO =        -0.13470382
  eigenvalues    EBANDS =     -1834.97558153
  atomic energy  EATOM  =      6127.73682009
  Solvation  Ediel_sol  =         0.00000000
  ---------------------------------------------------
  free energy    TOTEN  =      -557.91525624 eV

  energy without entropy =     -557.78055242  energy(sigma->0) =     -557.84790433


--------------------------------------------------------------------------------------------------------




--------------------------------------- Iteration      1(   4)  ---------------------------------------


    POTLOK:  cpu time      1.8551: real time      1.8813
    SETDIJ:  cpu time      1.3165: real time      1.3172
    EDDIAG:  cpu time     46.2800: real time     46.3056
     EDDAV:  cpu time    209.4362: real time    209.5507
       DOS:  cpu time      0.0033: real time      0.0033
    CHARGE:  cpu time     26.2925: real time     26.3183
    MIXING:  cpu time      0.0368: real time      0.0368
    --------------------------------------------
      LOOP:  cpu time    285.2204: real time    285.4132

 eigenvalue-minimisations  :  2688
 total energy-change (2. order) : 0.2635122E+00  (-0.5822276E-01)
 number of electron     243.9999999 magnetization 
 augmentation part      -13.1896911 magnetization 

 Broyden mixing:
  rms(total) = 0.46488E-01    rms(broyden)= 0.19330E+01
  rms(prec ) = 0.61724E-01
  weight for this iteration     100.00
  WARNING: grid for Broyden might be to small

 eigenvalues of (default mixing * dielectric matrix)
  average eigenvalue GAMMA=   1.0892
  1.9615  0.6920  0.6141

 Free energy of the ion-electron system (eV)
  ---------------------------------------------------
  alpha Z        PSCENC =        23.40946968
  Ewald energy   TEWEN  =     26588.42245559
  -Hartree energ DENC   =    -31783.87632539
  -exchange      EXHF   =         0.00000000
  -V(xc)+E(xc)   XCENC  =      -258.13081004
  PAW double counting   =     31711.55202398   -31132.90467711
  entropy T*S    EENTRO =        -0.13858992
  eigenvalues    EBANDS =     -1833.72211094
  atomic energy  EATOM  =      6127.73682009
  Solvation  Ediel_sol  =         0.00000000
  ---------------------------------------------------
  free energy    TOTEN  =      -557.65174406 eV

  energy without entropy =     -557.51315414  energy(sigma->0) =     -557.58244910


--------------------------------------------------------------------------------------------------------




--------------------------------------- Iteration      1(   5)  ---------------------------------------


    POTLOK:  cpu time      1.8512: real time      1.8808
    SETDIJ:  cpu time      1.3148: real time      1.3155
    EDDIAG:  cpu time     46.2767: real time     46.3042
     EDDAV:  cpu time    223.8305: real time    223.9610
       DOS:  cpu time      0.0039: real time      0.0039
    CHARGE:  cpu time     26.3098: real time     26.3340
    MIXING:  cpu time      0.0366: real time      0.0366
    --------------------------------------------
      LOOP:  cpu time    299.6234: real time    299.8359

 eigenvalue-minimisations  :  3016
 total energy-change (2. order) :-0.2371418E-01  (-0.6567655E-02)
 number of electron     243.9999999 magnetization 
 augmentation part      -13.1904942 magnetization 

 Broyden mixing:
  rms(total) = 0.35168E-01    rms(broyden)= 0.35029E+00
  rms(prec ) = 0.45835E-01
  weight for this iteration     100.00
  WARNING: grid for Broyden might be to small

 eigenvalues of (default mixing * dielectric matrix)
  average eigenvalue GAMMA=   1.1282
  2.5095  0.8073  0.6262  0.5697

 Free energy of the ion-electron system (eV)
  ---------------------------------------------------
  alpha Z        PSCENC =        23.40946968
  Ewald energy   TEWEN  =     26588.42245559
  -Hartree energ DENC   =    -31783.78424486
  -exchange      EXHF   =         0.00000000
  -V(xc)+E(xc)   XCENC  =      -258.77492679
  PAW double counting   =     31446.10941514   -30867.44686269
  entropy T*S    EENTRO =        -0.13456305
  eigenvalues    EBANDS =     -1833.21302135
  atomic energy  EATOM  =      6127.73682009
  Solvation  Ediel_sol  =         0.00000000
  ---------------------------------------------------
  free energy    TOTEN  =      -557.67545824 eV

  energy without entropy =     -557.54089519  energy(sigma->0) =     -557.60817671


--------------------------------------------------------------------------------------------------------




--------------------------------------- Iteration      1(   6)  ---------------------------------------


    POTLOK:  cpu time      1.8521: real time      1.8799
    SETDIJ:  cpu time      1.3208: real time      1.3218
    EDDIAG:  cpu time     46.3008: real time     46.3277
     EDDAV:  cpu time    213.5579: real time    213.6796
       DOS:  cpu time      0.0035: real time      0.0035
    CHARGE:  cpu time     26.3099: real time     26.3334
    MIXING:  cpu time      0.0371: real time      0.0371
    --------------------------------------------
      LOOP:  cpu time    289.3820: real time    289.5830

 eigenvalue-minimisations  :  2784
 total energy-change (2. order) :-0.6914966E-03  (-0.2091750E-02)
 number of electron     243.9999999 magnetization 
 augmentation part      -13.1910780 magnetization 

 Broyden mixing:
  rms(total) = 0.20601E-01    rms(broyden)= 0.23107E+00
  rms(prec ) = 0.22623E-01
  weight for this iteration     100.00
  WARNING: grid for Broyden might be to small

 eigenvalues of (default mixing * dielectric matrix)
  average eigenvalue GAMMA=   1.0618
  2.5837  0.9234  0.6665  0.6230  0.5125

 Free energy of the ion-electron system (eV)
  ---------------------------------------------------
  alpha Z        PSCENC =        23.40946968
  Ewald energy   TEWEN  =     26588.42245559
  -Hartree energ DENC   =    -31783.76070126
  -exchange      EXHF   =         0.00000000
  -V(xc)+E(xc)   XCENC  =      -258.91101406
  PAW double counting   =     31370.94467896   -30792.27572619
  entropy T*S    EENTRO =        -0.13603316
  eigenvalues    EBANDS =     -1833.10609939
  atomic energy  EATOM  =      6127.73682009
  Solvation  Ediel_sol  =         0.00000000
  ---------------------------------------------------
  free energy    TOTEN  =      -557.67614974 eV

  energy without entropy =     -557.54011657  energy(sigma->0) =     -557.60813315


--------------------------------------------------------------------------------------------------------




--------------------------------------- Iteration      1(   7)  ---------------------------------------


    POTLOK:  cpu time      1.8494: real time      1.8784
    SETDIJ:  cpu time      1.3754: real time      1.3762
    EDDIAG:  cpu time     46.1892: real time     46.2168
     EDDAV:  cpu time    210.5379: real time    210.6591
       DOS:  cpu time      0.0030: real time      0.0030
    CHARGE:  cpu time     26.2934: real time     26.3191
    MIXING:  cpu time      0.0376: real time      0.0376
    --------------------------------------------
      LOOP:  cpu time    286.2859: real time    286.4903

 eigenvalue-minimisations  :  2720
 total energy-change (2. order) :-0.5874192E-03  (-0.8552540E-03)
 number of electron     243.9999999 magnetization 
 augmentation part      -13.1892985 magnetization 

 Broyden mixing:
  rms(total) = 0.10821E-01    rms(broyden)= 0.95785E-01
  rms(prec ) = 0.12445E-01
  weight for this iteration     100.00
  WARNING: grid for Broyden might be to small

 eigenvalues of (default mixing * dielectric matrix)
  average eigenvalue GAMMA=   1.0237
  2.6002  1.1498  0.7317  0.6209  0.5197  0.5197

 Free energy of the ion-electron system (eV)
  ---------------------------------------------------
  alpha Z        PSCENC =        23.40946968
  Ewald energy   TEWEN  =     26588.42245559
  -Hartree energ DENC   =    -31783.61214366
  -exchange      EXHF   =         0.00000000
  -V(xc)+E(xc)   XCENC  =      -258.81851780
  PAW double counting   =     31360.88383540   -30782.20928261
  entropy T*S    EENTRO =        -0.13578402
  eigenvalues    EBANDS =     -1833.35358983
  atomic energy  EATOM  =      6127.73682009
  Solvation  Ediel_sol  =         0.00000000
  ---------------------------------------------------
  free energy    TOTEN  =      -557.67673715 eV

  energy without entropy =     -557.54095314  energy(sigma->0) =     -557.60884515


--------------------------------------------------------------------------------------------------------




--------------------------------------- Iteration      1(   8)  ---------------------------------------


    POTLOK:  cpu time      1.8538: real time      1.8829
    SETDIJ:  cpu time      1.3183: real time      1.3193
    EDDIAG:  cpu time     46.2419: real time     46.2689
     EDDAV:  cpu time    213.9447: real time    214.0672
       DOS:  cpu time      0.0037: real time      0.0037
    CHARGE:  cpu time     26.2476: real time     26.2711
    MIXING:  cpu time      0.0387: real time      0.0387
    --------------------------------------------
      LOOP:  cpu time    289.6487: real time    289.8518

 eigenvalue-minimisations  :  2792
 total energy-change (2. order) :-0.5933194E-03  (-0.2578277E-03)
 number of electron     243.9999999 magnetization 
 augmentation part      -13.1884772 magnetization 

 Broyden mixing:
  rms(total) = 0.39686E-02    rms(broyden)= 0.58762E-01
  rms(prec ) = 0.52702E-02
  weight for this iteration     100.00
  WARNING: grid for Broyden might be to small

 eigenvalues of (default mixing * dielectric matrix)
  average eigenvalue GAMMA=   1.0769
  2.5997  1.7085  0.9245  0.6768  0.6310  0.5388  0.4592

 Free energy of the ion-electron system (eV)
  ---------------------------------------------------
  alpha Z        PSCENC =        23.40946968
  Ewald energy   TEWEN  =     26588.42245559
  -Hartree energ DENC   =    -31783.35499253
  -exchange      EXHF   =         0.00000000
  -V(xc)+E(xc)   XCENC  =      -258.73752951
  PAW double counting   =     31378.89057291   -30800.21077662
  entropy T*S    EENTRO =        -0.13597396
  eigenvalues    EBANDS =     -1833.69737613
  atomic energy  EATOM  =      6127.73682009
  Solvation  Ediel_sol  =         0.00000000
  ---------------------------------------------------
  free energy    TOTEN  =      -557.67733047 eV

  energy without entropy =     -557.54135652  energy(sigma->0) =     -557.60934350


--------------------------------------------------------------------------------------------------------




--------------------------------------- Iteration      1(   9)  ---------------------------------------


    POTLOK:  cpu time      1.8567: real time      1.8817
    SETDIJ:  cpu time      1.3199: real time      1.3207
    EDDIAG:  cpu time     46.1814: real time     46.2048
     EDDAV:  cpu time    210.3935: real time    210.5194
       DOS:  cpu time      0.0025: real time      0.0025
    CHARGE:  cpu time     26.2904: real time     26.3146
    MIXING:  cpu time      0.0391: real time      0.0391
    --------------------------------------------
      LOOP:  cpu time    286.0838: real time    286.2830

 eigenvalue-minimisations  :  2720
 total energy-change (2. order) :-0.1670168E-04  (-0.6471976E-04)
 number of electron     243.9999999 magnetization 
 augmentation part      -13.1887002 magnetization 

 Broyden mixing:
  rms(total) = 0.20127E-02    rms(broyden)= 0.32722E-01
  rms(prec ) = 0.24713E-02
  weight for this iteration     100.00
  WARNING: grid for Broyden might be to small

 eigenvalues of (default mixing * dielectric matrix)
  average eigenvalue GAMMA=   1.2226
  3.1010  2.5592  1.0572  0.8003  0.6390  0.6390  0.4529  0.5324

 Free energy of the ion-electron system (eV)
  ---------------------------------------------------
  alpha Z        PSCENC =        23.40946968
  Ewald energy   TEWEN  =     26588.42245559
  -Hartree energ DENC   =    -31783.15182569
  -exchange      EXHF   =         0.00000000
  -V(xc)+E(xc)   XCENC  =      -258.75378668
  PAW double counting   =     31390.28641512   -30811.60484541
  entropy T*S    EENTRO =        -0.13586913
  eigenvalues    EBANDS =     -1833.88618075
  atomic energy  EATOM  =      6127.73682009
  Solvation  Ediel_sol  =         0.00000000
  ---------------------------------------------------
  free energy    TOTEN  =      -557.67734718 eV

  energy without entropy =     -557.54147804  energy(sigma->0) =     -557.60941261


--------------------------------------------------------------------------------------------------------




--------------------------------------- Iteration      1(  10)  ---------------------------------------


    POTLOK:  cpu time      1.8797: real time      1.8864
    SETDIJ:  cpu time      1.3178: real time      1.3187
    EDDIAG:  cpu time     46.2342: real time     46.2601
     EDDAV:  cpu time    211.7853: real time    211.9069
       DOS:  cpu time      0.0032: real time      0.0032
    CHARGE:  cpu time     26.2488: real time     26.2732
    MIXING:  cpu time      0.0397: real time      0.0397
    --------------------------------------------
      LOOP:  cpu time    287.5086: real time    287.6880

 eigenvalue-minimisations  :  2752
 total energy-change (2. order) :-0.6274922E-04  (-0.2527590E-04)
 number of electron     243.9999999 magnetization 
 augmentation part      -13.1888256 magnetization 

 Broyden mixing:
  rms(total) = 0.12416E-02    rms(broyden)= 0.26961E-01
  rms(prec ) = 0.15848E-02
  weight for this iteration     100.00
  WARNING: grid for Broyden might be to small

 eigenvalues of (default mixing * dielectric matrix)
  average eigenvalue GAMMA=   1.2821
  3.9290  2.5778  1.1786  0.9389  0.7307  0.6283  0.5978  0.4552  0.5029

 Free energy of the ion-electron system (eV)
  ---------------------------------------------------
  alpha Z        PSCENC =        23.40946968
  Ewald energy   TEWEN  =     26588.42245559
  -Hartree energ DENC   =    -31782.96456519
  -exchange      EXHF   =         0.00000000
  -V(xc)+E(xc)   XCENC  =      -258.76735454
  PAW double counting   =     31387.63813447   -30808.95552002
  entropy T*S    EENTRO =        -0.13592065
  eigenvalues    EBANDS =     -1834.06092936
  atomic energy  EATOM  =      6127.73682009
  Solvation  Ediel_sol  =         0.00000000
  ---------------------------------------------------
  free energy    TOTEN  =      -557.67740993 eV

  energy without entropy =     -557.54148927  energy(sigma->0) =     -557.60944960


--------------------------------------------------------------------------------------------------------




--------------------------------------- Iteration      1(  11)  ---------------------------------------


    POTLOK:  cpu time      1.8520: real time      1.8803
    SETDIJ:  cpu time      1.3241: real time      1.3249
    EDDIAG:  cpu time     46.2245: real time     46.2503
     EDDAV:  cpu time    210.4186: real time    210.5442
       DOS:  cpu time      0.0038: real time      0.0038
    CHARGE:  cpu time     26.2967: real time     26.3221
    MIXING:  cpu time      0.0403: real time      0.0403
    --------------------------------------------
      LOOP:  cpu time    286.1600: real time    286.3660

 eigenvalue-minimisations  :  2720
 total energy-change (2. order) :-0.1044584E-03  (-0.2354255E-04)
 number of electron     243.9999999 magnetization 
 augmentation part      -13.1889008 magnetization 

 Broyden mixing:
  rms(total) = 0.64198E-03    rms(broyden)= 0.21571E-01
  rms(prec ) = 0.97728E-03
  weight for this iteration     100.00
  WARNING: grid for Broyden might be to small

 eigenvalues of (default mixing * dielectric matrix)
  average eigenvalue GAMMA=   1.5075
  5.7979  2.6091  1.9400  1.0250  0.8591  0.7007  0.6297  0.5698  0.4530  0.4910

 Free energy of the ion-electron system (eV)
  ---------------------------------------------------
  alpha Z        PSCENC =        23.40946968
  Ewald energy   TEWEN  =     26588.42245559
  -Hartree energ DENC   =    -31782.71883371
  -exchange      EXHF   =         0.00000000
  -V(xc)+E(xc)   XCENC  =      -258.77324688
  PAW double counting   =     31385.62550764   -30806.94197732
  entropy T*S    EENTRO =        -0.13591234
  eigenvalues    EBANDS =     -1834.30179713
  atomic energy  EATOM  =      6127.73682009
  Solvation  Ediel_sol  =         0.00000000
  ---------------------------------------------------
  free energy    TOTEN  =      -557.67751438 eV

  energy without entropy =     -557.54160204  energy(sigma->0) =     -557.60955821


--------------------------------------------------------------------------------------------------------




--------------------------------------- Iteration      1(  12)  ---------------------------------------


    POTLOK:  cpu time      1.8584: real time      1.8854
    SETDIJ:  cpu time      1.3257: real time      1.3266
    EDDIAG:  cpu time     46.2198: real time     46.2427
     EDDAV:  cpu time    209.1253: real time    209.2471
       DOS:  cpu time      0.0031: real time      0.0031
    CHARGE:  cpu time     26.2735: real time     26.2998
    MIXING:  cpu time      0.0411: real time      0.0411
    --------------------------------------------
      LOOP:  cpu time    284.8469: real time    285.0458

 eigenvalue-minimisations  :  2688
 total energy-change (2. order) :-0.1135817E-03  (-0.1881424E-04)
 number of electron     243.9999999 magnetization 
 augmentation part      -13.1889922 magnetization 

 Broyden mixing:
  rms(total) = 0.38797E-03    rms(broyden)= 0.17673E-01
  rms(prec ) = 0.65378E-03
  weight for this iteration     100.00
  WARNING: grid for Broyden might be to small

 eigenvalues of (default mixing * dielectric matrix)
  average eigenvalue GAMMA=   1.6450
  7.5335  2.6144  2.3398  1.0183  1.0183  0.7309  0.6861  0.4520  0.6205  0.5799
  0.5006

 Free energy of the ion-electron system (eV)
  ---------------------------------------------------
  alpha Z        PSCENC =        23.40946968
  Ewald energy   TEWEN  =     26588.42245559
  -Hartree energ DENC   =    -31782.51269594
  -exchange      EXHF   =         0.00000000
  -V(xc)+E(xc)   XCENC  =      -258.77972359
  PAW double counting   =     31384.97662436   -30806.29280576
  entropy T*S    EENTRO =        -0.13592784
  eigenvalues    EBANDS =     -1834.50184456
  atomic energy  EATOM  =      6127.73682009
  Solvation  Ediel_sol  =         0.00000000
  ---------------------------------------------------
  free energy    TOTEN  =      -557.67762797 eV

  energy without entropy =     -557.54170012  energy(sigma->0) =     -557.60966404


--------------------------------------------------------------------------------------------------------




--------------------------------------- Iteration      1(  13)  ---------------------------------------


    POTLOK:  cpu time      1.8651: real time      1.8878
    SETDIJ:  cpu time      1.3193: real time      1.3203
    EDDIAG:  cpu time     46.2908: real time     46.3156
     EDDAV:  cpu time    209.0826: real time    209.2034
       DOS:  cpu time      0.0025: real time      0.0025
    CHARGE:  cpu time     26.2562: real time     26.2817
    MIXING:  cpu time      0.0424: real time      0.0424
    --------------------------------------------
      LOOP:  cpu time    284.8589: real time    285.0535

 eigenvalue-minimisations  :  2688
 total energy-change (2. order) :-0.1314882E-03  (-0.1866264E-04)
 number of electron     243.9999999 magnetization 
 augmentation part      -13.1890307 magnetization 

 Broyden mixing:
  rms(total) = 0.25153E-03    rms(broyden)= 0.14516E-01
  rms(prec ) = 0.47094E-03
  weight for this iteration     100.00
  WARNING: grid for Broyden might be to small

 eigenvalues of (default mixing * dielectric matrix)
  average eigenvalue GAMMA=   1.7185
  8.9631  2.6419  2.5929  1.1533  0.9896  0.8726  0.6988  0.4493  0.6293  0.5912
  0.5199  0.5199

 Free energy of the ion-electron system (eV)
  ---------------------------------------------------
  alpha Z        PSCENC =        23.40946968
  Ewald energy   TEWEN  =     26588.42245559
  -Hartree energ DENC   =    -31782.33923018
  -exchange      EXHF   =         0.00000000
  -V(xc)+E(xc)   XCENC  =      -258.78466259
  PAW double counting   =     31385.28616672   -30806.60253212
  entropy T*S    EENTRO =        -0.13592238
  eigenvalues    EBANDS =     -1834.67032426
  atomic energy  EATOM  =      6127.73682009
  Solvation  Ediel_sol  =         0.00000000
  ---------------------------------------------------
  free energy    TOTEN  =      -557.67775945 eV

  energy without entropy =     -557.54183707  energy(sigma->0) =     -557.60979826


--------------------------------------------------------------------------------------------------------




--------------------------------------- Iteration      1(  14)  ---------------------------------------


    POTLOK:  cpu time      1.8791: real time      1.8811
    SETDIJ:  cpu time      1.3172: real time      1.3180
    EDDIAG:  cpu time     46.2296: real time     46.2550
     EDDAV:  cpu time    209.1498: real time    209.2749
       DOS:  cpu time      0.0092: real time      0.0096
    CHARGE:  cpu time     26.2406: real time     26.2896
    MIXING:  cpu time      0.0560: real time      0.0572
    --------------------------------------------
      LOOP:  cpu time    284.8815: real time    285.0854

 eigenvalue-minimisations  :  2688
 total energy-change (2. order) :-0.1452189E-03  (-0.2999850E-04)
 number of electron     243.9999999 magnetization 
 augmentation part      -13.1890880 magnetization 

 Broyden mixing:
  rms(total) = 0.16930E-03    rms(broyden)= 0.10444E-01
  rms(prec ) = 0.30906E-03
  weight for this iteration     100.00
  WARNING: grid for Broyden might be to small

 eigenvalues of (default mixing * dielectric matrix)
  average eigenvalue GAMMA=   1.7664
  9.6603  2.7427  2.7427  1.5205  1.1583  0.9143  0.7774  0.7097  0.6213  0.6213
  0.4491  0.5382  0.5068

 Free energy of the ion-electron system (eV)
  ---------------------------------------------------
  alpha Z        PSCENC =        23.40946968
  Ewald energy   TEWEN  =     26588.42245559
  -Hartree energ DENC   =    -31782.12595340
  -exchange      EXHF   =         0.00000000
  -V(xc)+E(xc)   XCENC  =      -258.78955217
  PAW double counting   =     31385.47356567   -30806.79028454
  entropy T*S    EENTRO =        -0.13592755
  eigenvalues    EBANDS =     -1834.87849805
  atomic energy  EATOM  =      6127.73682009
  Solvation  Ediel_sol  =         0.00000000
  ---------------------------------------------------
  free energy    TOTEN  =      -557.67790467 eV

  energy without entropy =     -557.54197713  energy(sigma->0) =     -557.60994090


--------------------------------------------------------------------------------------------------------




--------------------------------------- Iteration      1(  15)  ---------------------------------------


    POTLOK:  cpu time      1.8666: real time      1.8944
    SETDIJ:  cpu time      1.3257: real time      1.3270
    EDDIAG:  cpu time     46.1883: real time     46.2143
     EDDAV:  cpu time    209.1933: real time    209.3102
       DOS:  cpu time      0.0033: real time      0.0033
    CHARGE:  cpu time     26.2559: real time     26.2812
    MIXING:  cpu time      0.0431: real time      0.0431
    --------------------------------------------
      LOOP:  cpu time    284.8761: real time    285.0734

 eigenvalue-minimisations  :  2688
 total energy-change (2. order) :-0.1133748E-03  (-0.2082571E-04)
 number of electron     243.9999999 magnetization 
 augmentation part      -13.1891175 magnetization 

 Broyden mixing:
  rms(total) = 0.12323E-03    rms(broyden)= 0.72458E-02
  rms(prec ) = 0.20720E-03
  weight for this iteration     100.00
  WARNING: grid for Broyden might be to small

 eigenvalues of (default mixing * dielectric matrix)
  average eigenvalue GAMMA=   1.7560
  9.8910  2.9853  2.7055  1.8699  1.1417  0.9541  0.9151  0.4495  0.5031  0.6929
  0.6929  0.5516  0.6153  0.6153

 Free energy of the ion-electron system (eV)
  ---------------------------------------------------
  alpha Z        PSCENC =        23.40946968
  Ewald energy   TEWEN  =     26588.42245559
  -Hartree energ DENC   =    -31781.97893535
  -exchange      EXHF   =         0.00000000
  -V(xc)+E(xc)   XCENC  =      -258.79171918
  PAW double counting   =     31385.53521269   -30806.85217271
  entropy T*S    EENTRO =        -0.13593124
  eigenvalues    EBANDS =     -1835.02321762
  atomic energy  EATOM  =      6127.73682009
  Solvation  Ediel_sol  =         0.00000000
  ---------------------------------------------------
  free energy    TOTEN  =      -557.67801805 eV

  energy without entropy =     -557.54208681  energy(sigma->0) =     -557.61005243


--------------------------------------------------------------------------------------------------------




--------------------------------------- Iteration      1(  16)  ---------------------------------------


    POTLOK:  cpu time      1.8536: real time      1.8844
    SETDIJ:  cpu time      1.3240: real time      1.3251
    EDDIAG:  cpu time     46.2013: real time     46.2262
     EDDAV:  cpu time    209.0192: real time    209.1329
       DOS:  cpu time      0.0032: real time      0.0032
    CHARGE:  cpu time     26.2093: real time     26.2338
    MIXING:  cpu time      0.0441: real time      0.0441
    --------------------------------------------
      LOOP:  cpu time    284.6547: real time    284.8496

 eigenvalue-minimisations  :  2688
 total energy-change (2. order) :-0.5759495E-04  (-0.1329675E-04)
 number of electron     243.9999999 magnetization 
 augmentation part      -13.1891403 magnetization 

 Broyden mixing:
  rms(total) = 0.82081E-04    rms(broyden)= 0.47353E-02
  rms(prec ) = 0.13022E-03
  weight for this iteration     100.00
  WARNING: grid for Broyden might be to small

 eigenvalues of (default mixing * dielectric matrix)
  average eigenvalue GAMMA=   1.7460
  9.9572  3.1665  2.6793  2.1285  1.3287  1.0930  0.8901  0.8901  0.7039  0.4496
  0.6474  0.5061  0.6156  0.5673  0.5673

 Free energy of the ion-electron system (eV)
  ---------------------------------------------------
  alpha Z        PSCENC =        23.40946968
  Ewald energy   TEWEN  =     26588.42245559
  -Hartree energ DENC   =    -31781.87850818
  -exchange      EXHF   =         0.00000000
  -V(xc)+E(xc)   XCENC  =      -258.79294314
  PAW double counting   =     31385.61773806   -30806.93480251
  entropy T*S    EENTRO =        -0.13593261
  eigenvalues    EBANDS =     -1835.12237262
  atomic energy  EATOM  =      6127.73682009
  Solvation  Ediel_sol  =         0.00000000
  ---------------------------------------------------
  free energy    TOTEN  =      -557.67807564 eV

  energy without entropy =     -557.54214303  energy(sigma->0) =     -557.61010934


--------------------------------------------------------------------------------------------------------




--------------------------------------- Iteration      1(  17)  ---------------------------------------


    POTLOK:  cpu time      1.8565: real time      1.8883
    SETDIJ:  cpu time      1.3117: real time      1.3125
    EDDIAG:  cpu time     46.1221: real time     46.1487
     EDDAV:  cpu time    208.2049: real time    208.3210
       DOS:  cpu time      0.0032: real time      0.0032
    CHARGE:  cpu time     26.2741: real time     26.2985
    MIXING:  cpu time      0.0448: real time      0.0448
    --------------------------------------------
      LOOP:  cpu time    283.8173: real time    284.0169

 eigenvalue-minimisations  :  2672
 total energy-change (2. order) :-0.3190619E-04  (-0.6804853E-05)
 number of electron     243.9999999 magnetization 
 augmentation part      -13.1891506 magnetization 

 Broyden mixing:
  rms(total) = 0.52715E-04    rms(broyden)= 0.30018E-02
  rms(prec ) = 0.80902E-04
  weight for this iteration     100.00
  WARNING: grid for Broyden might be to small

 eigenvalues of (default mixing * dielectric matrix)
  average eigenvalue GAMMA=   1.7402
  9.9876  3.3945  2.6512  2.4162  1.5818  1.1516  0.9443  0.9443  0.7737  0.4496
  0.6932  0.6251  0.6251  0.5086  0.5483  0.5483

 Free energy of the ion-electron system (eV)
  ---------------------------------------------------
  alpha Z        PSCENC =        23.40946968
  Ewald energy   TEWEN  =     26588.42245559
  -Hartree energ DENC   =    -31781.82079126
  -exchange      EXHF   =         0.00000000
  -V(xc)+E(xc)   XCENC  =      -258.79315480
  PAW double counting   =     31385.59156184   -30806.90863433
  entropy T*S    EENTRO =        -0.13593318
  eigenvalues    EBANDS =     -1835.17990117
  atomic energy  EATOM  =      6127.73682009
  Solvation  Ediel_sol  =         0.00000000
  ---------------------------------------------------
  free energy    TOTEN  =      -557.67810755 eV

  energy without entropy =     -557.54217436  energy(sigma->0) =     -557.61014096


--------------------------------------------------------------------------------------------------------




--------------------------------------- Iteration      1(  18)  ---------------------------------------


    POTLOK:  cpu time      1.8605: real time      1.8862
    SETDIJ:  cpu time      1.3184: real time      1.3194
    EDDIAG:  cpu time     46.2112: real time     46.2386
     EDDAV:  cpu time    206.2518: real time    206.3641
[...]
   -.734E+01 0.118E+02 0.233E+02   0.822E+01 -.120E+02 -.258E+02   -.881E+00 0.125E+00 0.266E+01   0.463E-05 -.118E-04 0.260E-05
   0.319E+01 0.103E+02 -.670E+02   -.293E+01 -.978E+01 0.671E+02   0.843E-01 0.284E+00 -.207E+00   -.433E-06 0.157E-05 0.564E-05
   -.472E+01 -.762E+01 -.578E+02   0.484E+01 0.764E+01 0.576E+02   -.148E+00 -.276E+00 -.379E+00   -.354E-05 0.123E-04 0.166E-04
   -.933E+01 -.106E+02 -.238E+02   0.120E+02 0.124E+02 0.223E+02   -.220E+01 -.131E+01 0.141E+01   -.113E-04 -.628E-05 0.394E-05
   -.321E+01 0.170E+02 0.438E+01   0.335E+01 -.174E+02 -.388E+01   -.789E+00 0.139E+01 -.151E+01   -.256E-05 -.578E-05 0.607E-05
   -.126E+01 -.587E+01 0.385E+02   0.164E+01 0.738E+01 -.404E+02   -.547E+00 -.206E+01 0.185E+01   -.688E-06 -.563E-06 -.599E-05
   -.858E+00 -.128E+02 -.252E+02   0.149E+01 0.135E+02 0.252E+02   -.374E+00 -.157E+01 -.860E+00   -.418E-04 -.131E-04 -.248E-04
   -.260E+02 -.259E+02 -.244E+03   0.247E+02 0.245E+02 0.242E+03   0.160E+01 0.743E+00 0.220E+01   0.146E-04 0.351E-04 0.127E-04
   -.462E+01 -.400E+01 0.233E+03   0.483E+01 0.489E+01 -.234E+03   -.219E+00 -.768E+00 0.347E+00   0.224E-05 0.406E-04 -.413E-04
   -.977E+01 0.111E+01 0.239E+03   0.104E+02 0.544E+00 -.239E+03   -.623E+00 -.140E+01 0.250E+00   -.516E-05 -.148E-04 -.496E-04
   0.168E+02 -.605E+01 -.216E+03   -.172E+02 0.574E+01 0.220E+03   0.547E+00 0.498E+00 -.380E+01   0.125E-06 -.117E-04 0.515E-04
   -.224E+02 -.186E+02 -.162E+03   0.231E+02 0.176E+02 0.161E+03   0.460E+00 0.917E+00 0.524E+00   -.914E-05 0.703E-05 0.425E-04
   0.361E+01 -.181E+01 0.294E+02   -.344E+01 0.104E+01 -.313E+02   -.175E+01 0.220E+00 0.204E+01   0.131E-05 0.564E-04 0.146E-04
   -.197E+02 0.143E+02 -.215E+03   0.176E+02 -.153E+02 0.211E+03   0.192E+01 0.162E+01 0.302E+01   -.422E-04 -.849E-05 0.705E-04
   -.322E+02 -.421E+02 -.169E+03   0.327E+02 0.427E+02 0.167E+03   -.129E+01 0.485E+00 0.241E+01   0.106E-04 -.332E-05 0.187E-04
   -.128E+02 -.374E+02 0.921E+02   0.120E+02 0.365E+02 -.905E+02   0.331E+00 0.158E+01 -.933E+00   0.311E-04 -.544E-04 -.716E-04
   0.427E+01 -.193E+02 0.207E+03   -.506E+01 0.194E+02 -.206E+03   0.337E+00 0.943E+00 -.141E+01   -.204E-04 -.412E-04 -.317E-04
   0.731E+01 0.215E+02 0.228E+03   -.709E+01 -.196E+02 -.225E+03   -.119E+01 -.284E+01 -.378E+01   0.428E-04 0.104E-04 -.370E-04
   0.185E+02 -.334E+02 -.208E+03   -.171E+02 0.327E+02 0.204E+03   -.103E+01 -.440E-01 0.491E+01   -.287E-04 -.220E-05 0.403E-04
   -.123E+02 -.125E+02 0.119E+03   0.104E+02 0.125E+02 -.120E+03   0.316E+01 -.813E+00 0.351E+00   -.193E-04 0.192E-04 -.109E-03
   0.244E+01 0.679E+01 -.233E+03   -.263E+01 -.534E+01 0.229E+03   0.176E+00 -.103E+01 0.265E+01   -.157E-04 -.120E-04 0.294E-04
   0.197E+02 0.801E+01 -.809E+02   -.179E+02 -.964E+01 0.810E+02   -.327E+01 0.137E+01 0.613E-01   -.159E-05 -.213E-04 0.512E-04
   0.675E+00 -.190E+02 -.528E+02   0.297E+00 0.204E+02 0.507E+02   -.596E+00 -.205E+01 0.322E+01   -.151E-05 -.280E-04 -.439E-04
   0.126E+01 0.135E+02 0.186E+03   -.255E+01 -.122E+02 -.183E+03   0.875E+00 -.136E+01 -.206E+01   0.515E-05 0.431E-04 -.134E-04
   -.716E+01 -.106E+02 0.927E+02   0.808E+01 0.848E+01 -.907E+02   -.508E+00 0.328E+01 -.227E+01   -.860E-05 0.336E-04 -.433E-04
   -.214E+01 0.899E+01 0.253E+02   0.263E+01 -.915E+01 -.270E+02   -.479E+00 0.391E+00 0.142E+01   -.174E-04 -.388E-05 -.311E-04
   -.433E+01 -.108E+02 0.164E+03   0.419E+01 0.117E+02 -.163E+03   -.289E+00 -.359E+00 -.516E+00   -.257E-04 0.127E-04 -.675E-04
   -.382E+02 0.681E+01 -.260E+03   0.374E+02 -.870E+01 0.259E+03   0.681E+00 0.307E+01 0.155E+01   0.319E-05 0.531E-05 -.485E-06
   0.262E+02 -.814E+00 -.146E+03   -.252E+02 0.125E+01 0.144E+03   -.156E+01 0.555E+00 0.326E+01   0.661E-05 -.166E-05 -.184E-04
   0.248E+01 0.206E+02 0.115E+03   -.896E+00 -.194E+02 -.114E+03   -.148E+01 -.159E+01 -.168E+01   0.107E-05 0.528E-04 -.919E-05
   -.668E+01 -.277E+02 0.261E+03   0.789E+01 0.284E+02 -.264E+03   -.130E+01 -.149E+01 0.161E+01   0.104E-04 -.221E-04 -.453E-04
   -.175E+02 0.178E+02 -.122E+03   0.167E+02 -.193E+02 0.119E+03   0.154E+01 0.220E+01 0.197E+01   0.168E-04 -.263E-04 0.663E-04
   0.278E+01 0.105E+02 -.249E+03   -.278E+01 -.118E+02 0.251E+03   0.769E+00 0.151E+01 -.127E+01   0.594E-04 -.273E-05 0.577E-04
   0.185E+02 -.480E+02 0.216E+03   -.206E+02 0.505E+02 -.219E+03   0.270E+01 -.276E+01 0.228E+01   -.637E-04 -.263E-04 -.331E-04
   0.384E+01 -.407E+02 0.427E+02   -.383E+01 0.404E+02 -.428E+02   -.389E+00 0.137E+00 -.454E+00   -.338E-04 -.393E-04 -.302E-04
   -.947E+01 0.256E+02 0.239E+03   0.812E+01 -.252E+02 -.235E+03   0.135E+01 0.139E+00 -.538E+01   -.184E-04 0.392E-04 -.170E-04
   -.124E+01 0.407E+02 0.699E+01   -.114E+01 -.381E+02 -.799E+01   0.272E+01 -.442E+01 0.205E+01   -.181E-04 0.470E-04 0.451E-05
   -.184E+02 0.162E+02 -.117E+03   0.188E+02 -.141E+02 0.117E+03   -.238E+00 -.282E+01 0.751E+00   0.615E-05 -.398E-05 -.234E-04
   0.469E+01 -.290E+02 -.183E+03   -.374E+01 0.286E+02 0.183E+03   -.106E+01 0.185E+00 -.244E+00   0.161E-05 -.326E-04 -.274E-04
   0.196E+02 0.247E+02 -.164E+03   -.183E+02 -.248E+02 0.160E+03   -.156E+01 0.753E-01 0.446E+01   -.186E-05 -.830E-05 -.336E-05
   -.113E+02 0.319E+02 0.156E+03   0.870E+01 -.309E+02 -.155E+03   0.192E+01 -.678E+00 -.103E+01   0.115E-04 -.247E-04 0.230E-05
   0.299E+01 0.279E+01 0.410E+02   -.251E+01 -.287E+01 -.431E+02   -.136E+01 -.300E+00 0.307E+01   0.155E-05 0.218E-04 -.576E-05
   -.296E+01 0.273E+02 -.243E+03   0.212E+01 -.265E+02 0.246E+03   0.756E+00 -.126E+01 -.214E+01   -.397E-05 -.182E-04 0.104E-03
   0.466E+00 0.255E+00 0.121E+03   -.134E+01 0.403E+00 -.120E+03   0.142E+01 0.480E+00 -.273E+01   0.158E-05 0.592E-04 -.445E-04
   -.164E+02 0.165E+02 0.206E+03   0.153E+02 -.168E+02 -.206E+03   0.584E+00 -.119E+00 -.127E+01   -.370E-05 0.691E-04 -.436E-04
   -.307E+01 0.941E+01 0.237E+03   0.232E+01 -.902E+01 -.238E+03   0.921E+00 -.764E+00 -.143E+00   -.252E-05 0.482E-04 -.302E-04
   -.326E+01 -.391E+02 -.144E+02   0.126E+01 0.376E+02 0.118E+02   0.222E+01 0.856E+00 0.253E+01   0.639E-04 -.445E-04 -.928E-04
   -.159E+02 0.879E+01 -.150E+03   0.144E+02 -.879E+01 0.147E+03   0.910E+00 -.477E+00 0.284E+01   0.375E-05 0.205E-04 0.292E-04
   -.428E+01 0.301E+01 -.432E+00   0.451E+01 -.459E+01 -.719E+00   0.752E+00 0.148E+01 0.144E+01   0.110E-04 0.427E-04 0.288E-05
   0.115E+02 0.128E+02 -.104E+03   -.115E+02 -.150E+02 0.103E+03   0.151E-01 0.209E+01 0.177E+01   -.634E-04 -.198E-04 0.263E-04
   -.287E+01 0.174E+02 -.165E+03   0.253E+01 -.179E+02 0.166E+03   -.194E+00 0.487E+00 -.162E+01   -.133E-04 -.576E-05 0.135E-04
   -.839E+01 0.157E+02 -.322E+02   0.701E+01 -.142E+02 0.312E+02   0.199E+00 -.129E+01 0.159E+01   -.166E-05 0.288E-04 -.261E-04
   0.172E+02 -.208E+02 -.214E+03   -.172E+02 0.216E+02 0.213E+03   0.421E+00 0.467E+00 0.149E+01   0.433E-05 -.188E-05 -.359E-05
   0.815E+01 0.184E+02 0.453E+00   -.908E+01 -.169E+02 0.588E+00   0.775E+00 -.670E+00 -.124E+01   0.740E-05 0.240E-04 -.634E-05
   0.648E+00 0.208E+02 0.219E+03   -.228E+01 -.192E+02 -.221E+03   0.201E+01 -.193E+01 0.114E+01   -.131E-04 -.121E-04 -.300E-04
   -.141E+02 -.135E+02 0.204E+03   0.137E+02 0.131E+02 -.203E+03   0.162E+01 0.444E+00 -.115E+01   0.898E-04 0.458E-04 -.818E-04
   0.847E+01 0.207E+02 -.302E+02   -.735E+01 -.204E+02 0.281E+02   -.564E+00 -.116E+01 0.233E+01   -.945E-05 0.284E-04 0.589E-05
   0.365E+02 -.474E+02 -.812E+02   -.332E+02 0.452E+02 0.806E+02   -.425E+01 0.282E+01 0.966E+00   -.916E-05 0.359E-05 -.696E-04
   0.942E+01 0.463E+02 0.170E+03   -.826E+01 -.436E+02 -.169E+03   0.218E+00 -.332E+01 0.460E+00   -.125E-04 -.546E-05 -.373E-05
   0.727E+01 0.197E+02 -.235E+03   -.815E+01 -.184E+02 0.230E+03   0.549E+00 -.377E+01 0.458E+01   -.118E-05 -.140E-04 -.521E-05
   0.253E+02 0.339E+02 -.185E+03   -.241E+02 -.338E+02 0.182E+03   -.324E+00 -.151E-01 0.433E+01   -.105E-05 0.438E-05 0.100E-04
   -.437E+01 -.400E+02 0.218E+03   0.309E+01 0.371E+02 -.216E+03   0.715E+00 0.356E+01 -.741E+00   0.401E-04 -.359E-04 -.567E-04
   0.835E+01 -.273E+01 -.167E+03   -.560E+01 0.160E+01 0.166E+03   -.292E+01 0.111E+01 0.201E+00   0.344E-04 0.556E-05 0.359E-04
   -.230E+01 0.198E+02 0.245E+03   0.533E+00 -.212E+02 -.247E+03   0.245E+01 0.180E+01 0.242E+01   -.187E-04 0.395E-05 -.271E-04
 -----------------------------------------------------------------------------------------------
   -.124E+02 0.624E+01 -.398E+02   0.904E-13 0.355E-13 -.227E-12   0.124E+02 -.624E+01 0.398E+02   -.574E-04 0.171E-03 -.668E-03


 POSITION                                       TOTAL-FORCE (eV/Angst)
 -----------------------------------------------------------------------------------
      8.12163      1.54315     10.79699        -0.318951      0.483640      0.683491
      3.46592     12.56350     11.83327        -0.089218      0.166188      0.450210
      1.34125      2.87803     13.00086         0.619379      0.301888      0.065197
      4.95401      9.22221     10.32996        -0.399822     -0.173714     -0.485031
     10.78430      2.05700     11.83638         0.063006     -0.071526     -1.027604
      2.20616      3.34606     10.34092        -0.008425      0.140547     -0.012919
     11.99020      5.04196     12.53324        -0.000713     -0.086713      0.141417
      7.60408      8.93896     15.26785         0.350883      0.797570     -0.097410
      3.46345      5.57869     14.67500        -0.027844     -0.258320     -0.487773
      2.99123      0.72231     13.78249         0.503139      0.488418     -0.058837
     14.37000      4.76686     12.26714        -0.646331      0.919572     -0.998499
      3.68719     10.49800     11.60221        -0.170544     -0.551289     -0.078755
      0.63725     13.97440     12.69242         0.234553     -0.920689     -0.853840
     11.55470     13.69360     15.25096         0.308221     -0.796823     -0.252415
      1.10766      7.03171     10.31067        -0.098338     -0.015795      0.186742
      3.25829      4.42808     10.12596        -0.191038      0.046531     -0.147883
     10.00600      6.81071     14.73733         0.263246      0.141838     -0.822472
      0.60222      7.32219     14.19451         1.073520     -0.154287     -0.610994
      2.34388      7.46612     12.28902        -1.673282     -0.555598      0.240945
      0.80091      5.05687     14.94789        -0.161846      0.748526     -1.087316
     12.34570      1.07277     14.21457        -0.971151      0.937407      0.348494
      4.79467      1.71986     11.79948        -0.473594      0.540595      0.724060
      0.99148      0.38208     10.56517        -0.396734      1.188653     -0.296924
      3.86980     12.83400     10.41964        -1.004265     -0.993368     -0.350937
      1.88427     14.53290     14.41670         0.478976     -0.809323      1.159624
      9.61922     13.60560     11.61728         1.427591     -0.842681     -0.949655
      3.03798     12.51020     14.83296        -0.002651      0.438482     -0.999678
      9.52611      4.00714     13.59761        -1.543879     -0.178715      0.065005
     10.25330      1.87316     13.17183         0.356126     -0.755927      1.265346
     10.01950      6.89679     11.27360        -0.371328     -0.177782      0.878402
     12.98580     11.19640     11.89255         0.387509      1.313226     -0.437160
      0.66755     11.67910     12.28096        -0.050669      0.265293     -0.152988
     12.01490     13.28530     11.31063        -0.448308      0.470883      0.635820
     12.37190     11.52340     15.37375        -0.233707      1.451578      1.118431
      6.40457     11.00350     13.80945        -0.563260      1.038680      1.132459
     12.27570      7.44710     11.73985         0.047543     -0.540035     -0.634030
      8.88828      0.57569     10.00000        -0.277818     -0.865395     -1.038256
     11.49150      5.03695     13.95642         0.781104      0.845404     -0.284033
      7.95790      3.83889     15.37877         0.712896      0.371272     -0.178307
     13.60320      1.96213     10.30261         0.858755     -0.657588      0.060012
     13.27900      0.58357     12.18826        -0.347211     -0.215721     -0.582348
      6.36339      9.08410     10.69911        -0.089931      0.626016     -0.766977
      6.61050      7.89345     12.50238         0.489518     -1.982903      1.151083
     12.14520     10.13980     13.67945         0.125740     -0.907974      0.127971
      5.28126     13.04890     14.27005        -0.202932     -0.390716     -0.486172
      1.92232     10.61540     13.88213        -0.240638      0.105613      1.227334
      8.98311      4.78654     11.37528        -0.602927      0.486996      0.389086
      3.49884      5.46768     12.20211        -0.969922     -0.373593      1.117563
     13.14660      4.63251     15.50671         0.033467     -0.418310      0.435776
      7.09484     11.02150     11.69182         0.611467      1.155722     -2.009038
      9.38840     11.36590     11.10957        -0.524887     -0.297298     -0.226269
     12.76630      9.38524     10.56412         0.219909     -0.416663     -0.909901
      6.23896      0.05864     12.59471         0.327270     -0.612991      0.038389
     12.91100      7.96946     13.87887        -0.406877     -0.451338      0.540610
      5.74239      5.69748     12.55731         1.003290     -0.026200      0.324755
      2.37808      3.84608     13.66123        -0.004609      0.009945     -0.012417
      4.35440      2.55044     14.13208        -0.559389      0.224548     -0.908727
      9.96468     10.22600     13.01206        -1.194966      0.133916      0.731264
      9.42141     13.16570     14.72348         0.577715      1.180752      0.561146
      3.42274      9.43265     12.65696        -0.130154      0.820005     -0.254838
      6.76726      4.99360     10.60110         0.633839     -0.357726     -0.093473
      6.12365     13.01210     10.78861         1.232149      0.024510      0.465334
      8.89819      8.14914     12.89485         0.558775     -0.962675      0.329467
      8.61068      0.19719     13.28543        -1.027966      0.650779      0.327499
     13.79320      5.79107     11.10309         1.501052     -0.676663      0.941640
      8.50433     11.16210     14.70620        -0.294812     -2.611982     -0.089429
      5.24780      8.99638     13.93103         0.972730      0.272530      0.709961
      3.34412      0.50691     10.32916        -0.531295      0.703427      0.814731
      6.03510      4.20711     14.32112        -0.299600     -0.007184     -0.680997
      1.36379     11.08510     10.11816         0.798464      0.624559     -0.024965
 -----------------------------------------------------------------------------------
    total drift:                                0.004791      0.000487     -0.004087


--------------------------------------------------------------------------------------------------------



  FREE ENERGIE OF THE ION-ELECTRON SYSTEM (eV)
  ---------------------------------------------------
  free  energy   TOTEN  =      -557.67812314 eV

  energy  without entropy=     -557.54218772  energy(sigma->0) =     -557.61015543



--------------------------------------------------------------------------------------------------------


    POTLOK:  cpu time      3.1638: real time      3.1713


--------------------------------------------------------------------------------------------------------


     LOOP+:  cpu time   6153.6915: real time   6158.1113
    4ORBIT:  cpu time      0.0000: real time      0.0000



 total charge

# of ion       s       p       d       tot
------------------------------------------
    1        0.581   0.018   0.000   0.598
    2        0.555   0.018   0.000   0.572
    3        0.541   0.013   0.000   0.553
    4        0.573   0.018   0.000   0.591
    5        0.584   0.018   0.000   0.603
    6        0.552   0.015   0.000   0.567
    7        0.564   0.018   0.000   0.581
    8        0.397   0.002   0.000   0.399
    9        0.414   0.003   0.000   0.417
   10        0.562   0.021   0.000   0.583
   11        0.493   0.011   0.000   0.504
   12        0.547   0.017   0.000   0.564
   13        0.775   0.967   0.000   1.742
   14        0.773   0.897   0.000   1.671
   15        0.843   0.741   0.000   1.584
   16        0.852   0.749   0.000   1.601
   17        0.885   0.648   0.000   1.533
   18        0.801   0.776   0.000   1.577
   19        0.767   0.900   0.000   1.667
   20        0.791   0.833   0.000   1.624
   21        0.800   0.840   0.000   1.640
   22        0.792   0.807   0.000   1.599
   23        0.808   0.798   0.000   1.606
   24        0.770   0.929   0.000   1.699
   25        0.789   0.931   0.000   1.720
   26        0.762   0.946   0.000   1.709
   27        0.792   0.832   0.000   1.623
   28        0.771   0.928   0.000   1.699
   29        0.764   0.949   0.000   1.713
   30        0.807   0.832   0.000   1.639
   31        0.771   0.966   0.000   1.737
   32        0.765   0.964   0.000   1.729
   33        0.808   0.794   0.000   1.602
   34        0.848   0.783   0.000   1.631
   35        0.761   0.975   0.000   1.736
   36        0.764   0.923   0.000   1.686
   37        0.864   0.763   0.000   1.627
   38        0.761   0.947   0.000   1.708
   39        0.853   0.771   0.000   1.624
   40        0.892   0.669   0.000   1.561
   41        0.769   0.938   0.000   1.707
   42        0.798   0.938   0.000   1.736
   43        0.764   0.980   0.000   1.744
   44        0.781   0.982   0.000   1.763
   45        0.809   0.792   0.000   1.602
   46        0.787   0.876   0.000   1.663
   47        0.795   0.835   0.000   1.631
   48        0.766   0.919   0.000   1.685
   49        0.833   0.777   0.000   1.610
   50        0.762   0.958   0.000   1.721
   51        0.809   0.860   0.000   1.669
   52        0.851   0.770   0.000   1.620
   53        0.772   0.846   0.000   1.619
   54        0.790   0.871   0.000   1.660
   55        0.765   0.943   0.000   1.708
   56        0.752   0.858   0.000   1.610
   57        0.820   0.782   0.000   1.603
   58        0.774   0.925   0.000   1.698
   59        0.791   0.907   0.000   1.698
   60        0.752   0.999   0.000   1.750
   61        0.867   0.730   0.000   1.597
   62        0.796   0.839   0.000   1.635
   63        0.763   0.901   0.000   1.665
   64        0.769   0.924   0.000   1.694
   65        0.789   0.825   0.000   1.614
   66        0.789   0.874   0.000   1.662
   67        0.813   0.874   0.000   1.687
   68        0.802   0.837   0.000   1.639
   69        0.788   0.873   0.000   1.661
   70        0.916   0.603   0.000   1.519
--------------------------------------------------
tot         52.622  50.067   0.000 102.690


 total amount of memory used by VASP MPI-rank0   353615. kBytes
=======================================================================

   base                                    :      30000. kBytes
   nonl-proj                               :      68316. kBytes
   fftplans                                :      98005. kBytes
   grid                                    :      75605. kBytes
   one-center                              :         15. kBytes
   wavefun                                 :      81674. kBytes

  
  
 General timing and accounting informations for this job:
 ========================================================
  
                  Total CPU time used (sec):     6292.956
                            User time (sec):     5562.572
                          System time (sec):      730.384
                         Elapsed time (sec):     6299.966
  
                   Maximum memory used (kb):      603432.
                   Average memory used (kb):          N/A
  
                          Minor page faults:     10975270
                          Major page faults:         1170
                 Voluntary context switches:         3333
