ITEM: TIMESTEP
0
ITEM: NUMBER OF ATOMS
1000
ITEM: BOX BOUNDS pp pp pp
0.0000000000000000e+00 2.1158707884739954e+01
0.0000000000000000e+00 2.1158707884739954e+01
0.0000000000000000e+00 2.1158707884739954e+01
ITEM: ATOMS id element x y z fx fy fz c_PEa
1 H 7.92478 20.1159 15.488 -0.105682 -0.421176 -0.630175 -0.249558
2 H 12.6668 3.30115 3.30064 -0.0166976 0.00568608 -0.445543 1.09852
3 H 6.16766 20.1149 18.9169 -0.341249 0.400138 0.464222 0.431273
4 H 14.9819 0.435541 20.522 0.111773 -0.0910091 -0.471451 0.481979
5 H 17.6134 4.49282 3.84718 -0.617023 -0.106652 -0.566649 0.115666
6 H 3.8806 6.43737 11.1032 -2.08202 7.7543 -10.3709 -0.34173
7 H 9.1394 6.16203 12.946 0.764668 0.185103 0.615763 -0.059275
8 H 2.95151 6.1814 7.75174 -0.121733 -0.285336 -0.941886 -0.558351
9 H 9.76134 16.4356 4.65728 0.484258 0.442152 -0.118795 -0.144103
10 H 10.8805 12.5347 0.982831 -0.594883 1.09788 0.30441 -0.245689
11 H 7.1655 4.07371 11.0584 -0.406061 -1.37847 0.316728 0.538136
12 H 20.0772 20.4315 17.1046 0.328787 -0.273141 0.14447 -0.0492845
13 H 6.44523 2.06662 14.4775 1.0376 -0.954884 1.16395 -0.17711
14 H 9.31306 2.58217 10.4773 0.562533 -0.319678 -0.342898 0.0726469
15 H 0.727617 19.24 5.47545 0.304037 -0.852672 0.903326 -0.469393
16 H 14.0181 6.5954 11.004 -0.538102 -0.096086 -0.413109 0.32832
17 H 11.5677 3.91128 20.5152 -0.00795245 -0.281539 0.203287 0.129435
18 H 16.4008 19.8786 18.9334 0.00797797 0.112987 -0.519551 -0.374458
19 H 12.6508 19.5057 1.87239 -0.646737 0.31819 0.529886 0.734763
20 H 4.14674 0.956951 6.88357 -0.239996 -0.973239 -0.261261 1.64588
21 H 8.22391 5.74139 17.535 -0.241444 0.811495 -0.727941 -0.473342
22 H 7.54844 5.94421 11.4827 0.540908 0.676263 -0.58011 -0.0395636
23 H 2.98177 16.9735 1.5774 -1.57687 0.0710451 0.707218 0.528375
24 H 20.8813 16.3397 4.20457 0.357516 1.09029 0.63541 -0.11831
25 H 0.116841 17.2541 14.9562 -0.387922 0.396533 1.09217 0.123586
26 H 15.4248 16.3191 1.56669 -0.533388 1.38986 1.06371 -0.0742895
27 H 7.58467 2.45164 18.2622 0.560502 -0.129104 0.993605 -0.230959
28 H 13.1882 7.00137 1.34481 -0.0909274 0.363936 0.524578 1.03307
29 H 6.57998 6.88046 15.4375 1.78559 0.724661 0.196406 0.0765808
30 H 13.4899 18.7723 9.99146 -0.324146 0.191062 0.227263 0.280138
31 H 2.53046 15.0913 16.0972 -1.11486 -0.119308 -1.51114 0.973049
32 H 11.8759 16.3127 10.4481 -0.198969 0.297883 -0.0428248 0.152441
33 H 11.0604 9.04622 0.537836 0.234976 -0.370625 1.19374 0.917706
34 H 2.28284 0.665001 13.4656 0.919261 0.425714 1.42737 0.23078
35 H 6.65137 10.7607 19.2029 0.570139 0.214503 0.189317 0.282273
36 H 5.2747 8.68317 15.9865 0.678021 0.692643 -0.412595 0.538253
37 H 19.6712 17.0988 13.402 -1.43522 -0.795995 -0.209525 -0.0759757
38 H 18.9533 16.9927 3.73877 -0.154448 0.867187 -0.558179 -0.236961
39 H 18.8854 11.4118 17.0844 -0.197248 0.442025 0.0975579 1.03884
40 H 18.9601 6.72854 2.32856 0.115009 0.217165 -0.0951061 -0.00709741
41 H 1.47954 4.52395 12.115 -0.402322 -2.04287 -0.78908 0.513179
42 H 6.83856 10.9769 14.875 0.143924 1.14129 0.0400355 0.525372
43 H 7.69393 20.5617 20.3641 -0.845308 0.722319 -0.25082 0.199491
44 H 5.32739 10.5211 6.3662 -0.831409 0.250441 0.360755 -0.380126
45 H 6.02686 0.78048 12.8976 0.431883 -1.76967 -0.775521 0.135056
46 H 15.9394 8.38701 12.6119 -0.736444 0.24184 0.453989 0.137197
47 H 19.2177 5.06882 3.06579 0.508176 0.125958 0.359276 0.502073
48 H 16.1149 5.0281 15.4081 -0.659281 0.66486 -0.712418 0.365302
49 H 7.78182 13.3788 13.4047 -0.0523392 0.898577 -0.194051 0.249914
50 H 11.3363 1.91041 17.6739 0.0745788 -0.340399 0.676621 0.146991
51 H 6.78729 3.94649 0.862749 -0.518749 -0.256916 -0.245628 0.0757079
52 H 12.5025 14.3364 0.350977 0.556267 0.693811 0.148269 -0.414715
53 H 10.8352 4.79236 13.651 -0.712765 0.994273 0.282683 -0.187196
54 H 3.68937 14.6193 8.18282 0.0478178 0.572352 -0.00895815 -0.23242
55 H 7.76805 5.82807 7.84321 -0.931621 1.3937 0.336964 -0.208499
56 H 2.40095 19.5653 18.5634 -0.338312 0.458785 0.335805 1.79203
57 H 5.45771 13.9644 17.2914 1.38107 -0.252197 -1.36364 1.59852
58 H 11.7473 11.2067 5.11728 -0.259461 -0.691082 -0.309552 -0.136258
59 H 3.41985 19.0122 12.8313 -0.471536 -1.58597 1.66846 -0.0381389
60 H 0.194598 2.14701 14.0388 -0.362052 -0.730001 -0.401464 -0.168229
61 H 0.107097 3.40249 11.6105 -0.391459 -0.271495 -0.511454 0.0407148
62 H 14.6396 13.7947 4.74525 -0.0884126 -0.241816 0.0942698 0.00893697
63 H 15.0688 5.01988 6.88504 0.162396 -1.1752 0.297558 1.43273
64 H 15.7948 13.7454 17.9685 -0.0449775 0.452259 -0.281996 0.0471065
65 H 11.3915 11.778 18.9478 0.418916 -0.259389 0.276748 0.0753373
66 H 7.78039 5.61134 5.16251 -1.45243 0.272395 -1.27022 0.589844
67 H 20.964 8.3497 19.2679 -6.4921 -0.574164 3.68037 0.806055
68 H 10.421 4.13109 15.2862 0.632544 -1.10592 -0.103608 -0.0314258
69 H 19.8989 20.1839 19.3573 -0.489849 0.357341 -0.456813 0.762955
70 H 8.14817 18.009 6.70566 -0.299037 0.674485 0.40957 0.290299
71 H 3.58625 11.7812 19.8078 -0.67372 -0.997539 0.93065 0.801933
72 H 15.6737 14.748 14.8637 1.06238 -0.421079 0.219898 -0.059122
73 H 18.3461 19.323 10.8193 -0.398214 -0.992215 -1.15832 -0.0180359
74 H 10.6114 16.8909 13.7524 -1.24633 0.0180435 0.375202 0.0654339
75 H 14.8217 16.8583 19.037 0.512757 0.0898665 0.276545 0.324878
76 H 7.15154 7.94685 1.98854 0.0561799 -0.466628 -0.127422 0.387584
77 H 12.2357 0.760492 9.85145 -0.0978635 0.274207 0.05195 0.524727
78 H 11.1883 12.801 6.10449 0.934397 -0.118173 0.28633 -0.391527
79 H 3.05373 7.68436 4.12081 1.60397 0.338076 -1.92797 -0.28794
80 H 4.56649 13.1796 1.80584 0.00909577 -0.673083 0.885371 0.294123
81 H 1.09352 11.2428 11.4391 0.383853 0.220437 0.74981 0.0964424
82 H 6.83334 16.8251 5.73046 0.830423 0.818643 1.1668 0.348771
83 H 9.28807 1.66004 0.536389 -0.506065 -1.48243 0.578672 -0.0784424
84 H 18.7473 0.584543 7.89032 0.0765299 1.05137 0.537254 -0.220903
85 H 11.6209 15.1199 13.9689 -0.610936 0.111443 0.42574 0.496247
86 H 5.16396 20.237 15.6603 -0.509304 0.0514694 0.781666 -0.0752737
87 H 11.7294 12.9432 8.8782 -0.433295 1.15455 0.702748 -0.2953
88 H 2.45595 0.973356 0.861769 0.370416 0.419893 0.27225 0.336202
89 H 18.1004 14.8885 10.0329 -0.718435 -1.30253 1.88218 -0.280048
90 H 2.07004 10.402 10.0181 0.0528286 1.5185 -0.615608 -0.47059
91 H 3.66473 9.17974 8.43185 1.12731 1.12355 -0.341399 -0.329034
92 H 13.2424 10.6457 18.1222 0.0392543 0.35129 0.069715 0.21381
93 H 5.66213 15.8309 18.8543 1.76393 1.48231 -1.27053 1.27238
94 H 12.1763 8.21317 13.6111 -0.459443 0.804519 1.07518 0.428698
95 H 9.69604 11.5445 19.9202 -0.727783 -0.887314 0.03862 -0.0923098
96 H 14.4515 1.50626 6.74911 0.868317 0.942287 0.720531 1.03684
97 H 17.8765 0.492404 17.2331 -0.7915 -0.92012 -0.283479 -0.379194
98 H 18.5662 15.5532 17.0006 0.0811322 -0.620002 0.196726 0.266207
99 H 5.96749 3.75439 15.882 0.617276 -0.26043 1.30893 -0.131191
100 H 17.1694 21.1456 8.8983 -0.849594 -0.19755 -0.796442 0.355904
101 H 18.1629 9.07696 15.8875 -2.72824 -1.16477 -0.249243 0.47699
102 H 15.9652 2.18197 19.0969 0.016542 -0.225555 -0.444071 0.351454
103 H 10.6905 17.4868 6.77184 -0.822523 0.457382 -0.238756 0.320948
104 H 15.851 0.571917 6.02059 -0.143201 0.00986243 -0.0111797 1.91121
105 H 20.1136 12.1332 13.3689 1.21701 1.13668 1.64147 -0.168827
106 H 9.48853 6.20396 6.95412 0.396649 1.18169 0.123004 0.0136883
107 H 13.6506 15.5179 17.6786 -0.234367 0.559254 -0.170216 -0.249868
108 H 16.7073 1.9298 10.4613 0.0565305 -0.646561 -0.451494 0.948458
109 H 7.42491 2.47699 3.02552 0.710122 -0.668041 0.384217 0.0553872
110 H 16.1126 13.0807 2.13963 -0.855417 -0.0365291 -0.089563 0.228049
111 H 1.77959 14.8316 1.53957 0.523819 0.753477 -0.838165 0.539644
112 H 17.3895 14.9432 1.72124 0.331691 -0.352514 0.637927 0.308062
113 H 1.79506 20.876 7.91909 0.034091 0.0471314 -0.677472 0.577664
114 H 14.3241 14.6471 6.483 -0.0680962 0.281111 -0.282662 0.107894
115 H 20.8625 15.9405 7.96117 -0.735343 -0.215015 -0.518455 -0.192072
116 H 1.76677 16.4434 11.8151 2.60694 0.861649 -0.557171 -0.0270204
117 H 8.97599 19.1773 2.3528 0.980167 -0.420597 1.79167 2.09492
118 H 10.3498 0.114388 9.53546 0.0862904 0.150864 0.0237296 0.745157
119 H 14.3907 11.4671 1.49182 -1.22375 0.118392 0.76525 -0.559849
120 H 13.7365 15.7853 12.3433 0.37458 0.634348 -0.54582 0.752053
121 H 20.3583 7.93178 6.0453 0.454668 -1.39112 -0.113124 -0.402885
122 H 18.3784 4.731 20.3805 -0.248186 0.900449 0.808433 0.508857
123 H 11.1655 21.0099 1.56144 -0.0308637 -0.485341 -0.789043 0.229675
124 H 13.3038 10.8412 10.5541 0.0893248 -0.951738 0.403768 0.186239
125 H 13.3173 14.7211 9.6175 0.517056 0.548768 -0.0648411 -0.202348
126 H 13.2783 12.3633 19.0673 0.103088 0.27898 -0.230552 0.0908868
127 H 0.961587 5.94482 20.1095 0.0354704 -0.00570569 1.1389 0.183241
128 H 18.8368 9.64111 13.1212 1.3959 -2.77474 3.80583 0.570299
129 H 5.86903 3.9804 9.81126 0.507884 -0.501965 -1.02906 0.339139
130 H 7.47648 12.3494 1.64476 -0.603364 0.0271441 0.780601 0.0920809
131 H 20.6169 20.8669 14.7722 -0.751186 0.441637 0.583872 -0.148689
132 H 11.3431 6.5492 17.2189 -0.468175 0.105022 -1.80011 -0.306945
133 H 14.488 3.44076 19.274 0.201388 0.493876 0.383946 1.1829
134 H 17.4038 20.0965 15.3553 -0.467653 0.48735 0.1783 -0.183359
135 H 15.3938 18.5343 17.7867 0.556875 -0.905987 -0.615644 0.111246
136 H 18.3248 0.956769 0.557891 1.09911 0.847586 -0.975139 2.04438
137 H 20.1547 2.0987 3.3209 1.35251 -0.288523 0.609059 0.492871
138 H 5.78494 1.19283 18.2964 0.0879849 0.167892 -0.389114 -0.219551
139 H 9.53293 2.73285 20.1865 -0.211565 0.355996 -0.160179 -0.209373
140 H 12.8259 4.83779 14.2123 -0.80097 0.808701 -0.0500527 -0.163759
141 H 2.83559 0.609004 15.9777 0.570967 -0.0815484 -0.0368602 0.792591
142 H 13.1249 14.8974 4.50605 -1.04808 -0.65516 -0.196251 -0.510174
143 H 8.29938 9.2564 19.1308 0.592282 -0.366875 -0.143838 0.0415132
144 H 13.1626 18.2465 20.0906 0.487815 0.220138 -0.246288 0.260131
145 H 3.11188 19.6054 10.4125 1.62656 -0.177516 -2.08379 0.209374
146 H 15.2894 3.78918 3.67703 -0.088628 0.236342 0.657521 1.05015
147 H 2.9374 13.5601 3.84835 0.283358 -0.322232 -1.0682 -0.0975594
148 H 7.31387 18.9749 10.0284 0.610311 0.669483 -0.423767 0.0466617
149 H 3.57445 5.89461 3.74531 0.233935 -0.123321 0.466433 -0.202407
150 H 1.87683 2.5525 9.74948 -0.368967 -0.490639 -0.227281 0.241157
151 H 16.1144 18.0741 14.4403 0.519308 0.503064 -0.679025 0.53789
152 H 5.85837 17.0582 15.8322 -0.420777 0.971972 0.621477 1.62077
153 H 3.90423 4.42956 7.83871 -0.168807 -0.555723 0.143233 -0.163155
154 H 10.2519 13.0815 7.80574 -1.00361 1.45341 -0.888271 -0.643065
155 H 9.78664 15.8155 0.776169 1.03965 -1.43522 0.076203 -0.225255
156 H 9.03033 9.62329 4.33804 0.171836 0.187741 -0.0960091 -0.0389715
157 H 10.8264 11.2588 2.26762 0.804963 0.316777 0.634393 -0.103393
158 H 9.46667 11.2695 5.13036 -1.74223 1.88075 1.08107 -0.5991
159 H 5.69684 7.98285 0.424681 0.00371271 0.0355518 0.0308237 0.286158
160 H 6.81478 4.47397 6.92942 -1.71334 1.63408 -1.94464 -0.237954
161 H 16.6978 10.5464 1.83912 -0.0617481 0.0190628 1.12224 -0.190488
162 H 11.3645 12.4168 15.7725 0.591095 -0.754762 0.802403 0.418515
163 H 9.13336 2.69943 6.00433 -0.179343 -2.13744 -2.45761 1.8842
164 H 20.8734 12.8174 5.01941 0.529838 -0.0468668 -1.4536 -0.00173768
165 H 2.3706 8.41811 20.5127 0.738736 -0.488658 5.1447 0.179897
166 H 9.30158 2.2479 12.3839 0.631605 0.352732 0.491745 0.634538
167 H 6.84863 9.00169 10.7404 0.597256 1.26624 -1.28869 -0.331514
168 H 5.12908 2.4298 12.9199 -0.614931 -3.10202 1.31716 0.364268
169 H 6.10705 12.2982 3.26612 0.560711 -0.273951 -0.710327 1.09493
170 H 12.6029 9.97794 8.71402 1.1361 0.0401913 -2.12906 -0.271515
171 H 7.3816 19.6676 17.5748 0.920298 -1.20376 1.35746 -0.606608
172 H 17.812 2.9574 16.8268 -0.100419 0.192477 0.891579 -0.155406
173 H 4.26617 3.46275 3.47565 -0.760503 -0.263284 0.489537 0.149014
174 H 7.97566 9.78971 6.37677 -1.21304 -1.22041 -0.408181 -0.483938
175 H 15.8184 10.6369 4.91332 0.910851 1.0047 -0.379983 0.0168933
176 H 19.0338 8.12264 11.5009 -0.201792 -3.01176 1.70111 2.08326
177 H 19.1798 13.2081 2.47341 -0.303157 0.535983 0.402236 0.665108
178 H 20.0377 12.9484 6.85009 0.608045 -1.59466 0.12749 -0.59083
179 H 5.25771 15.7409 0.709503 0.320444 -0.019351 0.318322 1.55429
180 H 12.0581 16.1326 18.5512 -0.57764 0.426985 0.841171 -0.481682
181 H 7.23801 17.3767 2.34082 0.0126012 0.264399 -0.00837816 1.37571
182 H 17.9098 2.6975 8.40609 0.54411 -0.131799 -0.311789 -0.00641047
183 H 16.8697 3.17206 4.85066 -0.0249114 -0.905465 -0.58644 0.670431
184 H 11.4833 5.32774 7.31448 2.47423 0.461958 0.378321 0.340683
185 H 14.9643 3.22753 12.1935 -0.228152 0.272435 0.750132 0.955322
186 H 12.8373 8.97406 15.5822 0.615284 0.239438 0.0799224 0.789795
187 H 19.77 19.5838 9.53918 0.136574 0.414129 -0.112732 0.231217
188 H 8.44238 1.15869 7.09234 0.770075 -3.30192 -1.49826 1.57929
189 H 11.3706 19.463 7.32823 -0.857149 0.707834 -0.271371 1.39125
190 H 7.34108 15.6046 9.56835 -0.419866 0.847305 0.80043 -0.0476785
191 H 4.75235 9.57304 2.98035 0.100586 -0.368997 0.334701 0.170625
192 H 12.5976 1.41925 15.8682 -0.74163 0.223105 -0.292153 0.684472
193 H 20.0426 5.68595 4.73828 0.22206 -1.48436 -0.390046 -0.163334
194 H 4.03471 0.773344 9.98833 0.168259 -0.937955 0.708025 0.677289
195 H 8.98555 12.1802 0.516718 -0.64815 0.531792 0.569294 -0.217017
196 H 8.64829 0.537142 3.30399 0.558413 0.527892 -0.288 0.724679
197 H 15.149 13.942 0.573316 -1.01998 -0.270505 0.755742 -0.165967
198 H 4.69664 4.88924 14.2164 3.84128 -10.2335 14.8755 0.502234
199 H 13.8113 5.03964 2.10405 0.695274 -0.107345 0.0647975 -0.280093
200 H 8.40389 14.1358 4.3372 0.33844 -1.1202 -0.0787908 -0.451576
201 H 18.9246 19.8051 7.94507 -0.732242 -0.822953 -0.0781286 -0.122387
202 H 1.80925 4.3986 0.561387 0.0946223 -0.21786 -0.85408 -0.0979032
203 H 3.83894 12.3364 8.9168 0.689902 -1.388 -0.28908 -0.765702
204 H 18.8878 17.296 7.23241 1.48629 1.3592 1.13389 0.259139
205 H 5.48906 8.0338 12.4899 8.56482 17.2564 -4.94679 0.376489
206 H 5.67188 13.2062 8.66262 0.639943 -0.388852 0.0656871 0.0023446
207 H 11.6806 9.22787 6.23051 0.67504 1.39195 0.243481 -0.27022
208 H 10.3134 18.9276 16.9239 1.24776 -0.922485 0.821137 -0.428805
209 H 20.8287 11.1229 3.63251 -0.594054 0.378267 0.298428 0.0749772
210 H 6.28671 11.9844 10.0726 -0.0178537 0.166288 0.278631 -0.260477
211 H 14.0424 19.8221 15.5003 -0.176434 -0.36719 0.347989 0.646639
212 H 16.3115 2.25548 1.58982 -0.217566 1.10109 -0.179512 1.2151
213 H 15.4075 10.484 14.5657 -0.0214981 0.264965 -0.121357 0.329982
214 H 14.6989 5.75824 12.4885 1.71529 -0.746674 1.17124 0.0492529
215 H 20.1058 9.43691 3.91717 -0.002949 -0.514338 0.285693 -0.428508
216 H 11.4659 18.4704 15.4929 -0.0102243 0.0544231 0.182927 0.154992
217 H 14.7565 6.29152 19.559 -0.235602 -0.211989 0.15563 0.758762
218 H 17.8696 6.75175 17.5388 -0.361328 0.137722 -1.27657 0.44421
219 H 1.62823 14.7326 7.19132 -0.348845 1.77422 -0.435362 -0.521719
220 H 16.7307 6.74439 13.2431 0.289924 -1.0493 0.840347 -0.413037
221 H 18.7461 13.0309 4.92912 0.464884 -0.943878 -0.932983 0.597351
222 H 0.924346 10.1424 1.09564 0.0973269 0.0190238 0.131019 -0.155424
223 H 18.5076 11.1916 19.8695 -0.694462 2.47244 -1.34273 2.66004
224 H 8.50434 10.1535 13.2772 0.742075 1.05107 -0.384334 0.3048
225 H 21.051 3.6794 8.38397 0.961969 0.676823 -0.207498 0.508277
226 H 16.0433 14.7269 3.25624 -0.671131 0.0237072 -0.889853 0.249993
227 H 1.84053 8.64234 7.88561 0.495029 -1.51198 -0.698566 -0.179322
228 H 5.49605 15.3066 10.4921 0.13138 -0.379832 -0.467942 -0.0320501
229 H 1.71483 4.65879 14.4569 -0.262215 -1.55116 0.794738 0.638511
230 H 1.61083 18.0104 10.4767 -1.07092 -0.978064 -1.55042 0.133653
231 H 10.1686 12.5346 17.4492 0.789732 -0.366544 0.557103 0.518643
232 H 14.3909 13.089 15.9265 0.308932 -0.979806 -0.27728 -0.1373
233 H 3.40147 17.3071 17.6069 -0.317287 1.70409 0.293511 1.33953
234 H 11.4254 16.5005 2.26357 0.687992 1.01774 -0.248881 -0.345068
235 H 16.1024 11.4525 20.3757 0.134447 0.838853 -0.184087 -0.159083
236 H 7.23357 13.3855 19.7205 0.900374 -0.858755 0.642351 0.751541
237 H 2.16897 19.8305 14.5548 0.0238371 0.454675 0.589119 0.347205
238 H 1.43534 6.368 14.984 -2.59453 -0.941644 -0.63626 0.71392
239 H 1.42505 12.318 7.31844 0.537869 0.997874 -0.628712 -0.691672
240 H 13.1378 0.967842 18.4406 0.436635 -0.0056989 0.657263 1.13969
241 H 5.78959 21.0979 9.01745 0.192859 0.682462 0.608143 0.187405
242 H 9.55077 3.46207 16.8171 -1.06114 -2.63315 0.604737 -0.290629
243 H 9.14765 19.9657 8.88089 -0.199881 -0.921127 -0.278116 0.631501
244 H 13.5104 8.41258 5.80204 -2.33405 0.607446 -2.07578 0.32769
245 H 2.48209 2.64877 14.5057 -0.527088 -1.14944 -0.467758 0.42469
246 H 18.1991 16.5006 0.838283 0.706084 0.599001 -0.386685 0.34853
247 H 18.5467 19.1991 1.49752 0.756828 -0.652554 -0.425128 1.09477
248 H 1.1899 7.98103 2.52588 -0.313394 -0.582273 -0.639378 -0.197488
249 H 13.2934 13.6543 17.4726 -0.700192 0.365974 0.291595 0.270179
250 H 13.6173 11.138 15.4795 -0.301836 -0.537957 -0.16347 0.275797
251 H 1.77793 1.16462 5.18649 -0.0609347 0.905064 0.439157 -0.0572747
252 H 15.3455 10.2973 18.4805 -1.19292 1.58157 -1.26112 0.0933849
253 H 19.3044 4.45734 13.1812 0.252001 -0.206972 1.08331 0.742845
254 H 13.363 15.5117 2.7838 0.687433 1.05792 -0.469209 0.114157
255 H 15.1459 19.234 3.80186 0.0500194 -0.24752 0.310864 1.20124
256 H 10.416 5.23109 18.4239 0.0614423 -1.2587 -0.111403 -0.191247
257 H 10.2347 10.5159 6.98276 1.96511 0.686521 0.284646 -0.923129
258 H 12.5461 3.45995 8.27478 0.215598 -0.328213 0.708267 1.55097
259 H 4.9991 0.964199 0.805492 -0.13371 0.164387 -0.968108 0.30877
260 H 5.26247 13.058 14.9545 -0.498839 0.139372 -0.0495901 1.31437
261 H 3.53439 3.54661 0.77592 0.463032 -0.459712 0.684769 0.0542421
262 H 15.5813 14.0452 10.0426 -0.239938 -0.194484 0.105803 -0.161285
263 H 17.8616 17.0469 12.3853 -0.860835 0.893645 1.27348 0.0930731
264 H 10.7324 0.879628 3.13875 0.335956 0.618626 -0.00190153 0.092592
265 H 10.3434 14.11 2.95484 -0.481082 0.0541669 -2.17413 -0.349729
266 H 14.249 20.5221 1.98682 -0.731016 0.254428 -0.271269 0.488496
267 H 2.25537 13.9192 21.1463 -0.699376 -1.84776 1.58149 0.828886
268 H 5.75058 7.79507 9.55987 -0.459388 1.40687 -0.486897 -0.0986986
269 H 18.5883 8.55109 6.9196 1.46599 0.0286569 -1.14902 0.377628
270 H 9.21638 17.3043 2.54347 0.607337 0.581728 -0.736437 0.206652
271 H 8.3825 14.7152 8.22139 -0.404072 -0.197863 0.0853727 -0.388863
272 H 1.54873 12.7682 14.1385 -0.593094 -0.0143442 -0.196004 0.657925
273 H 8.04445 8.43857 12.2757 1.54067 -0.557611 0.804511 -0.0904221
274 H 19.6149 1.27518 19.7715 -0.435798 -0.0353782 1.12158 0.154129
275 H 7.43988 2.14593 10.2804 0.260189 -1.23152 0.418584 0.0930033
276 H 5.43306 6.02754 6.50186 -1.66998 -0.316991 -0.424125 -0.321404
277 H 16.991 11.408 6.58687 1.09168 0.0511494 -0.461659 0.241647
278 H 11.6421 0.918553 13.3967 0.44446 -0.0492919 -0.470605 2.52781
279 H 20.1305 12.7293 17.333 1.10274 0.352274 0.357749 0.373588
280 H 5.01187 16.5149 5.81454 -0.192388 1.28984 -0.072944 1.13027
281 H 17.4055 8.96575 14.1245 -1.30854 1.21833 0.00959893 0.65259
282 H 2.0214 13.2001 9.55882 -0.83105 0.233324 0.836369 -0.07916
283 H 12.4119 3.55496 15.5913 -0.959023 -1.32833 -0.317946 -0.0372498
284 H 13.5833 12.8453 11.5674 -0.660269 0.944937 -0.13653 -0.304697
285 H 9.06015 15.1834 14.6511 -0.369491 0.0702543 0.360331 0.0959372
286 H 16.9345 4.94505 11.426 -1.55847 1.11451 -0.0168952 0.871675
287 H 11.8975 20.2621 3.70918 -0.345223 0.657152 -1.27978 0.320391
288 H 9.52927 15.9994 7.35416 1.50113 0.381102 0.987379 0.0382898
289 H 2.46216 17.2962 8.0535 -0.130458 0.00204068 0.688263 0.237287
290 H 10.2626 11.8029 11.4498 0.155594 -0.460038 0.924467 -0.365873
291 H 16.716 6.44662 1.71215 -0.729755 -0.576615 0.536368 0.260835
292 H 8.52654 3.67155 14.7043 -0.294233 -0.547654 0.167824 -0.112968
293 H 14.5007 12.3481 20.9782 1.01312 0.948821 -1.20699 -0.474349
294 H 14.6883 21.1474 18.314 0.333934 -0.0476611 -0.142586 0.301943
295 H 10.7787 21.0888 17.2226 0.083797 -0.331805 -0.112991 0.0620545
296 H 2.90106 11.3265 4.55339 0.72513 0.789458 -0.62682 -0.584476
297 H 0.0176171 13.7435 8.30972 -0.962959 0.944306 0.700058 0.0470932
298 H 10.0719 7.95331 8.34661 -0.103148 0.0105758 1.37531 -0.35686
299 H 9.7213 16.6099 18.8754 -0.397138 1.16153 1.02198 -0.225299
300 H 18.9395 13.4711 12.99 -1.61326 0.953094 0.024135 0.0223831
301 H 1.41027 10.9688 3.17738 0.00596281 1.2168 -0.404094 -0.0415824
302 H 20.4787 6.25123 16.2758 -0.744824 -1.31161 -1.06635 1.6595
303 H 19.6371 4.75258 7.87457 0.712713 0.224402 0.215273 0.315405
304 H 13.6645 6.04942 17.2644 -0.140301 1.24125 -0.347222 0.117294
305 H 18.2255 17.9111 19.4433 -1.75052 0.103684 0.319873 0.648687
306 H 2.1481 18.869 4.22195 -0.46229 -1.12618 -1.15651 0.370289
307 H 15.5051 11.473 12.491 -1.14328 0.838654 0.462819 -0.262771
308 H 18.5774 13.4009 16.2359 -1.00905 0.324385 -0.235739 -0.0416259
309 H 3.38691 9.76596 0.197445 0.511539 -0.267693 1.16458 0.0531604
310 H 11.8803 11.8628 12.769 0.108009 -0.392269 0.0991503 -0.183315
311 H 14.3132 17.0325 5.70906 0.464607 -0.894049 0.666343 0.319563
312 H 10.9619 6.32065 19.9036 0.249602 0.620594 -0.640772 0.529067
313 H 5.48638 9.09098 18.4658 0.981894 1.7704 1.58859 0.531852
314 H 10.219 2.82426 1.70542 0.574028 0.211765 -0.0172414 0.148262
315 H 15.4023 10.5045 9.2432 -0.109692 0.0942286 -0.0427503 0.122272
316 H 2.86392 15.8981 13.9003 0.249358 0.103106 0.425521 -0.142063
317 H 20.2407 1.45906 1.2072 -1.21988 -0.692519 0.910419 0.872133
318 H 5.28008 5.7541 16.0679 -0.120486 0.138868 0.288987 0.151344
319 H 0.71122 1.32566 19.179 -0.0584749 -0.647389 0.556614 0.0414806
320 H 19.0393 0.461755 14.0449 -0.410494 1.15457 0.28421 0.134177
321 H 8.86113 5.5046 15.4632 1.28524 1.00623 0.314586 0.110926
322 H 20.763 5.42784 13.8415 -0.726271 -0.171402 1.08608 0.322943
323 H 4.76742 5.31013 17.9979 0.17735 -2.41444 1.60298 -0.0217245
324 H 15.2938 1.43178 14.9769 0.0620177 -0.92506 0.237943 0.043546
325 H 9.78158 8.71243 13.7738 0.00843416 -0.183418 -0.346339 0.0962876
326 H 18.4203 5.05262 9.54764 0.361028 0.704508 -0.411031 0.355313
327 H 20.8411 16.3348 0.574828 0.675357 -0.749955 1.45159 0.769901
328 H 0.494141 19.2644 9.82031 -0.283233 1.02546 -0.484441 0.0809788
329 H 5.85894 20.81 2.97727 -0.10962 -0.688683 -0.348573 0.8052
330 H 18.6708 17.0032 10.6895 0.171386 1.01724 -0.430621 -0.448773
331 H 3.43265 0.266759 11.8437 1.19315 0.661692 0.340858 -0.0232498
332 H 11.4425 15.0278 6.65124 0.242239 0.699819 0.946112 -0.225953
333 H 9.9693 17.3848 9.71746 -0.607204 -0.0767725 -0.0151713 0.165379
334 H 7.57055 10.4569 17.5247 -0.224137 0.257618 0.501425 0.121877
335 H 2.12936 5.07543 3.00394 0.451827 -0.853621 -0.1177 -0.195902
336 H 7.36199 9.52884 15.8442 0.29992 -0.29805 -0.233301 -0.00272492
337 H 13.7774 13.138 7.4558 -0.239773 0.417301 -0.0952025 -0.859465
338 H 1.47352 3.70027 18.1063 0.928877 0.297492 1.38604 0.88688
339 H 14.6873 10.8471 6.45998 -1.80234 1.97021 -0.690652 -0.154917
340 H 18.293 11.5664 8.04878 1.06475 -0.644346 2.9574 0.418501
341 H 15.6554 19.4253 5.92523 0.305102 0.242742 -1.93305 3.19119
342 H 15.8203 11.3775 3.22522 0.298218 0.120787 0.555562 0.33362
343 H 18.4663 2.38206 14.8891 1.11648 -0.814883 -0.113699 0.165194
344 H 2.43183 1.9859 19.2465 -0.0881177 0.311704 0.263243 0.179257
345 H 10.3184 13.8002 20.112 -0.22633 0.551782 1.14908 0.134412
346 H 0.965868 2.96273 5.85703 -0.350561 -0.318355 -0.181943 0.377965
347 H 20.5564 7.01087 10.1994 -0.910641 -0.449537 -1.23857 1.9691
348 H 4.14917 12.9233 5.93889 0.403021 0.0265722 -0.268214 -0.58356
349 H 16.9817 12.1038 10.8474 -3.50436 4.19112 2.81871 0.137964
350 H 15.341 15.5653 20.9417 0.28602 0.144867 -0.699573 -0.0602697
351 H 2.42241 8.12153 9.65338 -0.367268 -0.415779 -0.0549565 0.406532
352 H 14.5586 4.35085 14.5635 0.440217 -0.117676 -0.732792 0.54385
353 H 19.9257 14.1461 14.3598 -0.171416 -1.00758 1.10324 0.0792286
354 H 2.55086 19.0947 1.40587 -1.22925 -0.0238238 1.13544 0.733958
355 H 6.24268 10.2831 12.2128 0.796145 1.55384 -0.563978 -0.162392
356 H 16.6939 9.44566 16.8927 -1.09841 -0.342751 -1.19229 0.120825
357 H 2.48677 16.9537 4.65533 -0.260951 0.368723 -0.0703345 0.0172473
358 H 5.51654 14.2944 12.8059 -0.0262714 -0.675686 0.838929 -0.191881
359 H 20.3364 8.24093 8.15693 0.680235 -1.62801 -2.13919 0.427432
360 H 7.24576 5.71809 20.4481 -0.69815 -0.331912 -0.251507 0.538574
361 H 9.39539 13.2503 10.3444 0.189239 0.335026 -0.526635 -0.237994
362 H 8.50112 21.0285 18.6263 0.344124 0.261841 0.272245 -0.045731
363 H 6.87119 17.233 19.4821 -0.476334 0.241472 -0.672751 0.948812
364 H 18.5581 19.9747 3.14833 1.00882 -1.08673 0.627784 2.18313
365 H 16.1187 8.1787 10.8179 -1.49056 -0.157779 0.61677 0.662625
366 H 8.62396 17.5092 16.1764 -1.29521 0.501781 -1.17498 -0.540102
367 H 4.45824 20.2584 0.187536 1.18908 1.49447 0.822612 0.371815
368 H 21.1126 14.3207 17.5293 -0.579561 -0.426096 -0.484967 0.426092
369 H 15.6675 3.02253 15.9416 -0.672323 -0.3702 0.790157 0.00728821
370 H 9.75623 8.96705 6.05734 0.385546 0.196595 -0.156885 -0.031523
371 H 1.53012 20.209 11.057 -1.66904 -2.49763 -1.04324 0.0338597
372 H 14.961 1.06272 1.54251 -1.86866 0.965158 -0.532219 0.657414
373 H 6.80243 10.0808 4.78248 -0.0918405 0.227069 0.0817166 0.0613212
374 H 9.50766 12.3961 13.2196 0.184272 -0.383302 0.011113 0.20567
375 H 1.51868 14.4433 5.11896 0.876903 1.70719 -0.62573 -0.0813967
376 H 10.5094 6.01487 2.83164 0.381861 -0.0823572 -0.987905 1.28397
377 H 20.3088 11.6129 1.10071 0.40465 -0.137252 0.781502 1.41928
378 H 2.15591 7.62208 5.72117 0.744314 -0.15907 0.856488 -0.264737
379 H 8.00742 8.51023 8.93712 -0.780978 1.9911 -0.0872829 -0.626213
380 H 16.5715 16.5118 9.6906 -2.44666 0.417122 -0.573417 0.0505974
381 H 8.42128 6.40931 1.39002 -0.576091 -0.469942 0.0691532 1.61845
382 H 16.6136 20.9752 11.5205 -0.532465 1.36321 0.457686 -0.41883
383 H 13.3495 9.47219 2.84108 -1.01471 -0.2669 -0.40548 -0.109278
384 H 3.50705 9.42709 4.42609 -0.217049 0.210469 1.10265 -0.308779
385 H 12.0507 5.49157 9.24627 0.95371 0.329852 -0.63878 0.268851
386 H 15.0408 15.6612 4.75127 -0.943307 0.649281 -0.712965 0.515436
387 H 15.4218 2.01853 9.07078 -0.254201 0.280058 0.251155 0.403225
388 H 0.617195 10.175 14.0162 0.918238 0.457999 -0.00742187 1.49942
389 H 4.082 19.4028 3.9862 0.885381 0.808009 -0.018827 -0.172107
390 H 3.70747 18.3397 5.97689 0.0485186 0.0207201 0.581244 -0.0225615
391 H 20.1105 12.3064 9.23819 -0.858983 0.984138 -0.342833 -0.0690349
392 H 18.0913 4.38146 1.50562 0.76266 0.206484 -0.536151 0.249563
393 H 11.0556 1.15599 20.5891 0.614685 -0.447812 -1.13564 -0.506866
394 H 3.84272 7.84863 19.0839 10.6193 -3.03829 4.6777 0.479209
395 H 20.1478 0.897601 5.61396 -0.371566 1.27124 1.01383 0.0379022
396 H 9.76932 19.4871 14.6967 0.334976 -0.0682364 -0.350423 0.217611
397 H 16.6351 15.5399 8.13246 -0.358455 -0.995182 1.0421 0.599468
398 H 16.5833 6.04628 9.15679 0.454683 -2.59298 0.950063 0.695041
399 H 5.87901 5.84656 9.14096 1.5924 -0.0564756 0.0351394 0.14412
400 H 20.7433 1.42827 10.975 1.30667 -0.440435 0.500521 -0.541757
401 H 3.79512 20.5383 2.39736 0.199214 0.118062 -0.452137 0.180194
402 H 12.907 6.62072 5.73605 0.32729 -0.483236 0.488219 0.259413
403 H 8.63596 0.325736 12.334 -0.832145 -0.699572 0.0136254 0.153147
404 H 17.7691 3.98928 14.2284 -0.280243 0.870884 -0.553253 -0.00892098
405 H 11.8515 7.10728 7.1909 0.368842 0.877413 0.329304 0.301173
406 H 9.71059 15.5037 12.8377 0.859818 -0.552426 -0.656415 -0.265499
407 H 11.0332 1.4485 7.85227 0.221184 -0.129097 0.731729 0.927143
408 H 19.4822 12.3662 11.3904 -2.13699 -0.848368 -2.82862 -0.221822
409 H 19.8105 1.35429 17.4505 -0.0761298 -0.633983 0.228872 -0.274067
410 H 12.0178 8.24273 20.0283 -0.74941 0.290472 0.0572244 1.21776
411 H 2.17021 8.30968 11.7086 0.0361089 0.808971 -0.268124 1.04166
412 H 5.15548 6.97694 4.84967 -1.02906 -0.249527 0.495106 0.193233
413 H 3.79728 1.93113 5.18179 -1.09894 -0.217364 -0.391908 0.799801
414 H 4.95544 4.64548 20.3095 0.424189 0.305347 0.960517 -0.181788
415 H 10.5817 8.7165 18.4192 0.435064 0.0776031 -0.946265 1.03546
416 H 14.5706 5.35892 0.211138 -0.314956 -0.240302 0.395907 0.440267
417 H 4.65727 7.41656 7.88232 -0.0349013 -0.0450421 -0.63435 -0.258464
418 H 14.0004 10.2406 0.112426 0.0398579 0.700094 -0.100087 0.245182
419 H 18.8399 15.8686 19.2169 -0.868823 -0.354419 -0.232495 0.581914
420 H 16.0534 12.635 13.8406 -0.887731 -0.140831 0.313284 -0.200323
421 H 14.7298 8.09953 17.3889 0.00785629 0.355132 1.35161 0.117937
422 H 5.58721 19.8695 13.4649 1.73963 0.309381 0.921796 -0.537653
423 H 17.2431 16.462 16.0986 -0.606514 -0.0871549 -1.05581 0.0850597
424 H 17.068 18.1547 21.1085 -0.10549 0.0131748 0.206148 0.0056807
425 H 0.474503 7.62617 16.5829 -4.13705 -3.41408 -5.55236 2.11163
426 H 0.304293 16.1727 13.1976 2.60337 -1.8438 3.03019 -0.364245
427 H 0.468348 20.9515 6.26709 -0.285964 0.837777 0.414451 0.251623
428 H 12.4188 12.2922 20.9615 -0.0770833 -1.41878 0.469499 -0.463737
429 H 18.6403 18.6813 13.9445 -1.41871 0.975375 -0.377031 -0.430321
430 H 15.603 6.06238 16.9828 0.43435 0.411476 -0.532141 0.192539
431 H 7.09407 1.41798 20.637 -1.12639 -0.139022 -0.580272 -0.265495
432 H 6.33457 4.91953 2.74384 0.0977908 0.33708 -0.213206 0.0237034
433 H 4.45405 17.1179 3.10868 0.0441261 0.112071 0.0892226 -0.0607116
434 H 11.3839 17.7756 20.9355 0.565884 -0.389324 -0.751515 0.857471
435 H 18.7401 7.76036 4.14285 -0.63286 -0.0291505 0.122292 0.15426
436 H 13.3208 10.4258 4.60092 0.118359 -0.056227 0.15877 0.000220923
437 H 19.6167 20.5224 12.0871 0.40368 -0.496342 -0.376356 -0.141566
438 H 1.84117 11.7808 17.8817 -1.19795 1.04436 0.468239 0.277048
439 H 0.0138249 18.4222 16.7703 0.0222814 0.429548 0.421426 0.743661
440 H 0.847599 6.16694 4.3913 0.241271 -0.412592 -0.881409 -0.53442
441 H 18.6463 8.09116 20.9972 1.34521 -1.73778 0.624627 1.75145
442 H 5.52345 7.26562 17.6585 2.68678 1.16329 1.55442 0.218751
443 H 5.21898 9.96491 14.0052 0.756329 0.259349 -0.19325 0.329429
444 H 14.6218 5.74741 4.03306 -0.125762 -0.444675 -0.764294 0.781392
445 H 3.47861 2.46675 11.5674 -0.133231 -1.07793 -0.631196 -0.140127