 vasp.6.3.2 27Jun22 (build May 24 2023 13:00:37) complex                         
 executed on             LinuxGNU date 2025.09.17  15:07:02
 running  128 mpi-ranks, with    1 threads/rank
 distrk:  each k-point on  128 cores,    1 groups
 distr:  one band on NCORE=  32 cores,    4 groups


--------------------------------------------------------------------------------------------------------


 INCAR:
   SYSTEM = Energy-Volume Curve with SCAN
   NCORE = 32
   ISTART = 0
   ISPIN = 1
   ISYM = 1
   PREC = Accurate
   ENCUT = 600
   METAGGA = SCAN
   LASPH = .TRUE.
   LDIAG = .FALSE.
   LMIXTAU = .TRUE.
   EDIFF = 1E-6
   EDIFFG = -0.01
   NSW = 100
   ISIF = 3
   IBRION = 2
   POTIM = 0.5
   ISMEAR = 0
   SIGMA = 0.1
   LORBIT = 0
   ALGO = Normal
   IALGO = 38
   LWAVE = .FALSE.
   LCHARG = .FALSE.

 POTCAR:    PAW_PBE Si_GW 04May2012               
 POTCAR:    PAW_PBE H 15Jun2001                   
 POTCAR:    PAW_PBE Si_GW 04May2012               
   SHA256 =  9ee269d4247e69d62ab9db642b0c3f6e4981ddd1f39659ad08dec53e20e43eb1 Si_GW/POTCAR          
   COPYR  = (c) Copyright 04May2012 Georg Kresse                                                    
   COPYR  = This file is part of the software VASP. Any use, copying, and all other rights are regul
   COPYR  = If you do not have a valid VASP license, you may not use, copy or distribute this file. 
   VRHFIN =Si: s2p2                                                                                 
   LEXCH  = PE                                                                                      
   EATOM  =   103.0669 eV,    7.5752 Ry                                                             
                                                                                                    
   TITEL  = PAW_PBE Si_GW 04May2012                                                                 
   LULTRA =        F    use ultrasoft PP ?                                                          
   IUNSCR =        1    unscreen: 0-lin 1-nonlin 2-no                                               
   RPACOR =    1.500    partial core radius                                                         
   POMASS =   28.085; ZVAL   =    4.000    mass and valenz                                          
   RCORE  =    1.900    outmost cutoff radius                                                       
   RWIGS  =    2.480; RWIGS  =    1.312    wigner-seitz radius (au A)                               
   ENMAX  =  245.345; ENMIN  =  184.009 eV                                                          
   ICORE  =        3    local potential                                                             
   LCOR   =        T    correct aug charges                                                         
   LPAW   =        T    paw PP                                                                      
   EAUG   =  412.952                                                                                
   DEXC   =    0.000                                                                                
   RMAX   =    1.950    core radius for proj-oper                                                   
   RAUG   =    1.300    factor for augmentation sphere                                              
   RDEP   =    1.993    radius for radial grids                                                     
   RDEPT  =    2.000    core radius for aug-charge                                                  
                                                                                                    
   Atomic configuration                                                                             
    7 entries                                                                                       
     n  l   j            E        occ.                                                              
     1  0  0.50     -1785.8828   2.0000                                                             
     2  0  0.50      -139.4969   2.0000                                                             
     2  1  1.50       -95.5546   6.0000                                                             
     3  0  0.50       -10.8127   2.0000                                                             
     3  1  0.50        -4.0811   2.0000                                                             
     3  2  1.50        -4.0817   0.0000                                                             
     4  3  2.50        -4.0817   0.0000                                                             
   Description                                                                                      
     l       E           TYP  RCUT    TYP  RCUT                                                     
     0    -10.8127223     23  1.900                                                                 
     0     95.2407820     23  1.900                                                                 
     1     -4.0811372     23  1.900                                                                 
     1     54.4233040     23  1.900                                                                 
     2     -8.1634956     23  1.900                                                                 
     2     81.6349560     23  1.900                                                                 
     3     27.2116520     23  1.900                                                                 
  local pseudopotential read in
  partial core-charges read in
  partial kinetic energy density read in
  kinetic energy density of atom read in
  atomic valenz-charges read in
  non local Contribution for L=           0  read in
    real space projection operators read in
  non local Contribution for L=           0  read in
    real space projection operators read in
  non local Contribution for L=           1  read in
    real space projection operators read in
  non local Contribution for L=           1  read in
    real space projection operators read in
  non local Contribution for L=           2  read in
    real space projection operators read in
  non local Contribution for L=           2  read in
    real space projection operators read in
    PAW grid and wavefunctions read in

   number of l-projection  operators is LMAX  =           6
   number of lm-projection operators is LMMAX =          18

 POTCAR:    PAW_PBE H 15Jun2001                   
   SHA256 =  030f79b5d3ab3cf0e668861823c8fb652ff669f3e15e46930bd03bfd63a607b6 H/POTCAR              
   COPYR  = (c) Copyright 15Jun2001 Georg Kresse                                                    
   COPYR  = This file is part of the software VASP. Any use, copying, and all other rights are regul
   COPYR  = If you do not have a valid VASP license, you may not use, copy or distribute this file. 
   VRHFIN =H: ultrasoft test                                                                        
   LEXCH  = PE                                                                                      
   EATOM  =    12.4884 eV,    0.9179 Ry                                                             
                                                                                                    
   TITEL  = PAW_PBE H 15Jun2001                                                                     
   LULTRA =        F    use ultrasoft PP ?                                                          
   IUNSCR =        0    unscreen: 0-lin 1-nonlin 2-no                                               
   RPACOR =    0.000    partial core radius                                                         
   POMASS =    1.000; ZVAL   =    1.000    mass and valenz                                          
   RCORE  =    1.100    outmost cutoff radius                                                       
   RWIGS  =    0.700; RWIGS  =    0.370    wigner-seitz radius (au A)                               
   ENMAX  =  250.000; ENMIN  =  200.000 eV                                                          
   RCLOC  =    0.701    cutoff for local pot                                                        
   LCOR   =        T    correct aug charges                                                         
   LPAW   =        T    paw PP                                                                      
   EAUG   =  400.000                                                                                
   RMAX   =    1.123    core radius for proj-oper                                                   
   RAUG   =    1.200    factor for augmentation sphere                                              
   RDEP   =    1.112    radius for radial grids                                                     
   RDEPT  =    0.926    core radius for aug-charge                                                  
                                                                                                    
   Atomic configuration                                                                             
    2 entries                                                                                       
     n  l   j            E        occ.                                                              
     1  0  0.50        -6.4927   1.0000                                                             
     2  1  0.50        -3.4015   0.0000                                                             
   Description                                                                                      
     l       E           TYP  RCUT    TYP  RCUT                                                     
     0     -6.4927494     23  1.100                                                                 
     0      6.8029130     23  1.100                                                                 
     1     -4.0817478     23  1.100                                                                 
  local pseudopotential read in
  atomic valenz-charges read in
  non local Contribution for L=           0  read in
    real space projection operators read in
  non local Contribution for L=           0  read in
    real space projection operators read in
  non local Contribution for L=           1  read in
    real space projection operators read in
    PAW grid and wavefunctions read in

   number of l-projection  operators is LMAX  =           3
   number of lm-projection operators is LMMAX =           5

  PAW_PBE Si_GW 04May2012               :
 energy of atom  1       EATOM= -103.0669
 kinetic energy error for atom=    0.0003 (will be added to EATOM!!)
  PAW_PBE H 15Jun2001                   :
 energy of atom  2       EATOM=  -12.4884
 kinetic energy error for atom=    0.0004 (will be added to EATOM!!)


 POSCAR: Si H
  positions in cartesian coordinates
  No initial velocities read in

 METAGGA = SCAN     LMAXTAU =  6    LMIXTAU =  T

 exchange correlation table for  LEXCH =        8
   RHO(1)=    0.500       N(1)  =     2000
   RHO(2)=  100.500       N(2)  =     4000



--------------------------------------------------------------------------------------------------------


 ion  position               nearest neighbor table
   1  0.500  0.500  0.505-   2 1.48   3 1.48
   2  0.500  0.564  0.467-   1 1.48
   3  0.500  0.436  0.467-   1 1.48

  LATTYP: Found a simple cubic cell.
 ALAT       =    20.0000000000
  
  Lattice vectors:
  
 A1 = (  20.0000000000,   0.0000000000,   0.0000000000)
 A2 = (   0.0000000000,  20.0000000000,   0.0000000000)
 A3 = (   0.0000000000,   0.0000000000,  20.0000000000)


Analysis of symmetry for initial positions (statically):
=====================================================================
 Subroutine PRICEL returns:
 Original cell was already a primitive cell.
 

 Routine SETGRP: Setting up the symmetry group for a 
 simple cubic supercell.


 Subroutine GETGRP returns: Found  4 space group operations
 (whereof  4 operations were pure point group operations)
 out of a pool of 48 trial point group operations.


The static configuration has the point symmetry C_2v.


Analysis of symmetry for dynamics (positions and initial velocities):
=====================================================================
 Subroutine PRICEL returns:
 Original cell was already a primitive cell.
 

 Routine SETGRP: Setting up the symmetry group for a 
 simple cubic supercell.


 Subroutine GETGRP returns: Found  4 space group operations
 (whereof  4 operations were pure point group operations)
 out of a pool of 48 trial point group operations.


The dynamic configuration has the point symmetry C_2v.


 Subroutine INISYM returns: Found  4 space group operations
 (whereof  4 operations are pure point group operations),
 and found     1 'primitive' translations


----------------------------------------------------------------------------------------

                                     Primitive cell                                     

  volume of cell :    8000.0000

  direct lattice vectors                    reciprocal lattice vectors
    20.000000000  0.000000000  0.000000000     0.050000000  0.000000000  0.000000000
     0.000000000 20.000000000  0.000000000     0.000000000  0.050000000  0.000000000
     0.000000000  0.000000000 20.000000000     0.000000000  0.000000000  0.050000000

  length of vectors
    20.000000000 20.000000000 20.000000000     0.050000000  0.050000000  0.050000000

  position of ions in fractional coordinates (direct lattice)
     0.500000000  0.500000000  0.504743450
     0.500000000  0.563593100  0.466795850
     0.500000000  0.436406900  0.466795850

  ion indices of the primitive-cell ions
   primitive index   ion index
                 1           1
                 2           2
                 3           3

----------------------------------------------------------------------------------------



 KPOINTS: Regular 2 x 2 x 2 mesh centered at Gamma

Automatic generation of k-mesh.
 Grid dimensions read from file:
 generate k-points for:    4    4    4

 Generating k-lattice:

  Cartesian coordinates                     Fractional coordinates (reciprocal lattice)
     0.012500000  0.000000000  0.000000000     0.250000000  0.000000000  0.000000000
     0.000000000  0.012500000  0.000000000     0.000000000  0.250000000  0.000000000
     0.000000000  0.000000000  0.012500000     0.000000000  0.000000000  0.250000000

  Length of vectors
     0.012500000  0.012500000  0.012500000

  Shift w.r.t. Gamma in fractional coordinates (k-lattice)
     0.000000000  0.000000000  0.000000000

 
 Subroutine IBZKPT returns following result:
 ===========================================
 
 Found     27 irreducible k-points:
 
 Following reciprocal coordinates:
            Coordinates               Weight
  0.000000  0.000000  0.000000      1.000000
  0.250000  0.000000  0.000000      2.000000
  0.000000  0.250000  0.000000      2.000000
  0.000000  0.000000  0.250000      2.000000
  0.500000  0.000000  0.000000      1.000000
  0.000000  0.500000  0.000000      1.000000
  0.000000  0.000000  0.500000      1.000000
  0.250000  0.250000  0.000000      4.000000
  0.000000  0.250000  0.250000      4.000000
  0.250000  0.000000  0.250000      4.000000
  0.500000  0.250000  0.000000      2.000000
  0.000000  0.500000  0.250000      2.000000
  0.250000  0.000000  0.500000      2.000000
 -0.250000  0.500000  0.000000      2.000000
  0.500000  0.000000  0.250000      2.000000
  0.000000  0.250000  0.500000      2.000000
  0.500000  0.500000  0.000000      1.000000
  0.000000  0.500000  0.500000      1.000000
  0.500000  0.000000  0.500000      1.000000
  0.250000  0.250000  0.250000      8.000000
  0.500000  0.250000  0.250000      4.000000
  0.250000  0.500000  0.250000      4.000000
  0.250000  0.250000  0.500000      4.000000
  0.500000  0.500000  0.250000      2.000000
  0.250000  0.500000  0.500000      2.000000
  0.500000  0.250000  0.500000      2.000000
  0.500000  0.500000  0.500000      1.000000
 
 Following cartesian coordinates:
            Coordinates               Weight
  0.000000  0.000000  0.000000      1.000000
  0.012500  0.000000  0.000000      2.000000
  0.000000  0.012500  0.000000      2.000000
  0.000000  0.000000  0.012500      2.000000
  0.025000  0.000000  0.000000      1.000000
  0.000000  0.025000  0.000000      1.000000
  0.000000  0.000000  0.025000      1.000000
  0.012500  0.012500  0.000000      4.000000
  0.000000  0.012500  0.012500      4.000000
  0.012500  0.000000  0.012500      4.000000
  0.025000  0.012500  0.000000      2.000000
  0.000000  0.025000  0.012500      2.000000
  0.012500  0.000000  0.025000      2.000000
 -0.012500  0.025000  0.000000      2.000000
  0.025000  0.000000  0.012500      2.000000
  0.000000  0.012500  0.025000      2.000000
  0.025000  0.025000  0.000000      1.000000
  0.000000  0.025000  0.025000      1.000000
  0.025000  0.000000  0.025000      1.000000
  0.012500  0.012500  0.012500      8.000000
  0.025000  0.012500  0.012500      4.000000
  0.012500  0.025000  0.012500      4.000000
  0.012500  0.012500  0.025000      4.000000
  0.025000  0.025000  0.012500      2.000000
  0.012500  0.025000  0.025000      2.000000
  0.025000  0.012500  0.025000      2.000000
  0.025000  0.025000  0.025000      1.000000
 


--------------------------------------------------------------------------------------------------------




 Dimension of arrays:
   k-points           NKPTS =     27   k-points in BZ     NKDIM =     27   number of bands    NBANDS=      8
   number of dos      NEDOS =    301   number of ions     NIONS =      3
   non local maximal  LDIM  =      6   non local SUM 2l+1 LMDIM =     18
   total plane-waves  NPLWV = ******
   max r-space proj   IRMAX =      1   max aug-charges    IRDMAX=  25329
   dimension x,y,z NGX =   160 NGY =  160 NGZ =  160
   dimension x,y,z NGXF=   320 NGYF=  320 NGZF=  320
   support grid    NGXF=   320 NGYF=  320 NGZF=  320
   ions per type =               1   2
   NGX,Y,Z   is equivalent  to a cutoff of  13.30, 13.30, 13.30 a.u.
   NGXF,Y,Z  is equivalent  to a cutoff of  26.60, 26.60, 26.60 a.u.

 SYSTEM =  Energy-Volume Curve with SCAN           
 POSCAR =  Si H                                    

 Startparameter for this run:
   NWRITE =      2    write-flag & timer
   PREC   = accura    normal or accurate (medium, high low for compatibility)
   ISTART =      0    job   : 0-new  1-cont  2-samecut
   ICHARG =      2    charge: 1-file 2-atom 10-const
   ISPIN  =      1    spin polarized calculation?
   LNONCOLLINEAR =      F non collinear calculations
   LSORBIT =      F    spin-orbit coupling
   INIWAV =      1    electr: 0-lowe 1-rand  2-diag
   LASPH  =      T    aspherical Exc in radial PAW
 Electronic Relaxation 1
   ENCUT  =  600.0 eV  44.10 Ry    6.64 a.u.  39.94 39.94 39.94*2*pi/ulx,y,z
   ENINI  =  600.0     initial cutoff
   ENAUG  =  413.0 eV  augmentation charge cutoff
   NELM   =     60;   NELMIN=  2; NELMDL= -5     # of ELM steps 
   EDIFF  = 0.1E-05   stopping-criterion for ELM
   LREAL  =      F    real-space projection
   NLSPLINE    = F    spline interpolate recip. space projectors
   LCOMPAT=      F    compatible to vasp.4.4
   GGA_COMPAT  = T    GGA compatible to vasp.4.4-vasp.4.6
   LMAXPAW     = -100 max onsite density
   LMAXMIX     =    2 max onsite mixed and CHGCAR
   VOSKOWN=      0    Vosko Wilk Nusair interpolation
   ROPT   =    0.00000   0.00000
 Ionic relaxation
   EDIFFG = -.1E-01   stopping-criterion for IOM
   NSW    =    100    number of steps for IOM
   NBLOCK =      1;   KBLOCK =    100    inner block; outer block 
   IBRION =      2    ionic relax: 0-MD 1-quasi-New 2-CG
   NFREE  =      1    steps in history (QN), initial steepest desc. (CG)
   ISIF   =      3    stress and relaxation
   IWAVPR =     11    prediction:  0-non 1-charg 2-wave 3-comb
   ISYM   =      1    0-nonsym 1-usesym 2-fastsym
   LCORR  =      T    Harris-Foulkes like correction to forces

   POTIM  = 0.5000    time-step for ionic-motion
   TEIN   =    0.0    initial temperature
   TEBEG  =    0.0;   TEEND  =   0.0 temperature during run
   SMASS  =  -3.00    Nose mass-parameter (am)
   estimated Nose-frequenzy (Omega)   =  0.10E-29 period in steps = 0.13E+47 mass=  -0.914E-26a.u.
   SCALEE = 1.0000    scale energy and forces
   NPACO  =    256;   APACO  = 10.0  distance and # of slots for P.C.
   PSTRESS=    0.0 pullay stress

  Mass of Ions in am
   POMASS =  28.09  1.00
  Ionic Valenz
   ZVAL   =   4.00  1.00
  Atomic Wigner-Seitz radii
   RWIGS  =  -1.00 -1.00
  virtual crystal weights 
   VCA    =   1.00  1.00
   NELECT =       6.0000    total number of electrons
   NUPDOWN=      -1.0000    fix difference up-down

 DOS related values:
   EMIN   =  10.00;   EMAX   =-10.00  energy-range for DOS
   EFERMI =   0.00
   ISMEAR =     0;   SIGMA  =   0.10  broadening in eV -4-tet -1-fermi 0-gaus

 Electronic relaxation 2 (details)
   IALGO  =     38    algorithm
   LDIAG  =      F    sub-space diagonalisation (order eigenvalues)
   LSUBROT=      F    optimize rotation matrix (better conditioning)
   TURBO    =      0    0=normal 1=particle mesh
   IRESTART =      0    0=no restart 2=restart with 2 vectors
   NREBOOT  =      0    no. of reboots
   NMIN     =      0    reboot dimension
   EREF     =   0.00    reference energy to select bands
   IMIX   =      4    mixing-type and parameters
     AMIX     =   0.40;   BMIX     =  1.00
     AMIX_MAG =   1.60;   BMIX_MAG =  1.00
     AMIN     =   0.10
     WC   =   100.;   INIMIX=   1;  MIXPRE=   1;  MAXMIX= -45

 Intra band minimization:
   WEIMIN = 0.0010     energy-eigenvalue tresh-hold
   EBREAK =  0.31E-07  absolut break condition
   DEPER  =   0.30     relativ break condition  

   TIME   =   0.40     timestep for ELM

  volume/ion in A,a.u.               =    2666.67     17995.55
  Fermi-wavevector in a.u.,A,eV,Ry     =   0.148740  0.281078  0.301011  0.022124
  Thomas-Fermi vector in A             =   0.822372

 Write flags
   LWAVE        =      F    write WAVECAR
   LDOWNSAMPLE  =      F    k-point downsampling of WAVECAR
   LCHARG       =      F    write CHGCAR
   LVTOT        =      F    write LOCPOT, total local potential
   LVHAR        =      F    write LOCPOT, Hartree potential only
   LELF         =      F    write electronic localiz. function (ELF)
   LORBIT       =      0    0 simple, 1 ext, 2 COOP (PROOUT), +10 PAW based schemes


 Dipole corrections
   LMONO  =      F    monopole corrections only (constant potential shift)
   LDIPOL =      F    correct potential (dipole corrections)
   IDIPOL =      0    1-x, 2-y, 3-z, 4-all directions 
   EPSILON=  1.0000000 bulk dielectric constant

 Exchange correlation treatment:
   GGA     =    --    GGA type
   LEXCH   =     8    internal setting for exchange type
   LIBXC   =     F    Libxc                    
   VOSKOWN =     0    Vosko Wilk Nusair interpolation
   LHFCALC =     F    Hartree Fock is set to
   LHFONE  =     F    Hartree Fock one center treatment
   AEXX    =    0.0000 exact exchange contribution

 Linear response parameters
   LEPSILON=     F    determine dielectric tensor
   LRPA    =     F    only Hartree local field effects (RPA)
   LNABLA  =     F    use nabla operator in PAW spheres
   LVEL    =     F    velocity operator in full k-point grid
   CSHIFT  =0.1000    complex shift for real part using Kramers Kronig
   OMEGAMAX=  -1.0    maximum frequency
   DEG_THRESHOLD= 0.2000000E-02 threshold for treating states as degnerate
   RTIME   =   -0.100 relaxation time in fs
  (WPLASMAI=    0.000 imaginary part of plasma frequency in eV, 0.658/RTIME)
   DFIELD  = 0.0000000 0.0000000 0.0000000 field for delta impulse in time

  Optional k-point grid parameters
   LKPOINTS_OPT  =     F    use optional k-point grid
   KPOINTS_OPT_MODE=     1    mode for optional k-point grid

 Orbital magnetization related:
   ORBITALMAG=     F  switch on orbital magnetization
   LCHIMAG   =     F  perturbation theory with respect to B field
   DQ        =  0.001000  dq finite difference perturbation B field
   LLRAUG    =     F  two centre corrections for induced B field



--------------------------------------------------------------------------------------------------------


 conjugate gradient relaxation of ions
 charge density and potential will be updated during run
 non-spin polarized calculation
 Variant of blocked Davidson
 perform Loewdin sub-space diagonalisation
    ordering is kept fixed
    before iterative eigenvector-optimisation
 modified Broyden-mixing scheme, WC =      100.0
 initial mixing is a Kerker type mixing with AMIX =  0.4000 and BMIX =      1.0000
 Hartree-type preconditioning will be used
 using additional bands            5
 reciprocal scheme for non local part
 use partial core corrections
 calculate Harris-corrections to forces   (improved forces if not selfconsistent)
 use gradient corrections 
 use of overlap-Matrix (Vanderbilt PP)
 Gauss-broadening in eV      SIGMA  =   0.10


--------------------------------------------------------------------------------------------------------


  energy-cutoff  :      600.00
  volume of cell :     8000.00
      direct lattice vectors                 reciprocal lattice vectors
    20.000000000  0.000000000  0.000000000     0.050000000  0.000000000  0.000000000
     0.000000000 20.000000000  0.000000000     0.000000000  0.050000000  0.000000000
     0.000000000  0.000000000 20.000000000     0.000000000  0.000000000  0.050000000

  length of vectors
    20.000000000 20.000000000 20.000000000     0.050000000  0.050000000  0.050000000



 k-points in units of 2pi/SCALE and weight: Regular 2 x 2 x 2 mesh centered at Gamma
   0.00000000  0.00000000  0.00000000       0.016
   0.01250000  0.00000000  0.00000000       0.031
   0.00000000  0.01250000  0.00000000       0.031
   0.00000000  0.00000000  0.01250000       0.031
   0.02500000  0.00000000  0.00000000       0.016
   0.00000000  0.02500000  0.00000000       0.016
   0.00000000  0.00000000  0.02500000       0.016
   0.01250000  0.01250000  0.00000000       0.062
   0.00000000  0.01250000  0.01250000       0.062
   0.01250000  0.00000000  0.01250000       0.062
   0.02500000  0.01250000  0.00000000       0.031
   0.00000000  0.02500000  0.01250000       0.031
   0.01250000  0.00000000  0.02500000       0.031
  -0.01250000  0.02500000  0.00000000       0.031
   0.02500000  0.00000000  0.01250000       0.031
   0.00000000  0.01250000  0.02500000       0.031
   0.02500000  0.02500000  0.00000000       0.016
   0.00000000  0.02500000  0.02500000       0.016
   0.02500000  0.00000000  0.02500000       0.016
   0.01250000  0.01250000  0.01250000       0.125
   0.02500000  0.01250000  0.01250000       0.062
   0.01250000  0.02500000  0.01250000       0.062
   0.01250000  0.01250000  0.02500000       0.062
   0.02500000  0.02500000  0.01250000       0.031
   0.01250000  0.02500000  0.02500000       0.031
   0.02500000  0.01250000  0.02500000       0.031
   0.02500000  0.02500000  0.02500000       0.016

 k-points in reciprocal lattice and weights: Regular 2 x 2 x 2 mesh centered at Gamma
   0.00000000  0.00000000  0.00000000       0.016
   0.25000000  0.00000000  0.00000000       0.031
   0.00000000  0.25000000  0.00000000       0.031
   0.00000000  0.00000000  0.25000000       0.031
   0.50000000  0.00000000  0.00000000       0.016
   0.00000000  0.50000000  0.00000000       0.016
   0.00000000  0.00000000  0.50000000       0.016
   0.25000000  0.25000000  0.00000000       0.062
   0.00000000  0.25000000  0.25000000       0.062
   0.25000000  0.00000000  0.25000000       0.062
   0.50000000  0.25000000  0.00000000       0.031
   0.00000000  0.50000000  0.25000000       0.031
   0.25000000  0.00000000  0.50000000       0.031
  -0.25000000  0.50000000  0.00000000       0.031
   0.50000000  0.00000000  0.25000000       0.031
   0.00000000  0.25000000  0.50000000       0.031
   0.50000000  0.50000000  0.00000000       0.016
   0.00000000  0.50000000  0.50000000       0.016
   0.50000000  0.00000000  0.50000000       0.016
   0.25000000  0.25000000  0.25000000       0.125
   0.50000000  0.25000000  0.25000000       0.062
   0.25000000  0.50000000  0.25000000       0.062
   0.25000000  0.25000000  0.50000000       0.062
   0.50000000  0.50000000  0.25000000       0.031
   0.25000000  0.50000000  0.50000000       0.031
   0.50000000  0.25000000  0.50000000       0.031
   0.50000000  0.50000000  0.50000000       0.016

 position of ions in fractional coordinates (direct lattice) 
   0.50000000  0.50000000  0.50474345
   0.50000000  0.56359310  0.46679585
   0.50000000  0.43640690  0.46679585

 position of ions in cartesian coordinates  (Angst):
  10.00000000 10.00000000 10.09486900
  10.00000000 11.27186200  9.33591700
  10.00000000  8.72813800  9.33591700



--------------------------------------------------------------------------------------------------------


 k-point   1 :   0.0000 0.0000 0.0000  plane waves:  267179
 k-point   2 :   0.2500 0.0000 0.0000  plane waves:  267112
 k-point   3 :   0.0000 0.2500 0.0000  plane waves:  267112
 k-point   4 :   0.0000 0.0000 0.2500  plane waves:  267112
 k-point   5 :   0.5000 0.0000 0.0000  plane waves:  266904
 k-point   6 :   0.0000 0.5000 0.0000  plane waves:  266904
 k-point   7 :   0.0000 0.0000 0.5000  plane waves:  266904
 k-point   8 :   0.2500 0.2500 0.0000  plane waves:  266962
 k-point   9 :   0.0000 0.2500 0.2500  plane waves:  266962
 k-point  10 :   0.2500 0.0000 0.2500  plane waves:  266962
 k-point  11 :   0.5000 0.2500 0.0000  plane waves:  266880
 k-point  12 :   0.0000 0.5000 0.2500  plane waves:  266880
 k-point  13 :   0.2500 0.0000 0.5000  plane waves:  266880
 k-point  14 :  -0.2500 0.5000 0.0000  plane waves:  266880
 k-point  15 :   0.5000 0.0000 0.2500  plane waves:  266880
 k-point  16 :   0.0000 0.2500 0.5000  plane waves:  266880
 k-point  17 :   0.5000 0.5000 0.0000  plane waves:  266880
 k-point  18 :   0.0000 0.5000 0.5000  plane waves:  266880
 k-point  19 :   0.5000 0.0000 0.5000  plane waves:  266880
 k-point  20 :   0.2500 0.2500 0.2500  plane waves:  266917
 k-point  21 :   0.5000 0.2500 0.2500  plane waves:  266994
 k-point  22 :   0.2500 0.5000 0.2500  plane waves:  266994
 k-point  23 :   0.2500 0.2500 0.5000  plane waves:  266994
 k-point  24 :   0.5000 0.5000 0.2500  plane waves:  267192
 k-point  25 :   0.2500 0.5000 0.5000  plane waves:  267192
 k-point  26 :   0.5000 0.2500 0.5000  plane waves:  267192
 k-point  27 :   0.5000 0.5000 0.5000  plane waves:  267280

 maximum and minimum number of plane-waves per node :      8430     8284

 maximum number of plane-waves:    267280
 maximum index in each direction: 
   IXMAX=   40   IYMAX=   39   IZMAX=   39
   IXMIN=  -40   IYMIN=  -40   IZMIN=  -40


 parallel 3D FFT for wavefunctions:
    minimum data exchange during FFTs selected (reduces bandwidth)
 parallel 3D FFT for charge:
    minimum data exchange during FFTs selected (reduces bandwidth)


 total amount of memory used by VASP MPI-rank0   145521. kBytes
=======================================================================

   base      :      30000. kBytes
   nonl-proj :      65408. kBytes
   fftplans  :      13878. kBytes
   grid      :      28980. kBytes
   one-center:         15. kBytes
   wavefun   :       7240. kBytes

     INWAV:  cpu time      0.0000: real time      0.0001
 Broyden mixing: mesh for mixing (old mesh)
   NGX = 79   NGY = 79   NGZ = 79
  (NGX  =320   NGY  =320   NGZ  =320)
  gives a total of 493039 points

 initial charge density was supplied:
 charge density of overlapping atoms calculated
 number of electron       6.0000000 magnetization 
 keeping initial charge density in first step


--------------------------------------------------------------------------------------------------------


 Maximum index for augmentation-charges            0 (set IRDMAX)


--------------------------------------------------------------------------------------------------------


 First call to EWALD:  gamma=   0.089
 Maximum number of real-space cells 3x 3x 3
 Maximum number of reciprocal cells 3x 3x 3

    FEWALD:  cpu time      0.0014: real time      0.0014


--------------------------------------- Iteration      1(   1)  ---------------------------------------


    POTLOK:  cpu time      1.3404: real time      1.4214
    SETDIJ:  cpu time      0.6169: real time      0.6204
    EDDIAG:  cpu time      2.6709: real time      2.8737
     EDDAV:  cpu time     13.4602: real time     14.4943
       DOS:  cpu time      0.0007: real time      0.0007
    --------------------------------------------
      LOOP:  cpu time     18.0892: real time     19.4105

 eigenvalue-minimisations  :   600
 total energy-change (2. order) : 0.1791997E+02  (-0.6052440E+02)
 number of electron       6.0000000 magnetization 
 augmentation part        6.0000000 magnetization 

 Free energy of the ion-electron system (eV)
  ---------------------------------------------------
  alpha Z        PSCENC =         0.01507812
  Ewald energy   TEWEN  =        46.76039481
  -Hartree energ DENC   =      -131.92121077
  -exchange      EXHF   =         0.00000000
  -V(xc)+E(xc)   XCENC  =        -1.22131810
  PAW double counting   =        87.47738686      -77.18212827
  entropy T*S    EENTRO =        -0.02361212
  eigenvalues    EBANDS =       -34.02715754
  atomic energy  EATOM  =       128.04253641
  Solvation  Ediel_sol  =         0.00000000
  ---------------------------------------------------
  free energy    TOTEN  =        17.91996941 eV

  energy without entropy =       17.94358153  energy(sigma->0) =       17.93177547


--------------------------------------------------------------------------------------------------------




--------------------------------------- Iteration      1(   2)  ---------------------------------------


    EDDIAG:  cpu time      2.6947: real time      2.9063
     EDDAV:  cpu time     13.6045: real time     14.6416
       DOS:  cpu time      0.0006: real time      0.0006
    --------------------------------------------
      LOOP:  cpu time     16.2998: real time     17.5485

 eigenvalue-minimisations  :   608
 total energy-change (2. order) :-0.2742130E+02  (-0.2619244E+02)
 number of electron       6.0000000 magnetization 
 augmentation part        6.0000000 magnetization 

 Free energy of the ion-electron system (eV)
  ---------------------------------------------------
  alpha Z        PSCENC =         0.01507812
  Ewald energy   TEWEN  =        46.76039481
  -Hartree energ DENC   =      -131.92121077
  -exchange      EXHF   =         0.00000000
  -V(xc)+E(xc)   XCENC  =        -1.22131810
  PAW double counting   =        87.47738686      -77.18212827
  entropy T*S    EENTRO =        -0.00485610
  eigenvalues    EBANDS =       -61.46721403
  atomic energy  EATOM  =       128.04253641
  Solvation  Ediel_sol  =         0.00000000
  ---------------------------------------------------
  free energy    TOTEN  =        -9.50133107 eV

  energy without entropy =       -9.49647496  energy(sigma->0) =       -9.49890301


--------------------------------------------------------------------------------------------------------




--------------------------------------- Iteration      1(   3)  ---------------------------------------


    EDDIAG:  cpu time      2.6712: real time      2.8798
     EDDAV:  cpu time     12.7688: real time     13.6985
       DOS:  cpu time      0.0003: real time      0.0003
    --------------------------------------------
      LOOP:  cpu time     15.4403: real time     16.5787

 eigenvalue-minimisations  :   520
 total energy-change (2. order) :-0.5454243E+01  (-0.5229006E+01)
 number of electron       6.0000000 magnetization 
 augmentation part        6.0000000 magnetization 

 Free energy of the ion-electron system (eV)
  ---------------------------------------------------
  alpha Z        PSCENC =         0.01507812
  Ewald energy   TEWEN  =        46.76039481
  -Hartree energ DENC   =      -131.92121077
  -exchange      EXHF   =         0.00000000
  -V(xc)+E(xc)   XCENC  =        -1.22131810
  PAW double counting   =        87.47738686      -77.18212827
  entropy T*S    EENTRO =        -0.00000000
  eigenvalues    EBANDS =       -66.92631352
  atomic energy  EATOM  =       128.04253641
  Solvation  Ediel_sol  =         0.00000000
  ---------------------------------------------------
  free energy    TOTEN  =       -14.95557445 eV

  energy without entropy =      -14.95557445  energy(sigma->0) =      -14.95557445


--------------------------------------------------------------------------------------------------------




--------------------------------------- Iteration      1(   4)  ---------------------------------------


    EDDIAG:  cpu time      2.6952: real time      2.9184
     EDDAV:  cpu time     16.9760: real time     18.2739
       DOS:  cpu time      0.0003: real time      0.0003
    --------------------------------------------
      LOOP:  cpu time     19.6716: real time     21.1926

 eigenvalue-minimisations  :   848
 total energy-change (2. order) :-0.2702292E+00  (-0.2702292E+00)
 number of electron       6.0000000 magnetization 
 augmentation part        6.0000000 magnetization 

 Free energy of the ion-electron system (eV)
  ---------------------------------------------------
  alpha Z        PSCENC =         0.01507812
  Ewald energy   TEWEN  =        46.76039481
  -Hartree energ DENC   =      -131.92121077
  -exchange      EXHF   =         0.00000000
  -V(xc)+E(xc)   XCENC  =        -1.22131810
  PAW double counting   =        87.47738686      -77.18212827
  entropy T*S    EENTRO =        -0.00000000
  eigenvalues    EBANDS =       -67.19654270
  atomic energy  EATOM  =       128.04253641
  Solvation  Ediel_sol  =         0.00000000
  ---------------------------------------------------
  free energy    TOTEN  =       -15.22580363 eV

  energy without entropy =      -15.22580363  energy(sigma->0) =      -15.22580363


--------------------------------------------------------------------------------------------------------




--------------------------------------- Iteration      1(   5)  ---------------------------------------


    EDDIAG:  cpu time      2.6316: real time      2.8387
     EDDAV:  cpu time     15.5663: real time     16.7613
       DOS:  cpu time      0.0003: real time      0.0003
    CHARGE:  cpu time     10.5493: real time     10.7703
    MIXING:  cpu time      0.0180: real time      0.0189
    --------------------------------------------
      LOOP:  cpu time     28.7656: real time     30.3895

 eigenvalue-minimisations  :   712
 total energy-change (2. order) :-0.9770612E-03  (-0.9770616E-03)
 number of electron       6.0000000 magnetization 
 augmentation part       -0.2124993 magnetization 

 Broyden mixing:
  rms(total) = 0.54931E+00    rms(broyden)= 0.54929E+00
  rms(prec ) = 0.60070E+00
  weight for this iteration     100.00

 Free energy of the ion-electron system (eV)
  ---------------------------------------------------
  alpha Z        PSCENC =         0.01507812
  Ewald energy   TEWEN  =        46.76039481
  -Hartree energ DENC   =      -131.92121077
  -exchange      EXHF   =         0.00000000
  -V(xc)+E(xc)   XCENC  =        -1.22131810
  PAW double counting   =        87.47738686      -77.18212827
  entropy T*S    EENTRO =        -0.00000000
  eigenvalues    EBANDS =       -67.19751976
  atomic energy  EATOM  =       128.04253641
  Solvation  Ediel_sol  =         0.00000000
  ---------------------------------------------------
  free energy    TOTEN  =       -15.22678069 eV

  energy without entropy =      -15.22678069  energy(sigma->0) =      -15.22678069


--------------------------------------------------------------------------------------------------------




--------------------------------------- Iteration      1(   6)  ---------------------------------------


    POTLOK:  cpu time      1.3203: real time      1.3839
    SETDIJ:  cpu time      0.6206: real time      0.6238
    EDDIAG:  cpu time      2.6584: real time      2.8791
     EDDAV:  cpu time     11.8035: real time     12.6748
       DOS:  cpu time      0.0005: real time      0.0006
    CHARGE:  cpu time     11.2493: real time     11.4746
    MIXING:  cpu time      0.0187: real time      0.0193
    --------------------------------------------
      LOOP:  cpu time     27.6714: real time     29.0562

 eigenvalue-minimisations  :   440
 total energy-change (2. order) : 0.1393054E+01  (-0.4027591E-01)
 number of electron       6.0000000 magnetization 
 augmentation part       -0.2132801 magnetization 

 Broyden mixing:
  rms(total) = 0.30169E+00    rms(broyden)= 0.30169E+00
  rms(prec ) = 0.33268E+00
  weight for this iteration     100.00

 eigenvalues of (default mixing * dielectric matrix)
  average eigenvalue GAMMA=   2.1335
  2.1335

 Free energy of the ion-electron system (eV)
  ---------------------------------------------------
  alpha Z        PSCENC =         0.01507812
  Ewald energy   TEWEN  =        46.76039481
  -Hartree energ DENC   =      -135.63289939
  -exchange      EXHF   =         0.00000000
  -V(xc)+E(xc)   XCENC  =        -0.53522474
  PAW double counting   =       103.48665145      -93.22706978
  entropy T*S    EENTRO =        -0.00000000
  eigenvalues    EBANDS =       -62.74319380
  atomic energy  EATOM  =       128.04253641
  Solvation  Ediel_sol  =         0.00000000
  ---------------------------------------------------
  free energy    TOTEN  =       -13.83372693 eV

  energy without entropy =      -13.83372693  energy(sigma->0) =      -13.83372693


--------------------------------------------------------------------------------------------------------




--------------------------------------- Iteration      1(   7)  ---------------------------------------


    POTLOK:  cpu time      1.3430: real time      1.4163
    SETDIJ:  cpu time      0.6210: real time      0.6243
    EDDIAG:  cpu time      2.6553: real time      2.8631
     EDDAV:  cpu time     17.3227: real time     18.6410
       DOS:  cpu time      0.0004: real time      0.0004
    CHARGE:  cpu time     11.2615: real time     11.4870
    MIXING:  cpu time      0.0177: real time      0.0185
    --------------------------------------------
      LOOP:  cpu time     33.2216: real time     35.0506

 eigenvalue-minimisations  :   864
 total energy-change (2. order) : 0.3405618E+00  (-0.4049101E-01)
 number of electron       6.0000000 magnetization 
 augmentation part       -0.2161246 magnetization 

 Broyden mixing:
  rms(total) = 0.48699E-01    rms(broyden)= 0.48692E-01
  rms(prec ) = 0.58932E-01
  weight for this iteration     100.00

 eigenvalues of (default mixing * dielectric matrix)
  average eigenvalue GAMMA=   1.9796
  1.5600  2.3992

 Free energy of the ion-electron system (eV)
  ---------------------------------------------------
  alpha Z        PSCENC =         0.01507812
  Ewald energy   TEWEN  =        46.76039481
  -Hartree energ DENC   =      -141.34854456
  -exchange      EXHF   =         0.00000000
  -V(xc)+E(xc)   XCENC  =         0.26195789
  PAW double counting   =       129.90021893     -119.70392135
  entropy T*S    EENTRO =        -0.00000000
  eigenvalues    EBANDS =       -57.42088533
  atomic energy  EATOM  =       128.04253641
  Solvation  Ediel_sol  =         0.00000000
  ---------------------------------------------------
  free energy    TOTEN  =       -13.49316508 eV

  energy without entropy =      -13.49316508  energy(sigma->0) =      -13.49316508


--------------------------------------------------------------------------------------------------------




--------------------------------------- Iteration      1(   8)  ---------------------------------------


    POTLOK:  cpu time      1.3264: real time      1.3894
    SETDIJ:  cpu time      0.6213: real time      0.6246
    EDDIAG:  cpu time      2.6634: real time      2.8769
     EDDAV:  cpu time     16.1603: real time     17.3972
       DOS:  cpu time      0.0005: real time      0.0005
    CHARGE:  cpu time     10.8686: real time     11.0849
    MIXING:  cpu time      0.0163: real time      0.0171
    --------------------------------------------
      LOOP:  cpu time     31.6569: real time     33.3906

 eigenvalue-minimisations  :   784
 total energy-change (2. order) :-0.1513185E-01  (-0.3399648E-02)
 number of electron       6.0000000 magnetization 
 augmentation part       -0.2150226 magnetization 

 Broyden mixing:
  rms(total) = 0.20797E-01    rms(broyden)= 0.20796E-01
  rms(prec ) = 0.26992E-01
  weight for this iteration     100.00

 eigenvalues of (default mixing * dielectric matrix)
  average eigenvalue GAMMA=   1.9648
  1.0971  2.3987  2.3987

 Free energy of the ion-electron system (eV)
  ---------------------------------------------------
  alpha Z        PSCENC =         0.01507812
  Ewald energy   TEWEN  =        46.76039481
  -Hartree energ DENC   =      -142.69257882
  -exchange      EXHF   =         0.00000000
  -V(xc)+E(xc)   XCENC  =         0.38963825
  PAW double counting   =       134.21208073     -124.02575273
  entropy T*S    EENTRO =        -0.00000000
  eigenvalues    EBANDS =       -56.20969371
  atomic energy  EATOM  =       128.04253641
  Solvation  Ediel_sol  =         0.00000000
  ---------------------------------------------------
  free energy    TOTEN  =       -13.50829693 eV

  energy without entropy =      -13.50829693  energy(sigma->0) =      -13.50829693


--------------------------------------------------------------------------------------------------------




--------------------------------------- Iteration      1(   9)  ---------------------------------------


    POTLOK:  cpu time      1.6703: real time      1.7327
    SETDIJ:  cpu time      0.6234: real time      0.6266
    EDDIAG:  cpu time      2.6645: real time      2.8719
     EDDAV:  cpu time     12.4319: real time     13.3761
       DOS:  cpu time      0.0005: real time      0.0005
    CHARGE:  cpu time     10.8785: real time     11.0966
    MIXING:  cpu time      0.0206: real time      0.0214
    --------------------------------------------
      LOOP:  cpu time     28.2897: real time     29.7258

 eigenvalue-minimisations  :   520
 total energy-change (2. order) :-0.1288086E-01  (-0.8671338E-03)
 number of electron       6.0000000 magnetization 
 augmentation part       -0.2144145 magnetization 

 Broyden mixing:
  rms(total) = 0.82557E-02    rms(broyden)= 0.82556E-02
  rms(prec ) = 0.13426E-01
  weight for this iteration     100.00

 eigenvalues of (default mixing * dielectric matrix)
  average eigenvalue GAMMA=   2.1403
  0.9935  3.0504  1.9292  2.5882

 Free energy of the ion-electron system (eV)
  ---------------------------------------------------
  alpha Z        PSCENC =         0.01507812
  Ewald energy   TEWEN  =        46.76039481
  -Hartree energ DENC   =      -143.05855097
  -exchange      EXHF   =         0.00000000
  -V(xc)+E(xc)   XCENC  =         0.41080396
  PAW double counting   =       133.20123291     -123.01151626
  entropy T*S    EENTRO =        -0.00000000
  eigenvalues    EBANDS =       -55.88115679
  atomic energy  EATOM  =       128.04253641
  Solvation  Ediel_sol  =         0.00000000
  ---------------------------------------------------
  free energy    TOTEN  =       -13.52117780 eV

  energy without entropy =      -13.52117780  energy(sigma->0) =      -13.52117780


--------------------------------------------------------------------------------------------------------




--------------------------------------- Iteration      1(  10)  ---------------------------------------


    POTLOK:  cpu time      1.3289: real time      1.3877
    SETDIJ:  cpu time      0.6209: real time      0.6242
    EDDIAG:  cpu time      2.8020: real time      3.0015
     EDDAV:  cpu time     15.5937: real time     16.7599
       DOS:  cpu time      0.0004: real time      0.0004
    CHARGE:  cpu time     10.9057: real time     11.1312
    MIXING:  cpu time      0.0191: real time      0.0198
    --------------------------------------------
      LOOP:  cpu time     31.2707: real time     32.9247

 eigenvalue-minimisations  :   736
 total energy-change (2. order) :-0.1039342E-01  (-0.7650040E-03)
 number of electron       6.0000000 magnetization 
 augmentation part       -0.2144297 magnetization 

 Broyden mixing:
  rms(total) = 0.33266E-02    rms(broyden)= 0.33264E-02
  rms(prec ) = 0.63198E-02
  weight for this iteration     100.00

 eigenvalues of (default mixing * dielectric matrix)
  average eigenvalue GAMMA=   2.1430
  3.5545  2.7603  2.1139  0.9941  1.2924

 Free energy of the ion-electron system (eV)
  ---------------------------------------------------
  alpha Z        PSCENC =         0.01507812
  Ewald energy   TEWEN  =        46.76039481
  -Hartree energ DENC   =      -143.39930325
  -exchange      EXHF   =         0.00000000
  -V(xc)+E(xc)   XCENC  =         0.44503036
  PAW double counting   =       131.77197153     -121.57857846
  entropy T*S    EENTRO =        -0.00000000
  eigenvalues    EBANDS =       -55.58870074
  atomic energy  EATOM  =       128.04253641
  Solvation  Ediel_sol  =         0.00000000
  ---------------------------------------------------
  free energy    TOTEN  =       -13.53157121 eV

  energy without entropy =      -13.53157121  energy(sigma->0) =      -13.53157121


--------------------------------------------------------------------------------------------------------




--------------------------------------- Iteration      1(  11)  ---------------------------------------


    POTLOK:  cpu time      1.3350: real time      1.4277
    SETDIJ:  cpu time      0.6225: real time      0.6258
    EDDIAG:  cpu time      2.6547: real time      2.8597
     EDDAV:  cpu time     13.6997: real time     14.7458
       DOS:  cpu time      0.0005: real time      0.0005
    CHARGE:  cpu time     10.4314: real time     10.6460
    MIXING:  cpu time      0.0187: real time      0.0194
    --------------------------------------------
      LOOP:  cpu time     28.7625: real time     30.3249

 eigenvalue-minimisations  :   608
 total energy-change (2. order) :-0.3854683E-02  (-0.3245415E-03)
 number of electron       6.0000000 magnetization 
 augmentation part       -0.2144752 magnetization 

 Broyden mixing:
  rms(total) = 0.23410E-02    rms(broyden)= 0.23410E-02
  rms(prec ) = 0.38775E-02
  weight for this iteration     100.00

 eigenvalues of (default mixing * dielectric matrix)
  average eigenvalue GAMMA=   2.4016
  4.8053  3.1559  2.4016  2.0588  0.9941  0.9941

 Free energy of the ion-electron system (eV)
  ---------------------------------------------------
  alpha Z        PSCENC =         0.01507812
  Ewald energy   TEWEN  =        46.76039481
  -Hartree energ DENC   =      -143.49694716
  -exchange      EXHF   =         0.00000000
  -V(xc)+E(xc)   XCENC  =         0.44924670
  PAW double counting   =       131.46884156     -121.27462493
  entropy T*S    EENTRO =        -0.00000000
  eigenvalues    EBANDS =       -55.49995141
  atomic energy  EATOM  =       128.04253641
  Solvation  Ediel_sol  =         0.00000000
  ---------------------------------------------------
  free energy    TOTEN  =       -13.53542590 eV

  energy without entropy =      -13.53542590  energy(sigma->0) =      -13.53542590


--------------------------------------------------------------------------------------------------------




--------------------------------------- Iteration      1(  12)  ---------------------------------------


    POTLOK:  cpu time      1.3189: real time      1.3777
    SETDIJ:  cpu time      0.6223: real time      0.6256
    EDDIAG:  cpu time      2.6476: real time      2.8486
     EDDAV:  cpu time     14.1366: real time     15.1925
       DOS:  cpu time      0.0004: real time      0.0004
    CHARGE:  cpu time     11.8544: real time     12.0852
    MIXING:  cpu time      0.0183: real time      0.0191
    --------------------------------------------
      LOOP:  cpu time     30.5985: real time     32.1490

 eigenvalue-minimisations  :   640
 total energy-change (2. order) :-0.1261216E-02  (-0.3663908E-03)
 number of electron       6.0000000 magnetization 
 augmentation part       -0.2143665 magnetization 

 Broyden mixing:
  rms(total) = 0.10106E-02    rms(broyden)= 0.10106E-02
  rms(prec ) = 0.19067E-02
  weight for this iteration     100.00

 eigenvalues of (default mixing * dielectric matrix)
  average eigenvalue GAMMA=   2.4496
  5.5253  3.3987  0.9866  0.9866  2.3362  2.1226  1.7909

 Free energy of the ion-electron system (eV)
  ---------------------------------------------------
  alpha Z        PSCENC =         0.01507812
  Ewald energy   TEWEN  =        46.76039481
  -Hartree energ DENC   =      -143.53207961
  -exchange      EXHF   =         0.00000000
  -V(xc)+E(xc)   XCENC  =         0.44659434
  PAW double counting   =       131.85518236     -121.66199970
  entropy T*S    EENTRO =        -0.00000000
  eigenvalues    EBANDS =       -55.46239386
  atomic energy  EATOM  =       128.04253641
  Solvation  Ediel_sol  =         0.00000000
  ---------------------------------------------------
  free energy    TOTEN  =       -13.53668711 eV

  energy without entropy =      -13.53668711  energy(sigma->0) =      -13.53668711


--------------------------------------------------------------------------------------------------------




--------------------------------------- Iteration      1(  13)  ---------------------------------------


    POTLOK:  cpu time      1.3478: real time      1.4260
    SETDIJ:  cpu time      0.6227: real time      0.6258
    EDDIAG:  cpu time      2.6616: real time      2.8681
     EDDAV:  cpu time     12.7981: real time     13.7545
       DOS:  cpu time      0.0005: real time      0.0005
    CHARGE:  cpu time     11.7703: real time     12.0061
    MIXING:  cpu time      0.0232: real time      0.0241
    --------------------------------------------
      LOOP:  cpu time     29.2242: real time     30.7051

 eigenvalue-minimisations  :   544
 total energy-change (2. order) :-0.3923026E-03  (-0.2460904E-03)
 number of electron       6.0000000 magnetization 
 augmentation part       -0.2144264 magnetization 

 Broyden mixing:
  rms(total) = 0.56875E-03    rms(broyden)= 0.56928E-03
  rms(prec ) = 0.10034E-02
  weight for this iteration     100.00

 eigenvalues of (default mixing * dielectric matrix)
  average eigenvalue GAMMA=   2.5271
  6.0676  4.1184  2.8048  2.3273  1.9676  0.9814  0.9814  0.9684

 Free energy of the ion-electron system (eV)
  ---------------------------------------------------
  alpha Z        PSCENC =         0.01507812
  Ewald energy   TEWEN  =        46.76039481
  -Hartree energ DENC   =      -143.50642159
  -exchange      EXHF   =         0.00000000
  -V(xc)+E(xc)   XCENC  =         0.43964886
  PAW double counting   =       131.65903958     -121.46539890
  entropy T*S    EENTRO =        -0.00000000
  eigenvalues    EBANDS =       -55.48195671
  atomic energy  EATOM  =       128.04253641
  Solvation  Ediel_sol  =         0.00000000
  ---------------------------------------------------
  free energy    TOTEN  =       -13.53707942 eV

  energy without entropy =      -13.53707942  energy(sigma->0) =      -13.53707942


--------------------------------------------------------------------------------------------------------




--------------------------------------- Iteration      1(  14)  ---------------------------------------


    POTLOK:  cpu time      1.3241: real time      1.3866
    SETDIJ:  cpu time      0.6217: real time      0.6250
    EDDIAG:  cpu time      2.6681: real time      2.8761
     EDDAV:  cpu time     11.6241: real time     12.5045
       DOS:  cpu time      0.0005: real time      0.0005
    CHARGE:  cpu time     11.4569: real time     11.6880
    MIXING:  cpu time      0.0221: real time      0.0229
    --------------------------------------------
      LOOP:  cpu time     27.7174: real time     29.1036

 eigenvalue-minimisations  :   464
 total energy-change (2. order) :-0.7580029E-04  (-0.9845962E-04)
 number of electron       6.0000000 magnetization 
 augmentation part       -0.2144346 magnetization 

 Broyden mixing:
  rms(total) = 0.36531E-03    rms(broyden)= 0.36581E-03
  rms(prec ) = 0.62963E-03
  weight for this iteration     100.00

 eigenvalues of (default mixing * dielectric matrix)
  average eigenvalue GAMMA=   2.4354
  6.1378  4.2727  2.8491  2.3432  1.9279  1.3440  0.9637  0.9637  1.1163

 Free energy of the ion-electron system (eV)
  ---------------------------------------------------
  alpha Z        PSCENC =         0.01507812
  Ewald energy   TEWEN  =        46.76039481
  -Hartree energ DENC   =      -143.50812601
  -exchange      EXHF   =         0.00000000
  -V(xc)+E(xc)   XCENC  =         0.43796570
  PAW double counting   =       131.68213438     -121.48854680
  entropy T*S    EENTRO =        -0.00000000
  eigenvalues    EBANDS =       -55.47859184
  atomic energy  EATOM  =       128.04253641
  Solvation  Ediel_sol  =         0.00000000
  ---------------------------------------------------
  free energy    TOTEN  =       -13.53715522 eV

  energy without entropy =      -13.53715522  energy(sigma->0) =      -13.53715522


--------------------------------------------------------------------------------------------------------




--------------------------------------- Iteration      1(  15)  ---------------------------------------


    POTLOK:  cpu time      1.3269: real time      1.3891
    SETDIJ:  cpu time      0.6223: real time      0.6255
    EDDIAG:  cpu time      2.6376: real time      2.8399
     EDDAV:  cpu time     11.9194: real time     12.8316
       DOS:  cpu time      0.0004: real time      0.0004
    CHARGE:  cpu time     13.5527: real time     13.8058
    MIXING:  cpu time      0.0221: real time      0.0230
    --------------------------------------------
      LOOP:  cpu time     30.0814: real time     31.5154

 eigenvalue-minimisations  :   480
 total energy-change (2. order) :-0.1056198E-03  (-0.3299119E-04)
 number of electron       6.0000000 magnetization 
 augmentation part       -0.2144249 magnetization 

 Broyden mixing:
  rms(total) = 0.15259E-03    rms(broyden)= 0.19559E-03
  rms(prec ) = 0.26241E-03
  weight for this iteration     100.00
  WARNING: grid for Broyden might be to small

 eigenvalues of (default mixing * dielectric matrix)
  average eigenvalue GAMMA=   2.5626
  6.9932  4.5513  3.4630  2.7264  2.2650  1.9695  0.9966  0.9966  0.9927  0.6714

 Free energy of the ion-electron system (eV)
  ---------------------------------------------------
  alpha Z        PSCENC =         0.01507812
  Ewald energy   TEWEN  =        46.76039481
  -Hartree energ DENC   =      -143.52301974
  -exchange      EXHF   =         0.00000000
  -V(xc)+E(xc)   XCENC  =         0.43815711
  PAW double counting   =       131.73750431     -121.54401173
  entropy T*S    EENTRO =        -0.00000000
  eigenvalues    EBANDS =       -55.46390014
  atomic energy  EATOM  =       128.04253641
  Solvation  Ediel_sol  =         0.00000000
  ---------------------------------------------------
  free energy    TOTEN  =       -13.53726084 eV

  energy without entropy =      -13.53726084  energy(sigma->0) =      -13.53726084


--------------------------------------------------------------------------------------------------------




--------------------------------------- Iteration      1(  16)  ---------------------------------------


    POTLOK:  cpu time      1.3425: real time      1.4187
    SETDIJ:  cpu time      0.6211: real time      0.6248
    EDDIAG:  cpu time      2.6504: real time      2.8595
     EDDAV:  cpu time     16.0146: real time     17.2448
       DOS:  cpu time      0.0005: real time      0.0005
    CHARGE:  cpu time     10.0826: real time     10.3022
    MIXING:  cpu time      0.0245: real time      0.0253
    --------------------------------------------
      LOOP:  cpu time     30.7362: real time     32.4758

 eigenvalue-minimisations  :   776
 total energy-change (2. order) :-0.7861121E-05  (-0.5051829E-05)
 number of electron       6.0000000 magnetization 
 augmentation part       -0.2144317 magnetization 

 Broyden mixing:
  rms(total) = 0.11903E-03    rms(broyden)= 0.15469E-03
  rms(prec ) = 0.18911E-03
  weight for this iteration     100.00
  WARNING: grid for Broyden might be to small

 eigenvalues of (default mixing * dielectric matrix)
  average eigenvalue GAMMA=   2.4965
  7.4838  4.4441  3.7946  2.7801  2.2770  1.9145  1.1071  1.1071  0.9945  0.9241
  0.6345

 Free energy of the ion-electron system (eV)
  ---------------------------------------------------
  alpha Z        PSCENC =         0.01507812
  Ewald energy   TEWEN  =        46.76039481
  -Hartree energ DENC   =      -143.52676012
  -exchange      EXHF   =         0.00000000
  -V(xc)+E(xc)   XCENC  =         0.43850028
  PAW double counting   =       131.72055643     -121.52701086
  entropy T*S    EENTRO =        -0.00000000
  eigenvalues    EBANDS =       -55.46056378
  atomic energy  EATOM  =       128.04253641
  Solvation  Ediel_sol  =         0.00000000
  ---------------------------------------------------
  free energy    TOTEN  =       -13.53726870 eV

  energy without entropy =      -13.53726870  energy(sigma->0) =      -13.53726870


--------------------------------------------------------------------------------------------------------




--------------------------------------- Iteration      1(  17)  ---------------------------------------


    POTLOK:  cpu time      1.3255: real time      1.3899
    SETDIJ:  cpu time      0.6196: real time      0.6233
    EDDIAG:  cpu time      2.6471: real time      2.8432
     EDDAV:  cpu time     11.4229: real time     12.2689
       DOS:  cpu time      0.0007: real time      0.0007
    CHARGE:  cpu time     10.1034: real time     10.3217
    MIXING:  cpu time      0.0254: real time      0.0263
    --------------------------------------------
      LOOP:  cpu time     26.1446: real time     27.4740

 eigenvalue-minimisations  :   448
 total energy-change (2. order) :-0.2198432E+01  (-0.2188393E+01)
 number of electron       6.0000000 magnetization 
 augmentation part       -0.2126418 magnetization 

 Broyden mixing:
  rms(total) = 0.53251E-01    rms(broyden)= 0.49597E-01
  rms(prec ) = 0.56720E-01
  weight for this iteration     100.00

 eigenvalues of (default mixing * dielectric matrix)
  average eigenvalue GAMMA=   2.2885
  7.4861  4.4519  3.7852  2.7804  2.2764  1.9152  1.1061  1.1061  0.9946  0.9249
  0.6345  0.0005

 Free energy of the ion-electron system (eV)
  ---------------------------------------------------
  alpha Z        PSCENC =         0.01507812
  Ewald energy   TEWEN  =        46.76039481
  -Hartree energ DENC   =      -143.52842050
  -exchange      EXHF   =         0.00000000
  -V(xc)+E(xc)   XCENC  =         0.43859561
  PAW double counting   =       131.72241869     -121.52886539
  entropy T*S    EENTRO =        -0.00995346
  eigenvalues    EBANDS =       -57.64748471
  atomic energy  EATOM  =       128.04253641
  Solvation  Ediel_sol  =         0.00000000
  ---------------------------------------------------
  free energy    TOTEN  =       -15.73570041 eV

  energy without entropy =      -15.72574695  energy(sigma->0) =      -15.73072368


--------------------------------------------------------------------------------------------------------




--------------------------------------- Iteration      1(  18)  ---------------------------------------


    POTLOK:  cpu time      1.3322: real time      1.3947
    SETDIJ:  cpu time      0.6226: real time      0.6259
    EDDIAG:  cpu time      2.6604: real time      2.8712
     EDDAV:  cpu time     11.2191: real time     12.0630
       DOS:  cpu time      0.0004: real time      0.0004
    CHARGE:  cpu time     11.6998: real time     11.9339
    MIXING:  cpu time      0.0230: real time      0.0239
    --------------------------------------------
      LOOP:  cpu time     27.5575: real time     28.9130

 eigenvalue-minimisations  :   432
 total energy-change (2. order) : 0.2212433E+01  (-0.9337768E+01)
 number of electron       6.0000000 magnetization 
 augmentation part       -0.2145480 magnetization 

 Broyden mixing:
  rms(total) = 0.15520E-01    rms(broyden)= 0.62796E-03
  rms(prec ) = 0.57561E-03
  weight for this iteration     100.00
  WARNING: grid for Broyden might be to small

 eigenvalues of (default mixing * dielectric matrix)
  average eigenvalue GAMMA=   2.1558
  7.4119  4.5303  3.7820  2.8473  2.2654  1.8908  1.3451  1.0370  1.0013  0.8881
  0.6397  0.3866  0.0003

 Free energy of the ion-electron system (eV)
  ---------------------------------------------------
  alpha Z        PSCENC =         0.01507812
  Ewald energy   TEWEN  =        46.76039481
  -Hartree energ DENC   =      -143.52823003
  -exchange      EXHF   =         0.00000000
  -V(xc)+E(xc)   XCENC  =         0.44691203
  PAW double counting   =       131.72864880     -121.53531797
  entropy T*S    EENTRO =        -0.00000000
  eigenvalues    EBANDS =       -55.45329007
  atomic energy  EATOM  =       128.04253641
  Solvation  Ediel_sol  =         0.00000000
  ---------------------------------------------------
  free energy    TOTEN  =       -13.52326790 eV

  energy without entropy =      -13.52326790  energy(sigma->0) =      -13.52326790


--------------------------------------------------------------------------------------------------------




--------------------------------------- Iteration      1(  19)  ---------------------------------------


    POTLOK:  cpu time      1.3374: real time      1.4206
    SETDIJ:  cpu time      0.6222: real time      0.6249
    EDDIAG:  cpu time      2.6355: real time      2.8430
     EDDAV:  cpu time     11.8462: real time     12.7391
       DOS:  cpu time      0.0004: real time      0.0004
    CHARGE:  cpu time     11.0193: real time     11.2442
    MIXING:  cpu time      0.0276: real time      0.0286
    --------------------------------------------
      LOOP:  cpu time     27.4886: real time     28.9009

 eigenvalue-minimisations  :   480
 total energy-change (2. order) :-0.1204562E-01  (-0.6796500E-04)
 number of electron       6.0000000 magnetization 
 augmentation part       -0.2144625 magnetization 

 Broyden mixing:
  rms(total) = 0.31068E-02    rms(broyden)= 0.28682E-03
  rms(prec ) = 0.19544E-03
  weight for this iteration     100.00
  WARNING: grid for Broyden might be to small

 eigenvalues of (default mixing * dielectric matrix)
  average eigenvalue GAMMA=   2.2225
  7.4784  3.9772  3.9772  2.7145  2.1894  2.1894  2.0500  1.4869  1.4869  0.9733
  0.9733  0.9889  0.6293  0.0003

 Free energy of the ion-electron system (eV)
  ---------------------------------------------------
  alpha Z        PSCENC =         0.01507812
  Ewald energy   TEWEN  =        46.76039481
  -Hartree energ DENC   =      -143.53225314
  -exchange      EXHF   =         0.00000000
  -V(xc)+E(xc)   XCENC  =         0.44029921
  PAW double counting   =       131.72783611     -121.53425237
  entropy T*S    EENTRO =        -0.00000000
  eigenvalues    EBANDS =       -55.45495267
  atomic energy  EATOM  =       128.04253641
  Solvation  Ediel_sol  =         0.00000000
  ---------------------------------------------------
  free energy    TOTEN  =       -13.53531351 eV

  energy without entropy =      -13.53531351  energy(sigma->0) =      -13.53531351


--------------------------------------------------------------------------------------------------------




--------------------------------------- Iteration      1(  20)  ---------------------------------------


    POTLOK:  cpu time      1.3355: real time      1.3941
    SETDIJ:  cpu time      0.6224: real time      0.6251
    EDDIAG:  cpu time      2.6549: real time      2.8621
     EDDAV:  cpu time     11.8472: real time     12.7478
       DOS:  cpu time      0.0004: real time      0.0004
    CHARGE:  cpu time     11.2033: real time     11.4297
    MIXING:  cpu time      0.0231: real time      0.0239
    --------------------------------------------
      LOOP:  cpu time     27.6869: real time     29.0832

 eigenvalue-minimisations  :   480
 total energy-change (2. order) :-0.1740693E-02  (-0.1876793E-04)
 number of electron       6.0000000 magnetization 
 augmentation part       -0.2144272 magnetization 

 Broyden mixing:
  rms(total) = 0.63368E-03    rms(broyden)= 0.26750E-03
  rms(prec ) = 0.15381E-03
  weight for this iteration     100.00
  WARNING: grid for Broyden might be to small

 eigenvalues of (default mixing * dielectric matrix)
  average eigenvalue GAMMA=   2.3048
  8.2694  4.8036  4.7310  3.3282  2.6641  2.2968  1.9620  1.0484  1.0484  0.9825
  0.9524  0.9284  0.9284  0.6287  0.0003

 Free energy of the ion-electron system (eV)
  ---------------------------------------------------
  alpha Z        PSCENC =         0.01507812
  Ewald energy   TEWEN  =        46.76039481
  -Hartree energ DENC   =      -143.53500532
  -exchange      EXHF   =         0.00000000
  -V(xc)+E(xc)   XCENC  =         0.43944704
  PAW double counting   =       131.74082722     -121.54729164
  entropy T*S    EENTRO =        -0.00000000
  eigenvalues    EBANDS =       -55.45304086
  atomic energy  EATOM  =       128.04253641
  Solvation  Ediel_sol  =         0.00000000
  ---------------------------------------------------
  free energy    TOTEN  =       -13.53705421 eV

  energy without entropy =      -13.53705421  energy(sigma->0) =      -13.53705421


--------------------------------------------------------------------------------------------------------




--------------------------------------- Iteration      1(  21)  ---------------------------------------


    POTLOK:  cpu time      1.3320: real time      1.3897
    SETDIJ:  cpu time      0.6228: real time      0.6259
    EDDIAG:  cpu time      2.6338: real time      2.8407
     EDDAV:  cpu time     12.0749: real time     12.9903
       DOS:  cpu time      0.0004: real time      0.0004
    CHARGE:  cpu time     12.2370: real time     12.4714
    MIXING:  cpu time      0.0243: real time      0.0251
    --------------------------------------------
      LOOP:  cpu time     28.9251: real time     30.3435

 eigenvalue-minimisations  :   496
 total energy-change (2. order) :-0.2796752E-03  (-0.6810913E-05)
 number of electron       6.0000000 magnetization 
 augmentation part       -0.2144205 magnetization 

 Broyden mixing:
  rms(total) = 0.17172E-03    rms(broyden)= 0.26927E-03
  rms(prec ) = 0.14409E-03
  weight for this iteration     100.00
  WARNING: grid for Broyden might be to small

 eigenvalues of (default mixing * dielectric matrix)
  average eigenvalue GAMMA=   2.2533
  8.3389  5.5380  4.3439  3.3052  2.7031  2.2837  1.9454  1.3203  0.9181  0.9181
  1.0278  0.9893  0.8958  0.8958  0.6285  0.0003

 Free energy of the ion-electron system (eV)
  ---------------------------------------------------
  alpha Z        PSCENC =         0.01507812
  Ewald energy   TEWEN  =        46.76039481
  -Hartree energ DENC   =      -143.53499587
  -exchange      EXHF   =         0.00000000
  -V(xc)+E(xc)   XCENC  =         0.43926373
  PAW double counting   =       131.73840737     -121.54487767
  entropy T*S    EENTRO =        -0.00000000
  eigenvalues    EBANDS =       -55.45314080
  atomic energy  EATOM  =       128.04253641
  Solvation  Ediel_sol  =         0.00000000
  ---------------------------------------------------
  free energy    TOTEN  =       -13.53733388 eV

  energy without entropy =      -13.53733388  energy(sigma->0) =      -13.53733388


--------------------------------------------------------------------------------------------------------




--------------------------------------- Iteration      1(  22)  ---------------------------------------


    POTLOK:  cpu time      1.3369: real time      1.4142
    SETDIJ:  cpu time      0.6225: real time      0.6257
    EDDIAG:  cpu time      2.6351: real time      2.8447
     EDDAV:  cpu time     11.6891: real time     12.5856
       DOS:  cpu time      0.0004: real time      0.0004
    CHARGE:  cpu time     11.1672: real time     11.3942
    MIXING:  cpu time      0.0283: real time      0.0291
    --------------------------------------------
      LOOP:  cpu time     27.4795: real time     28.8941

 eigenvalue-minimisations  :   464
 total energy-change (2. order) :-0.5252683E-04  (-0.4491380E-05)
 number of electron       6.0000000 magnetization 
 augmentation part       -0.2144248 magnetization 

 Broyden mixing:
  rms(total) = 0.57479E-04    rms(broyden)= 0.59306E-03
  rms(prec ) = 0.66964E-04
  weight for this iteration     100.00
  WARNING: grid for Broyden might be to small

 eigenvalues of (default mixing * dielectric matrix)
  average eigenvalue GAMMA=   2.2336
  8.5650  5.3990  4.1369  3.4788  2.7357  2.3146  1.7594  1.7594  1.2440  1.2440
  1.0214  1.0214  0.9706  0.9706  0.7218  0.6285  0.0003

 Free energy of the ion-electron system (eV)
  ---------------------------------------------------
  alpha Z        PSCENC =         0.01507812
  Ewald energy   TEWEN  =        46.76039481
  -Hartree energ DENC   =      -143.53258015
  -exchange      EXHF   =         0.00000000
  -V(xc)+E(xc)   XCENC  =         0.43904030
  PAW double counting   =       131.72724158     -121.53369092
  entropy T*S    EENTRO =        -0.00000000
  eigenvalues    EBANDS =       -55.45540656
  atomic energy  EATOM  =       128.04253641
  Solvation  Ediel_sol  =         0.00000000
  ---------------------------------------------------
  free energy    TOTEN  =       -13.53738641 eV

  energy without entropy =      -13.53738641  energy(sigma->0) =      -13.53738641


--------------------------------------------------------------------------------------------------------




--------------------------------------- Iteration      1(  23)  ---------------------------------------


    POTLOK:  cpu time      1.3341: real time      1.3953
    SETDIJ:  cpu time      0.6211: real time      0.6243
    EDDIAG:  cpu time      2.6378: real time      2.8411
     EDDAV:  cpu time     13.6943: real time     14.7374
       DOS:  cpu time      0.0006: real time      0.0006
    CHARGE:  cpu time     11.2339: real time     11.4599
    MIXING:  cpu time      0.0278: real time      0.0287
    --------------------------------------------
      LOOP:  cpu time     29.5496: real time     31.0873

 eigenvalue-minimisations  :   608
 total energy-change (2. order) :-0.1446139E-04  (-0.1902586E-05)
 number of electron       6.0000000 magnetization 
 augmentation part       -0.2144276 magnetization 

 Broyden mixing:
  rms(total) = 0.28790E-04    rms(broyden)= 0.30553E-03
  rms(prec ) = 0.37706E-04
  weight for this iteration     100.00
  WARNING: grid for Broyden might be to small

 eigenvalues of (default mixing * dielectric matrix)
  average eigenvalue GAMMA=   2.1617
  8.6901  5.3168  3.9884  3.5989  2.6982  2.3211  1.8824  1.6382  1.6382  1.0527
  1.0527  1.0130  0.9449  0.9449  0.7505  0.7505  0.6284  0.0003

 Free energy of the ion-electron system (eV)
  ---------------------------------------------------
  alpha Z        PSCENC =         0.01507812
  Ewald energy   TEWEN  =        46.76039481
  -Hartree energ DENC   =      -143.53114494
  -exchange      EXHF   =         0.00000000
  -V(xc)+E(xc)   XCENC  =         0.43887834
  PAW double counting   =       131.72161198     -121.52805164
  entropy T*S    EENTRO =        -0.00000000
  eigenvalues    EBANDS =       -55.45670396
  atomic energy  EATOM  =       128.04253641
  Solvation  Ediel_sol  =         0.00000000
  ---------------------------------------------------
  free energy    TOTEN  =       -13.53740087 eV

  energy without entropy =      -13.53740087  energy(sigma->0) =      -13.53740087


--------------------------------------------------------------------------------------------------------




--------------------------------------- Iteration      1(  24)  ---------------------------------------


    POTLOK:  cpu time      1.1717: real time      1.2337
    SETDIJ:  cpu time      0.6243: real time      0.6276
    EDDIAG:  cpu time      2.6420: real time      2.8454
     EDDAV:  cpu time     13.5633: real time     14.6103
       DOS:  cpu time      0.0005: real time      0.0005
    CHARGE:  cpu time     10.1660: real time     10.3875
    MIXING:  cpu time      0.0305: real time      0.0313
    --------------------------------------------
      LOOP:  cpu time     28.1982: real time     29.7362

 eigenvalue-minimisations  :   600
 total energy-change (2. order) :-0.7757386E-05  (-0.7049413E-06)
 number of electron       6.0000000 magnetization 
 augmentation part       -0.2144273 magnetization 

 Broyden mixing:
  rms(total) = 0.22652E-04    rms(broyden)= 0.30959E-03
  rms(prec ) = 0.29854E-04
  weight for this iteration     100.00
  WARNING: grid for Broyden might be to small

 eigenvalues of (default mixing * dielectric matrix)
  average eigenvalue GAMMA=   2.2631
  8.8451  5.4829  4.4396  2.6578  2.6578  3.2967  2.8813  2.3245  1.9834  1.1176
  1.1176  1.0114  1.0114  0.9384  0.9767  0.9767  0.6517  0.6282  0.0003

 Free energy of the ion-electron system (eV)
  ---------------------------------------------------
  alpha Z        PSCENC =         0.01507812
  Ewald energy   TEWEN  =        46.76039481
  -Hartree energ DENC   =      -143.53096879
  -exchange      EXHF   =         0.00000000
  -V(xc)+E(xc)   XCENC  =         0.43881865
  PAW double counting   =       131.72231118     -121.52875659
  entropy T*S    EENTRO =        -0.00000000
  eigenvalues    EBANDS =       -55.45682241
  atomic energy  EATOM  =       128.04253641
  Solvation  Ediel_sol  =         0.00000000
  ---------------------------------------------------
  free energy    TOTEN  =       -13.53740863 eV

  energy without entropy =      -13.53740863  energy(sigma->0) =      -13.53740863


--------------------------------------------------------------------------------------------------------




--------------------------------------- Iteration      1(  25)  ---------------------------------------


    POTLOK:  cpu time      1.3530: real time      1.4498
    SETDIJ:  cpu time      0.6214: real time      0.6247
    EDDIAG:  cpu time      2.6659: real time      2.8800
     EDDAV:  cpu time     11.2528: real time     12.1191
       DOS:  cpu time      0.0005: real time      0.0005
    CHARGE:  cpu time     12.8780: real time     13.1234
    MIXING:  cpu time      0.0312: real time      0.0321
    --------------------------------------------
      LOOP:  cpu time     28.8028: real time     30.2296

 eigenvalue-minimisations  :   432
 total energy-change (2. order) :-0.1500721E-04  (-0.3195775E-05)
 number of electron       6.0000000 magnetization 
 augmentation part       -0.2144278 magnetization 

 Broyden mixing:
  rms(total) = 0.18878E-04    rms(broyden)= 0.56253E-04
  rms(prec ) = 0.21340E-04
  weight for this iteration     100.00
  WARNING: grid for Broyden might be to small

 eigenvalues of (default mixing * dielectric matrix)
  average eigenvalue GAMMA=   2.2740
  9.2833  6.1087  4.1686  3.6199  2.8582  2.8582  2.7866  2.1538  2.1538  1.3575
  1.0003  1.0003  1.0958  0.9671  0.9842  0.9842  0.8325  0.6391  0.6280  0.0003

 Free energy of the ion-electron system (eV)
  ---------------------------------------------------
  alpha Z        PSCENC =         0.01507812
  Ewald energy   TEWEN  =        46.76039481
  -Hartree energ DENC   =      -143.53009101
  -exchange      EXHF   =         0.00000000
  -V(xc)+E(xc)   XCENC  =         0.43876172
  PAW double counting   =       131.72329890     -121.52975117
  entropy T*S    EENTRO =        -0.00000000
  eigenvalues    EBANDS =       -55.45765142
  atomic energy  EATOM  =       128.04253641
  Solvation  Ediel_sol  =         0.00000000
[...]
 total energy-change (2. order) : 0.7075683E-06  (-0.2229088E-06)
 number of electron       6.0000001 magnetization 
 augmentation part       -0.2173602 magnetization 

 Free energy of the ion-electron system (eV)
  ---------------------------------------------------
  alpha Z        PSCENC =         0.01570620
  Ewald energy   TEWEN  =        45.40549781
  -Hartree energ DENC   =      -143.54150753
  -exchange      EXHF   =         0.00000000
  -V(xc)+E(xc)   XCENC  =         0.38009922
  PAW double counting   =       126.33376417     -116.11828603
  entropy T*S    EENTRO =        -0.00000000
  eigenvalues    EBANDS =       -54.53218916
  atomic energy  EATOM  =       128.04253641
  Solvation  Ediel_sol  =         0.00000000
  ---------------------------------------------------
  free energy    TOTEN  =       -14.01437890 eV

  energy without entropy =      -14.01437890  energy(sigma->0) =      -14.01437890


--------------------------------------------------------------------------------------------------------




 average (electrostatic) potential at core
  the test charge radii are     1.1243  0.5201
  (the norm of the test charge is              1.0000)
       1 -79.7682       2 -42.4307       3 -42.4307



 E-fermi :  -5.5616     XC(G=0):  -0.0591     alpha+bet : -0.0375

 Fermi energy:        -5.5615616459

 k-point     1 :       0.0000    0.0000    0.0000
  band No.  band energies     occupation 
      1     -12.9953      2.00000
      2      -8.2338      2.00000
      3      -6.0370      2.00000
      4      -3.8273      0.00000
      5       0.0097      0.00000
      6       0.3217      0.00000
      7       0.3787      0.00000
      8       0.3986      0.00000

 k-point     2 :       0.2500    0.0000    0.0000
  band No.  band energies     occupation 
      1     -12.9953      2.00000
      2      -8.2338      2.00000
      3      -6.0370      2.00000
      4      -3.8273      0.00000
      5       0.0335      0.00000
      6       0.2220      0.00000
      7       0.3590      0.00000
      8       0.4070      0.00000

 k-point     3 :       0.0000    0.2500    0.0000
  band No.  band energies     occupation 
      1     -12.9953      2.00000
      2      -8.2338      2.00000
      3      -6.0370      2.00000
      4      -3.8273      0.00000
      5       0.0371      0.00000
      6       0.2186      0.00000
      7       0.2743      0.00000
      8       0.3615      0.00000

 k-point     4 :       0.0000    0.0000    0.2500
  band No.  band energies     occupation 
      1     -12.9953      2.00000
      2      -8.2338      2.00000
      3      -6.0370      2.00000
      4      -3.8273      0.00000
      5       0.0303      0.00000
      6       0.2084      0.00000
      7       0.2434      0.00000
      8       0.3975      0.00000

 k-point     5 :       0.5000    0.0000    0.0000
  band No.  band energies     occupation 
      1     -12.9953      2.00000
      2      -8.2338      2.00000
      3      -6.0370      2.00000
      4      -3.8273      0.00000
      5       0.0979      0.00000
      6       0.1119      0.00000
      7       0.2329      0.00000
      8       0.4093      0.00000

 k-point     6 :       0.0000    0.5000    0.0000
  band No.  band energies     occupation 
      1     -12.9953      2.00000
      2      -8.2338      2.00000
      3      -6.0370      2.00000
      4      -3.8273      0.00000
      5       0.1087      0.00000
      6       0.1283      0.00000
      7       0.2392      0.00000
      8       0.4110      0.00000

 k-point     7 :       0.0000    0.0000    0.5000
  band No.  band energies     occupation 
      1     -12.9953      2.00000
      2      -8.2338      2.00000
      3      -6.0370      2.00000
      4      -3.8273      0.00000
      5       0.0742      0.00000
      6       0.1231      0.00000
      7       0.2317      0.00000
      8       0.4315      0.00000

 k-point     8 :       0.2500    0.2500    0.0000
  band No.  band energies     occupation 
      1     -12.9953      2.00000
      2      -8.2338      2.00000
      3      -6.0370      2.00000
      4      -3.8273      0.00000
      5       0.0607      0.00000
      6       0.2235      0.00000
      7       0.2469      0.00000
      8       0.2994      0.00000

 k-point     9 :       0.0000    0.2500    0.2500
  band No.  band energies     occupation 
      1     -12.9953      2.00000
      2      -8.2338      2.00000
      3      -6.0370      2.00000
      4      -3.8273      0.00000
      5       0.0574      0.00000
      6       0.2138      0.00000
      7       0.2433      0.00000
      8       0.3005      0.00000

 k-point    10 :       0.2500    0.0000    0.2500
  band No.  band energies     occupation 
      1     -12.9953      2.00000
      2      -8.2338      2.00000
      3      -6.0370      2.00000
      4      -3.8273      0.00000
      5       0.0539      0.00000
      6       0.2229      0.00000
      7       0.2326      0.00000
      8       0.2560      0.00000

 k-point    11 :       0.5000    0.2500    0.0000
  band No.  band energies     occupation 
      1     -12.9953      2.00000
      2      -8.2338      2.00000
      3      -6.0370      2.00000
      4      -3.8273      0.00000
      5       0.1242      0.00000
      6       0.1395      0.00000
      7       0.2286      0.00000
      8       0.3586      0.00000

 k-point    12 :       0.0000    0.5000    0.2500
  band No.  band energies     occupation 
      1     -12.9953      2.00000
      2      -8.2338      2.00000
      3      -6.0370      2.00000
      4      -3.8273      0.00000
      5       0.1276      0.00000
      6       0.1473      0.00000
      7       0.2367      0.00000
      8       0.3158      0.00000

 k-point    13 :       0.2500    0.0000    0.5000
  band No.  band energies     occupation 
      1     -12.9953      2.00000
      2      -8.2338      2.00000
      3      -6.0370      2.00000
      4      -3.8273      0.00000
      5       0.0975      0.00000
      6       0.1463      0.00000
      7       0.2320      0.00000
      8       0.2920      0.00000

 k-point    14 :      -0.2500    0.5000    0.0000
  band No.  band energies     occupation 
      1     -12.9953      2.00000
      2      -8.2338      2.00000
      3      -6.0370      2.00000
      4      -3.8273      0.00000
      5       0.1322      0.00000
      6       0.1502      0.00000
      7       0.2385      0.00000
      8       0.3219      0.00000

 k-point    15 :       0.5000    0.0000    0.2500
  band No.  band energies     occupation 
      1     -12.9953      2.00000
      2      -8.2338      2.00000
      3      -6.0370      2.00000
      4      -3.8273      0.00000
      5       0.1169      0.00000
      6       0.1334      0.00000
      7       0.2326      0.00000
      8       0.3050      0.00000

 k-point    16 :       0.0000    0.2500    0.5000
  band No.  band energies     occupation 
      1     -12.9953      2.00000
      2      -8.2338      2.00000
      3      -6.0370      2.00000
      4      -3.8273      0.00000
      5       0.1008      0.00000
      6       0.1483      0.00000
      7       0.2290      0.00000
      8       0.3365      0.00000

 k-point    17 :       0.5000    0.5000    0.0000
  band No.  band energies     occupation 
      1     -12.9953      2.00000
      2      -8.2338      2.00000
      3      -6.0370      2.00000
      4      -3.8273      0.00000
      5       0.1889      0.00000
      6       0.1993      0.00000
      7       0.2214      0.00000
      8       0.2232      0.00000

 k-point    18 :       0.0000    0.5000    0.5000
  band No.  band energies     occupation 
      1     -12.9953      2.00000
      2      -8.2338      2.00000
      3      -6.0370      2.00000
      4      -3.8273      0.00000
      5       0.1617      0.00000
      6       0.1849      0.00000
      7       0.2211      0.00000
      8       0.2421      0.00000

 k-point    19 :       0.5000    0.0000    0.5000
  band No.  band energies     occupation 
      1     -12.9953      2.00000
      2      -8.2338      2.00000
      3      -6.0370      2.00000
      4      -3.8273      0.00000
      5       0.1517      0.00000
      6       0.1912      0.00000
      7       0.2054      0.00000
      8       0.2300      0.00000

 k-point    20 :       0.2500    0.2500    0.2500
  band No.  band energies     occupation 
      1     -12.9953      2.00000
      2      -8.2338      2.00000
      3      -6.0370      2.00000
      4      -3.8273      0.00000
      5       0.0810      0.00000
      6       0.2213      0.00000
      7       0.2502      0.00000
      8       0.2867      0.00000

 k-point    21 :       0.5000    0.2500    0.2500
  band No.  band energies     occupation 
      1     -12.9953      2.00000
      2      -8.2338      2.00000
      3      -6.0370      2.00000
      4      -3.8273      0.00000
      5       0.1428      0.00000
      6       0.1609      0.00000
      7       0.2285      0.00000
      8       0.3332      0.00000

 k-point    22 :       0.2500    0.5000    0.2500
  band No.  band energies     occupation 
      1     -12.9953      2.00000
      2      -8.2338      2.00000
      3      -6.0370      2.00000
      4      -3.8273      0.00000
      5       0.1509      0.00000
      6       0.1680      0.00000
      7       0.2395      0.00000
      8       0.3214      0.00000

 k-point    23 :       0.2500    0.2500    0.5000
  band No.  band energies     occupation 
      1     -12.9953      2.00000
      2      -8.2338      2.00000
      3      -6.0370      2.00000
      4      -3.8273      0.00000
      5       0.1240      0.00000
      6       0.1707      0.00000
      7       0.2315      0.00000
      8       0.3141      0.00000

 k-point    24 :       0.5000    0.5000    0.2500
  band No.  band energies     occupation 
      1     -12.9953      2.00000
      2      -8.2338      2.00000
      3      -6.0370      2.00000
      4      -3.8273      0.00000
      5       0.2049      0.00000
      6       0.2069      0.00000
      7       0.2427      0.00000
      8       0.2451      0.00000

 k-point    25 :       0.2500    0.5000    0.5000
  band No.  band energies     occupation 
      1     -12.9953      2.00000
      2      -8.2338      2.00000
      3      -6.0370      2.00000
      4      -3.8273      0.00000
      5       0.1842      0.00000
      6       0.1974      0.00000
      7       0.2489      0.00000
      8       0.2649      0.00000

 k-point    26 :       0.5000    0.2500    0.5000
  band No.  band energies     occupation 
      1     -12.9953      2.00000
      2      -8.2338      2.00000
      3      -6.0370      2.00000
      4      -3.8273      0.00000
      5       0.1766      0.00000
      6       0.2189      0.00000
      7       0.2216      0.00000
      8       0.2338      0.00000

 k-point    27 :       0.5000    0.5000    0.5000
  band No.  band energies     occupation 
      1     -12.9953      2.00000
      2      -8.2338      2.00000
      3      -6.0370      2.00000
      4      -3.8273      0.00000
      5       0.2130      0.00000
      6       0.2287      0.00000
      7       0.3043      0.00000
      8       0.3081      0.00000


--------------------------------------------------------------------------------------------------------


 soft charge-density along one line, spin component           1
         0         1         2         3         4         5         6         7         8         9
 total charge-density along one line

 pseudopotential strength for first ion, spin component:           1
 18.022 -18.526   0.000  -0.015   0.001  -0.000   0.056   0.001
-18.526  50.153  -0.000   0.005   0.001   0.000   0.031  -0.005
  0.000  -0.000   3.978  -0.000   0.000 -11.737   0.000  -0.000
 -0.015   0.005  -0.000   3.982  -0.000   0.000 -11.734   0.000
  0.001   0.001   0.000  -0.000   3.998  -0.000   0.000 -11.798
 -0.000   0.000 -11.737   0.000  -0.000  37.890  -0.000   0.000
  0.056   0.031   0.000 -11.734   0.000  -0.000  37.754   0.004
  0.001  -0.005  -0.000   0.000 -11.798   0.000   0.004  38.019
  0.000   0.000   0.002   0.000   0.000  -0.001  -0.000  -0.000
 -0.000  -0.000  -0.025   0.000   0.000   0.070  -0.000  -0.000
 -0.006  -0.016  -0.000   0.000  -0.000   0.000  -0.013   0.001
 -0.001   0.001   0.000  -0.000  -0.010  -0.000  -0.001   0.029
  0.021  -0.006   0.000   0.008  -0.001  -0.000  -0.021  -0.001
 -0.000   0.000   0.002  -0.000  -0.000  -0.009   0.000   0.000
  0.000  -0.000   0.056  -0.000  -0.000  -0.069   0.000   0.000
  0.068  -0.074   0.000   0.044  -0.001  -0.000  -0.166   0.004
 -0.001   0.002  -0.000  -0.000   0.041   0.000  -0.003  -0.116
 -0.077   0.061  -0.000  -0.008  -0.000   0.000  -0.023  -0.002
 total augmentation occupancy for first ion, spin component:           1
  1.829   0.017   0.000   0.280   0.000   0.000  -0.006   0.000   0.000   0.000  -0.006   0.000  -0.021   0.000   0.000   0.001
  0.017   0.000   0.000  -0.017   0.000   0.000  -0.000   0.000   0.000   0.000   0.001   0.000  -0.002   0.000   0.000   0.000
  0.000   0.000   1.252   0.000   0.000   0.034   0.000   0.000   0.000  -0.281   0.000   0.000   0.000   0.000  -0.001   0.000
  0.280  -0.017   0.000   1.554   0.000   0.000   0.033   0.000   0.000   0.000  -0.100   0.000   0.132   0.000   0.000   0.000
  0.000   0.000   0.000   0.000   0.000   0.000   0.000   0.000   0.000   0.000   0.000  -0.000   0.000   0.000   0.000   0.000
  0.000   0.000   0.034   0.000   0.000   0.001   0.000   0.000   0.000  -0.008   0.000   0.000   0.000   0.000  -0.000   0.000
 -0.006  -0.000   0.000   0.033   0.000   0.000   0.001   0.000   0.000   0.000  -0.002   0.000   0.003   0.000   0.000  -0.000
  0.000   0.000   0.000   0.000   0.000   0.000   0.000   0.000   0.000   0.000   0.000  -0.000   0.000   0.000   0.000   0.000
  0.000   0.000   0.000   0.000   0.000   0.000   0.000   0.000   0.000   0.000   0.000   0.000   0.000   0.000   0.000   0.000
  0.000   0.000  -0.281   0.000   0.000  -0.008   0.000   0.000   0.000   0.063   0.000   0.000   0.000   0.000   0.000   0.000
 -0.006   0.001   0.000  -0.100   0.000   0.000  -0.002   0.000   0.000   0.000   0.006   0.000  -0.009   0.000   0.000   0.000
  0.000   0.000   0.000   0.000  -0.000   0.000   0.000  -0.000   0.000   0.000   0.000   0.000   0.000   0.000   0.000   0.000
 -0.021  -0.002   0.000   0.132   0.000   0.000   0.003   0.000   0.000   0.000  -0.009   0.000   0.012   0.000   0.000  -0.000
  0.000   0.000   0.000   0.000   0.000   0.000   0.000   0.000   0.000   0.000   0.000   0.000   0.000   0.000   0.000   0.000
  0.000   0.000  -0.001   0.000   0.000  -0.000   0.000   0.000   0.000   0.000   0.000   0.000   0.000   0.000   0.000   0.000
  0.001   0.000   0.000   0.000   0.000   0.000  -0.000   0.000   0.000   0.000   0.000   0.000  -0.000   0.000   0.000   0.000
  0.000   0.000   0.000   0.000  -0.000   0.000   0.000  -0.000   0.000   0.000   0.000   0.000   0.000   0.000   0.000   0.000
 -0.003  -0.000   0.000  -0.001   0.000   0.000   0.000   0.000   0.000   0.000   0.000   0.000  -0.000   0.000   0.000  -0.000


------------------------ aborting loop because EDIFF is reached ----------------------------------------


    CHARGE:  cpu time      6.0358: real time      6.1249
    FORLOC:  cpu time      0.0083: real time      0.0084
    FORNL :  cpu time      0.1113: real time      0.1122
    STRESS:  cpu time     21.2021: real time     22.6523
    FORCOR:  cpu time      1.2124: real time      1.2573
    FORHAR:  cpu time      0.0916: real time      0.1009
    MIXING:  cpu time      0.0253: real time      0.0268
    OFIELD:  cpu time      0.0001: real time      0.0001

  FORCE on cell =-STRESS in cart. coord.  units (eV):
  Direction    XX          YY          ZZ          XY          YZ          ZX
  --------------------------------------------------------------------------------------
  Alpha Z     0.01571     0.01571     0.01571
  Ewald     -12.88688    35.35186    22.94050     0.00000    -0.00000     0.00000
  Hartree    33.31374    59.21958    51.01515    -0.00000    -0.00000    -0.00000
  E(xc)     -17.52067   -17.43182   -17.28162     0.00000     0.00000     0.00004
  Local     -63.83560  -149.00378  -132.70508     0.00000    -0.00000    -0.00000
  n-local    25.41801    32.68046    33.67385    -0.00000    -0.00000     0.00113
  augment    -4.74981    -5.71652    -5.95752     0.00000    -0.00000     0.00000
  Kinetic    40.23973    44.89235    48.28444    -0.00000    -0.00000     0.00115
  Fock        0.00000     0.00000     0.00000     0.00000     0.00000     0.00000
  -------------------------------------------------------------------------------------
  Total      -0.00576     0.00784    -0.01456     0.00000     0.00000     0.00000
  in kB      -0.00120     0.00164    -0.00304     0.00000     0.00000     0.00000
  external pressure =       -0.00 kB  Pullay stress =        0.00 kB


 VOLUME and BASIS-vectors are now :
 -----------------------------------------------------------------------------
  energy-cutoff  :      600.00
  volume of cell :     7680.09
      direct lattice vectors                 reciprocal lattice vectors
    19.989821674  0.000000000  0.000000000     0.050025459  0.000000000  0.000000000
     0.000000000 18.423477123  0.000000000     0.000000000  0.054278570  0.000000000
     0.000000000  0.000000000 20.853822133     0.000000000  0.000000000  0.047952840

  length of vectors
    19.989821674 18.423477123 20.853822133     0.050025459  0.054278570  0.047952840


 FORCES acting on ions
    electron-ion (+dipol)            ewald-force                    non-local-force                 convergence-correction
 -----------------------------------------------------------------------------------------------
   -.219E-10 0.324E-09 -.286E+02   -.380E-17 0.355E-14 0.350E+02   -.240E-18 0.106E-23 -.556E+01   0.679E-15 -.605E-15 0.447E-04
   0.319E-13 -.187E+02 0.154E+02   0.883E-18 0.207E+02 -.175E+02   -.535E-20 -.208E+01 0.207E+01   -.120E-15 0.264E-03 -.290E-03
   0.317E-13 0.187E+02 0.154E+02   -.232E-18 -.207E+02 -.175E+02   -.384E-20 0.208E+01 0.207E+01   -.340E-15 -.264E-03 -.290E-03
 -----------------------------------------------------------------------------------------------
   -.236E-10 0.360E-09 0.142E+01   -.315E-17 -.355E-14 0.355E-14   -.249E-18 0.000E+00 -.142E+01   0.219E-15 -.104E-14 -.535E-03


 POSITION                                       TOTAL-FORCE (eV/Angst)
 -----------------------------------------------------------------------------------
      9.99491      9.21174     10.70999        -0.000000      0.000000      0.003333
      9.99491     10.29401      9.64240         0.000000      0.006485     -0.001666
      9.99491      8.12947      9.64240         0.000000     -0.006485     -0.001666
 -----------------------------------------------------------------------------------
    total drift:                               -0.000000      0.000000      0.000965


--------------------------------------------------------------------------------------------------------



  FREE ENERGIE OF THE ION-ELECTRON SYSTEM (eV)
  ---------------------------------------------------
  free  energy   TOTEN  =       -14.01437890 eV

  energy  without entropy=      -14.01437890  energy(sigma->0) =      -14.01437890

 d Force =-0.1345538E-05[-0.140E-05,-0.129E-05]  d Energy =-0.1062872E-03 0.105E-03
 d Force =-0.1132198E-01[-0.113E-01,-0.113E-01]  d Ewald  =-0.1369831E-01 0.238E-02


--------------------------------------------------------------------------------------------------------


    POTLOK:  cpu time      1.9537: real time      2.0207


--------------------------------------------------------------------------------------------------------




--------------------------------------------------------------------------------------------------------


  
 reached required accuracy - stopping structural energy minimisation
     LOOP+:  cpu time    730.3555: real time    765.6076
