3
Lattice="20.0 0.0 0.0 0.0 20.0 0.0 0.0 0.0 20.0" Properties=species:S:1:pos:R:3:forces:R:3 energy=-131.95302132211788 free_energy=-131.95302132211788 pbc="T T T"
Si      10.00000000      10.00000000      10.22846662       0.00000000       0.00000000      -0.00001411
H       10.00000000      11.13057597       9.26911819       0.00000000      -0.00000598       0.00000705
H       10.00000000       8.86942403       9.26911819       0.00000000       0.00000598       0.00000705
