3
Lattice="20.0 0.0 0.0 0.0 20.0 0.0 0.0 0.0 20.0" Properties=species:S:1:pos:R:3:forces:R:3:energies:R:1 energy=-9.94118231609725 free_energy=-9.94118231609725 stress="0.0 0.0 0.0 0.0 -2.4106346461838604e-10 7.421660378661847e-19 0.0 7.421660378661847e-19 -1.6243817982800616e-10" pbc="T T T"
Si      10.00000000      10.00000000      10.26494367       0.00000000      -0.00000000       0.00000128      -2.59583366
H       10.00000000      11.11223194       9.25087966       0.00000000       0.00000087      -0.00000064      -3.67267433
H       10.00000000       8.88776806       9.25087966       0.00000000      -0.00000087      -0.00000064      -3.67267433
