 vasp.6.5.0 16Dec24 (build Jan 20 2025 08:32:48) complex                         
 executed on        HPECrayEX_GCC date 2025.07.22  06:01:10
 running  128 mpi-ranks, with    1 threads/rank, on    1 nodes
 distrk:  each k-point on  128 cores,    1 groups
 distr:  one band on NCORE=  16 cores,    8 groups


--------------------------------------------------------------------------------------------------------


 INCAR:
   SYSTEM = a-Si SPC
   NCORE = 16
   ISTART = 1
   ICHARG = 1
   ISPIN = 1
   ISYM = 1
   EDIFF = 1E-6
   NELM = 150
   EDIFFG = -0.01
   NSW = 0
   ISIF = 2
   IBRION = -1
   PREC = Accurate
   ENCUT = 1200
   KSPACING = 0.23
   KGAMMA = .TRUE.
   METAGGA = SCAN
   LASPH = .TRUE.
   LDIAG = .FALSE.
   LMIXTAU = .TRUE.
   ADDGRID = .TRUE.
   ALGO = Normal
   ISMEAR = 0
   SIGMA = 0.1
   LORBIT = 11
   NEDOS = 2000
   LWAVE = .FALSE.
   LCHARG = .FALSE.

 POTCAR:    PAW_PBE H 15Jun2001                   
 POTCAR:    PAW_PBE Si 05Jan2001                  
 POTCAR:    PAW_PBE H 15Jun2001                   
   SHA256 =  030f79b5d3ab3cf0e668861823c8fb652ff669f3e15e46930bd03bfd63a607b6 H/POTCAR              
   COPYR  = (c) Copyright 15Jun2001 Georg Kresse                                                    
   COPYR  = This file is part of the software VASP. Any use, copying, and all other rights are regul
   COPYR  = If you do not have a valid VASP license, you may not use, copy or distribute this file. 
   VRHFIN =H: ultrasoft test                                                                        
   LEXCH  = PE                                                                                      
   EATOM  =    12.4884 eV,    0.9179 Ry                                                             
                                                                                                    
   TITEL  = PAW_PBE H 15Jun2001                                                                     
   LULTRA =        F    use ultrasoft PP ?                                                          
   IUNSCR =        0    unscreen: 0-lin 1-nonlin 2-no                                               
   RPACOR =    0.000    partial core radius                                                         
   POMASS =    1.000; ZVAL   =    1.000    mass and valenz                                          
   RCORE  =    1.100    outmost cutoff radius                                                       
   RWIGS  =    0.700; RWIGS  =    0.370    wigner-seitz radius (au A)                               
   ENMAX  =  250.000; ENMIN  =  200.000 eV                                                          
   RCLOC  =    0.701    cutoff for local pot                                                        
   LCOR   =        T    correct aug charges                                                         
   LPAW   =        T    paw PP                                                                      
   EAUG   =  400.000                                                                                
   RMAX   =    1.123    core radius for proj-oper                                                   
   RAUG   =    1.200    factor for augmentation sphere                                              
   RDEP   =    1.112    radius for radial grids                                                     
   RDEPT  =    0.926    core radius for aug-charge                                                  
                                                                                                    
   Atomic configuration                                                                             
    2 entries                                                                                       
     n  l   j            E        occ.                                                              
     1  0  0.50        -6.4927   1.0000                                                             
     2  1  0.50        -3.4015   0.0000                                                             
   Description                                                                                      
     l       E           TYP  RCUT    TYP  RCUT                                                     
     0     -6.4927494     23  1.100                                                                 
     0      6.8029130     23  1.100                                                                 
     1     -4.0817478     23  1.100                                                                 
  local pseudopotential read in
  atomic valenz-charges read in
  non local Contribution for L=           0  read in
    real space projection operators read in
  non local Contribution for L=           0  read in
    real space projection operators read in
  non local Contribution for L=           1  read in
    real space projection operators read in
    PAW grid and wavefunctions read in

   number of l-projection  operators is LMAX  =           3
   number of lm-projection operators is LMMAX =           5

 POTCAR:    PAW_PBE Si 05Jan2001                  
   SHA256 =  79d9987ad8750f624c4d6acb2a16d13abf6a777132adc04dc6c8399be72b42bb Si/POTCAR             
   COPYR  = (c) Copyright 05Jan2001 Georg Kresse                                                    
   COPYR  = This file is part of the software VASP. Any use, copying, and all other rights are regul
   COPYR  = If you do not have a valid VASP license, you may not use, copy or distribute this file. 
   VRHFIN =Si: s2p2                                                                                 
   LEXCH  = PE                                                                                      
   EATOM  =   103.0669 eV,    7.5752 Ry                                                             
                                                                                                    
   TITEL  = PAW_PBE Si 05Jan2001                                                                    
   LULTRA =        F    use ultrasoft PP ?                                                          
   IUNSCR =        1    unscreen: 0-lin 1-nonlin 2-no                                               
   RPACOR =    1.500    partial core radius                                                         
   POMASS =   28.085; ZVAL   =    4.000    mass and valenz                                          
   RCORE  =    1.900    outmost cutoff radius                                                       
   RWIGS  =    2.480; RWIGS  =    1.312    wigner-seitz radius (au A)                               
   ENMAX  =  245.345; ENMIN  =  184.009 eV                                                          
   ICORE  =        2    local potential                                                             
   LCOR   =        T    correct aug charges                                                         
   LPAW   =        T    paw PP                                                                      
   EAUG   =  322.069                                                                                
   DEXC   =    0.000                                                                                
   RMAX   =    1.950    core radius for proj-oper                                                   
   RAUG   =    1.300    factor for augmentation sphere                                              
   RDEP   =    1.993    radius for radial grids                                                     
   RDEPT  =    1.837    core radius for aug-charge                                                  
                                                                                                    
   Atomic configuration                                                                             
    6 entries                                                                                       
     n  l   j            E        occ.                                                              
     1  0  0.50     -1785.8828   2.0000                                                             
     2  0  0.50      -139.4969   2.0000                                                             
     2  1  1.50       -95.5546   6.0000                                                             
     3  0  0.50       -10.8127   2.0000                                                             
     3  1  0.50        -4.0811   2.0000                                                             
     3  2  1.50        -4.0817   0.0000                                                             
   Description                                                                                      
     l       E           TYP  RCUT    TYP  RCUT                                                     
     0    -10.8127223     23  1.900                                                                 
     0     -7.6451159     23  1.900                                                                 
     1     -4.0811372     23  1.900                                                                 
     1      2.4879257     23  1.900                                                                 
     2     -4.0817478      7  1.900                                                                 
  local pseudopotential read in
  partial core-charges read in
  partial kinetic energy density read in
  atomic valenz-charges read in
  non local Contribution for L=           0  read in
    real space projection operators read in
  non local Contribution for L=           0  read in
    real space projection operators read in
  non local Contribution for L=           1  read in
    real space projection operators read in
  non local Contribution for L=           1  read in
    real space projection operators read in
    PAW grid and wavefunctions read in

   number of l-projection  operators is LMAX  =           4
   number of lm-projection operators is LMMAX =           8

 -----------------------------------------------------------------------------
|                                                                             |
|               ----> ADVICE to this user running VASP <----                  |
|                                                                             |
|     You have a (more or less) 'large supercell' and for larger cells it     |
|     might be more efficient to use real-space projection operators.         |
|     Therefore, try LREAL= Auto in the INCAR file.                           |
|     Mind: For very accurate calculation, you might also keep the            |
|     reciprocal projection scheme (i.e. LREAL=.FALSE.).                      |
|                                                                             |
 -----------------------------------------------------------------------------

 -----------------------------------------------------------------------------
|                                                                             |
|               ----> ADVICE to this user running VASP <----                  |
|                                                                             |
|     You enforced a specific xc type in the INCAR file but a different       |
|     type was found in the POTCAR file.                                      |
|     I HOPE YOU KNOW WHAT YOU ARE DOING!                                     |
|                                                                             |
 -----------------------------------------------------------------------------

  PAW_PBE H 15Jun2001                   :
 energy of atom  1       EATOM=  -12.4884
 kinetic energy error for atom=    0.0000 (will be added to EATOM!!)
  PAW_PBE Si 05Jan2001                  :
 energy of atom  2       EATOM= -103.0669
 kinetic energy error for atom=    0.0001 (will be added to EATOM!!)


 POSCAR:  H Si
  positions in cartesian coordinates
  No initial velocities read in


 exchange-correlation table for SCAN
   RHO(1)=    0.500       N(1)  =     2000
   RHO(2)=  100.500       N(2)  =     4000



--------------------------------------------------------------------------------------------------------


 ion  position               nearest neighbor table
   1  0.442  0.045  0.562-  75 1.56
   2  0.208  0.036  0.354-  28 1.69
   3  0.426  0.928  0.639-
   4  0.977  0.537  0.437-  52 1.65
   5  0.217  0.201  0.583-  92 1.52
   6  0.399  0.455  0.514-  54 1.50
   7  0.641  0.529  0.473-  20 1.55
   8  0.611  0.833  0.499-  48 1.47
   9  0.356  0.779  0.608-  89 2.30  31 2.39  24 2.58
  10  0.105  0.661  0.418-  52 2.32  51 2.38  34 2.38
  11  0.639  0.676  0.570-  69 2.32  77 2.32  68 2.35  48 2.42
  12  0.431  0.238  0.580-  45 2.28  18 2.34  27 2.35  83 2.38
  13  0.725  0.338  0.512-  70 2.25  20 2.30  63 2.31  88 2.37
  14  0.957  0.306  0.473-  88 2.36  49 2.37  29 2.37  71 2.39
  15  0.822  0.490  0.419-  88 2.34  23 2.38  73 2.38
  16  0.998  0.262  0.608-  29 2.24  17 2.29  91 2.41
  17  0.007  0.412  0.633-  16 2.29  21 2.32  41 2.42
  18  0.576  0.199  0.610-  12 2.34  26 2.41  70 2.43
  19  0.090  0.836  0.599-  78 2.23  89 2.32  22 2.45
  20  0.615  0.452  0.509-   7 1.55  68 2.23  54 2.28  13 2.30
  21  0.120  0.493  0.593-  74 2.31  17 2.32  37 2.38  81 2.46
  22  0.142  0.983  0.567-  42 2.41  19 2.45  50 2.46  30 2.48
  23  0.772  0.634  0.449-  77 2.25  62 2.27  15 2.38  65 2.43
  24  0.382  0.859  0.528-  75 2.29  61 2.36  50 2.36   9 2.58
  25  0.720  0.427  0.615-  41 2.30  68 2.39  70 2.45
  26  0.597  0.051  0.646-  18 2.41  79 2.42
  27  0.444  0.259  0.498-  46 2.29  12 2.35  54 2.36  57 2.39
  28  0.318  0.048  0.372-   2 1.69  38 2.36
  29  0.028  0.220  0.534-  16 2.24  14 2.37  42 2.41  92 2.44
  30  0.207  0.074  0.633-  45 2.31  22 2.48
  31  0.339  0.620  0.587-  59 2.25  37 2.33  32 2.36   9 2.39
  32  0.451  0.514  0.613-  31 2.36  83 2.41  68 2.42
  33  0.794  0.997  0.477-  39 2.25  84 2.31  80 2.38  40 2.48
  34  0.986  0.739  0.376-  65 2.23  10 2.38
  35  0.499  0.039  0.461-  64 2.23  38 2.29  75 2.45  46 2.47
  36  0.074  0.143  0.389-  71 2.36  86 2.38  53 2.54
  37  0.213  0.597  0.637-  31 2.33  21 2.38  89 2.41
  38  0.343  0.061  0.454-  35 2.29  57 2.31  50 2.34  28 2.36
  39  0.794  0.127  0.434-  33 2.25  71 2.31  63 2.38
  40  0.964  0.979  0.476-  43 2.37  42 2.39  86 2.46  33 2.48
  41  0.865  0.492  0.616-  67 2.18  25 2.30  17 2.42
  42  0.999  0.060  0.548-  44 2.37  40 2.39  29 2.41  22 2.41
  43  0.957  0.822  0.499-  78 2.20  65 2.33  72 2.35  40 2.37
  44  0.872  0.047  0.600-  42 2.37  91 2.40  84 2.46
  45  0.353  0.114  0.609-  12 2.28  30 2.31
  46  0.540  0.199  0.441-  27 2.29  63 2.39  35 2.47
  47  0.295  0.815  0.385-  87 2.40  90 2.43
  48  0.572  0.740  0.499-   8 1.47  61 2.29  62 2.39  11 2.42
  49  0.079  0.378  0.431-  52 2.34  14 2.37  53 2.37
  50  0.265  0.965  0.507-  38 2.34  90 2.34  24 2.36  22 2.46
  51  0.172  0.747  0.481-  90 2.31  78 2.36  10 2.38  59 2.44
  52  0.080  0.527  0.461-   4 1.65  10 2.32  49 2.34  74 2.34  85 2.49
  53  0.190  0.263  0.414-  58 2.31  57 2.37  49 2.37  36 2.54
  54  0.472  0.416  0.482-   6 1.50  20 2.28  27 2.36  55 2.40
  55  0.421  0.424  0.402-  76 2.30  58 2.39  82 2.39  54 2.40
  56  0.537  0.625  0.372-  82 2.26  62 2.37  87 2.38
  57  0.296  0.209  0.471-  38 2.31  53 2.37  27 2.39  92 2.44  58 3.12
  58  0.321  0.305  0.373-  53 2.31  55 2.39  57 3.12
  59  0.293  0.648  0.512-  31 2.25  61 2.32  51 2.44  85 2.44
  60  0.646  0.838  0.389-  62 2.24  80 2.25  64 2.34
  61  0.418  0.728  0.483-  48 2.29  87 2.31  59 2.32  24 2.36
  62  0.639  0.700  0.424-  60 2.24  23 2.27  56 2.37  48 2.39
  63  0.694  0.255  0.443-  13 2.31  39 2.38  46 2.39  73 2.48
  64  0.533  0.950  0.399-  35 2.23  60 2.34
  65  0.884  0.755  0.435-  34 2.23  43 2.33  80 2.36  23 2.43
  66  0.848  0.768  0.629-  72 2.37
  67  0.886  0.547  0.544-  41 2.18  74 2.25  88 2.30  77 2.37
  68  0.604  0.519  0.579-  20 2.23  11 2.35  25 2.39  32 2.42
  69  0.608  0.780  0.630-  11 2.32  79 2.43
  70  0.719  0.270  0.583-  13 2.25  18 2.43  91 2.44  25 2.45
  71  0.928  0.200  0.410-  39 2.31  36 2.36  14 2.39
  72  0.827  0.807  0.548-  77 2.32  43 2.35  84 2.36  66 2.37
  73  0.699  0.395  0.393-  15 2.38  82 2.40  63 2.48
  74  0.037  0.575  0.538-  67 2.25  21 2.31  52 2.34  78 2.41
  75  0.497  0.964  0.539-   1 1.56  24 2.29  79 2.30  35 2.45
  76  0.324  0.548  0.411-  55 2.30  85 2.39  87 2.40
  77  0.775  0.661  0.528-  23 2.25  72 2.32  11 2.32  67 2.37
  78  0.058  0.740  0.540-  43 2.20  19 2.23  51 2.36  74 2.41
  79  0.616  0.928  0.589-  75 2.30  84 2.38  26 2.42  69 2.43
  80  0.783  0.878  0.419-  60 2.25  65 2.36  33 2.38
  81  0.238  0.397  0.556-  92 2.31  83 2.35  21 2.46  85 2.58
  82  0.563  0.472  0.366-  56 2.26  55 2.39  73 2.40
  83  0.361  0.375  0.609-  81 2.35  12 2.38  32 2.41
  84  0.762  0.955  0.554-  33 2.31  72 2.36  79 2.38  44 2.46
  85  0.244  0.499  0.481-  76 2.39  59 2.44  52 2.49  81 2.58
  86  0.074  0.984  0.410-  36 2.38  40 2.46  90 2.47
  87  0.401  0.693  0.403-  61 2.31  56 2.38  47 2.40  76 2.40
  88  0.857  0.427  0.493-  67 2.30  15 2.34  14 2.36  13 2.37
  89  0.210  0.763  0.638-   9 2.30  19 2.32  37 2.41
  90  0.196  0.886  0.444-  51 2.31  50 2.34  47 2.43  86 2.47
  91  0.848  0.202  0.626-  44 2.40  16 2.41  70 2.44
  92  0.194  0.249  0.537-   5 1.52  81 2.31  29 2.44  57 2.44

  LATTYP: Found a simple tetragonal cell.
 ALAT       =    14.5376711064
 C/A-ratio  =     1.9435198935
  
  Lattice vectors:
  
 A1 = (  14.5376711064,   0.0000000000,   0.0000000000)
 A2 = (   0.0000000000,  14.5376711064,   0.0000000000)
 A3 = (   0.0000000000,   0.0000000000,  28.2542530000)


Analysis of symmetry for initial positions (statically):
=====================================================================
 Subroutine PRICEL returns:
 Original cell was already a primitive cell.
 

 Routine SETGRP: Setting up the symmetry group for a 
 simple tetragonal supercell.


 Subroutine GETGRP returns: Found  1 space group operations
 (whereof  1 operations were pure point group operations)
 out of a pool of 16 trial point group operations.


The static configuration has the point symmetry C_1 .


Analysis of symmetry for dynamics (positions and initial velocities):
=====================================================================
 Subroutine PRICEL returns:
 Original cell was already a primitive cell.
 

 Routine SETGRP: Setting up the symmetry group for a 
 simple tetragonal supercell.


 Subroutine GETGRP returns: Found  1 space group operations
 (whereof  1 operations were pure point group operations)
 out of a pool of 16 trial point group operations.


The dynamic configuration has the point symmetry C_1 .


 Subroutine INISYM returns: Found  1 space group operations
 (whereof  1 operations are pure point group operations),
 and found     1 'primitive' translations


----------------------------------------------------------------------------------------

                                     Primitive cell                                     

  volume of cell :    5971.3635

  direct lattice vectors                    reciprocal lattice vectors
    14.537671106  0.000000000  0.000000000     0.068786809  0.000000000  0.000000000
     0.000000000 14.537671106  0.000000000     0.000000000  0.068786809  0.000000000
     0.000000000  0.000000000 28.254253000     0.000000000  0.000000000  0.035392902

  length of vectors
    14.537671106 14.537671106 28.254253000     0.068786809  0.068786809  0.035392902

  position of ions in fractional coordinates (direct lattice)
     0.442212508  0.044779456  0.562080441
     0.208205976  0.035981761  0.353929017
     0.426473398  0.928243589  0.638672804
     0.976793318  0.536519910  0.437085454
     0.216666753  0.200661439  0.583013573
     0.398929097  0.455451905  0.513816203
     0.641209994  0.528989131  0.473343358
     0.611450757  0.833496639  0.499280338
     0.355618170  0.779100030  0.607994591
     0.104733419  0.660609250  0.418042657
     0.638711657  0.676256873  0.569923509
     0.430806279  0.238073896  0.580014379
     0.724916661  0.337935833  0.511655467
     0.957271622  0.306305595  0.472680095
     0.822360054  0.490117705  0.418966766
     0.997704508  0.262387281  0.608228538
     0.006569464  0.411780536  0.633418374
     0.576388745  0.199168765  0.609592581
     0.090321207  0.835663423  0.598701477
     0.615435577  0.451998807  0.508649193
     0.119767464  0.493040457  0.593256633
     0.141993170  0.983018524  0.566517296
     0.771519724  0.633940604  0.449140276
     0.381592757  0.859250420  0.527500161
     0.720349217  0.426716216  0.615118120
     0.597098389  0.050715482  0.646070983
     0.443912230  0.258702372  0.497797376
     0.317970462  0.048291848  0.372128578
     0.028387628  0.220316581  0.533799035
     0.206713990  0.073519341  0.633108332
     0.339138227  0.620494846  0.586964483
     0.450892027  0.514327222  0.613026400
     0.794054283  0.996817158  0.477047933
     0.985907570  0.739086744  0.376319204
     0.498650021  0.039092850  0.460908416
     0.073571619  0.142795224  0.388941091
     0.213091903  0.597472589  0.636669212
     0.343326656  0.060968294  0.454264815
     0.794164341  0.126671596  0.433741179
     0.964012729  0.978884437  0.476231065
     0.864725850  0.492232899  0.615542127
     0.999465166  0.059566900  0.547521925
     0.957306015  0.822305025  0.499477123
     0.872285520  0.047260046  0.599883246
     0.353240898  0.113646126  0.609068766
     0.539591929  0.199185274  0.441164132
     0.295354047  0.814862292  0.385210007
     0.572002210  0.740242362  0.498749799
     0.078723751  0.378138971  0.430736321
     0.264807201  0.965188984  0.507170832
     0.172363234  0.746639535  0.480500157
     0.079692269  0.527318299  0.461424799
     0.190006362  0.263185896  0.413942036
     0.471941479  0.415889172  0.482110534
     0.420675358  0.424422176  0.401662822
     0.536719392  0.624601419  0.371865326
     0.295831428  0.209131846  0.471147583
     0.321497850  0.305200191  0.373310524
     0.292727079  0.647621612  0.512252545
     0.646045706  0.837775178  0.388616255
     0.418144004  0.727633740  0.482613821
     0.638682079  0.700469829  0.424272870
     0.694251502  0.255245835  0.443462193
     0.532768278  0.950145309  0.399179656
     0.883979277  0.754777015  0.434918347
     0.847859324  0.767695177  0.628792168
     0.886139183  0.546568975  0.544379390
     0.603659275  0.519257861  0.579419778
     0.607783732  0.780386344  0.629861034
     0.719042268  0.269872662  0.583006141
     0.927507570  0.200190249  0.409996435
     0.827092587  0.806587239  0.547993713
     0.699183516  0.394872051  0.393341420
     0.037457513  0.575427793  0.537503257
     0.496891830  0.964157182  0.538632644
     0.324347687  0.548193720  0.411330747
     0.774800855  0.661019219  0.527600323
     0.057882449  0.739671432  0.539532686
     0.615522248  0.927521327  0.589073546
     0.783096544  0.878325002  0.419372015
     0.237811818  0.396957667  0.555572395
     0.562676782  0.472030214  0.366458600
     0.360583890  0.375200399  0.608529024
     0.762164718  0.954760903  0.554314531
     0.244240633  0.498995331  0.480804536
     0.073744962  0.984263566  0.410179062
     0.401097945  0.693419182  0.403208076
     0.856746580  0.427037450  0.493153827
     0.209997184  0.763340972  0.638428593
     0.196453750  0.886379937  0.443983177
     0.847529148  0.202496671  0.626326345
     0.193686456  0.248629920  0.536596844

  ion indices of the primitive-cell ions
   primitive index   ion index
                 1           1
                 2           2
                 3           3
                 4           4
                 5           5
                 6           6
                 7           7
                 8           8
                 9           9
                10          10
                11          11
                12          12
                13          13
                14          14
                15          15
                16          16
                17          17
                18          18
                19          19
                20          20
                21          21
                22          22
                23          23
                24          24
                25          25
                26          26
                27          27
                28          28
                29          29
                30          30
                31          31
                32          32
                33          33
                34          34
                35          35
                36          36
                37          37
                38          38
                39          39
                40          40
                41          41
                42          42
                43          43
                44          44
                45          45
                46          46
                47          47
                48          48
                49          49
                50          50
                51          51
                52          52
                53          53
                54          54
                55          55
                56          56
                57          57
                58          58
                59          59
                60          60
                61          61
                62          62
                63          63
                64          64
                65          65
                66          66
                67          67
                68          68
                69          69
                70          70
                71          71
                72          72
                73          73
                74          74
                75          75
                76          76
                77          77
                78          78
                79          79
                80          80
                81          81
                82          82
                83          83
                84          84
                85          85
                86          86
                87          87
                88          88
                89          89
                90          90
                91          91
                92          92

----------------------------------------------------------------------------------------


 -----------------------------------------------------------------------------
|                                                                             |
|           W    W    AA    RRRRR   N    N  II  N    N   GGGG   !!!           |
|           W    W   A  A   R    R  NN   N  II  NN   N  G    G  !!!           |
|           W    W  A    A  R    R  N N  N  II  N N  N  G       !!!           |
|           W WW W  AAAAAA  RRRRR   N  N N  II  N  N N  G  GGG   !            |
|           WW  WW  A    A  R   R   N   NN  II  N   NN  G    G                |
|           W    W  A    A  R    R  N    N  II  N    N   GGGG   !!!           |
|                                                                             |
|     The requested file  could not be found or opened for reading            |
|     k-point information. Automatic k-point generation is used as a          |
|     fallback, which may lead to unwanted results.                           |
|                                                                             |
 -----------------------------------------------------------------------------



Automatic generation of k-mesh.
 Grid dimensions derived from KSPACING:
 generate k-points for:    2    2    1

 Generating k-lattice:

  Cartesian coordinates                     Fractional coordinates (reciprocal lattice)
     0.034393404  0.000000000  0.000000000     0.500000000  0.000000000  0.000000000
     0.000000000  0.034393404  0.000000000     0.000000000  0.500000000  0.000000000
     0.000000000  0.000000000  0.035392902     0.000000000  0.000000000  1.000000000

  Length of vectors
     0.034393404  0.034393404  0.035392902

  Shift w.r.t. Gamma in fractional coordinates (k-lattice)
     0.000000000  0.000000000  0.000000000

 
 Subroutine IBZKPT returns following result:
 ===========================================
 
 Found      4 irreducible k-points:
 
 Following reciprocal coordinates:
            Coordinates               Weight
  0.000000  0.000000  0.000000      1.000000
  0.500000  0.000000  0.000000      1.000000
  0.000000  0.500000  0.000000      1.000000
  0.500000  0.500000  0.000000      1.000000
 
 Following cartesian coordinates:
            Coordinates               Weight
  0.000000  0.000000  0.000000      1.000000
  0.034393  0.000000  0.000000      1.000000
  0.000000  0.034393  0.000000      1.000000
  0.034393  0.034393  0.000000      1.000000
 


--------------------------------------------------------------------------------------------------------




 Dimension of arrays:
   k-points           NKPTS =      4   k-points in BZ     NKDIM =      4   number of bands    NBANDS=    224
   number of dos      NEDOS =   2000   number of ions     NIONS =     92
   non local maximal  LDIM  =      4   non local SUM 2l+1 LMDIM =      8
   total plane-waves  NPLWV = ******
   max r-space proj   IRMAX =      1   max aug-charges    IRDMAX= 404715
   dimension x,y,z NGX =   168 NGY =  168 NGZ =  320
   dimension x,y,z NGXF=   336 NGYF=  336 NGZF=  640
   support grid    NGXF=   672 NGYF=  672 NGZF= 1280
   ions per type =               8  84
   NGX,Y,Z   is equivalent  to a cutoff of  19.21, 19.21, 18.83 a.u.
   NGXF,Y,Z  is equivalent  to a cutoff of  38.42, 38.42, 37.66 a.u.

 SYSTEM =  a-Si SPC                                
 POSCAR =   H Si                                   

 Startparameter for this run:
   NWRITE =      2    write-flag & timer
   PREC   = accura    normal or accurate (medium, high low for compatibility)
   ISTART =      1    job   : 0-new  1-cont  2-samecut
   ICHARG =      1    charge: 1-file 2-atom 10-const
   ISPIN  =      1    spin polarized calculation?
   LNONCOLLINEAR =      F non collinear calculations
   LSORBIT =      F    spin-orbit coupling
   INIWAV =      1    electr: 0-lowe 1-rand  2-diag
   LASPH  =      T    aspherical Exc in radial PAW
 Electronic Relaxation 1
   ENCUT  = 1200.0 eV  88.20 Ry    9.39 a.u.  41.06 41.06 79.81*2*pi/ulx,y,z
   ENINI  = 1200.0     initial cutoff
   ENAUG  =  400.0 eV  augmentation charge cutoff
   NELM   =    150;   NELMIN=  2; NELMDL=  0     # of ELM steps 
   EDIFF  = 0.1E-05   stopping-criterion for ELM
   LREAL  =      F    real-space projection
   NLSPLINE    = F    spline interpolate recip. space projectors
   LCOMPAT=      F    compatible to vasp.4.4
   GGA_COMPAT  = T    GGA compatible to vasp.4.4-vasp.4.6
   LMAXPAW     = -100 max onsite density
   LMAXMIX     =    2 max onsite mixed and CHGCAR
   VOSKOWN=      0    Vosko Wilk Nusair interpolation
   ROPT   =    0.00000   0.00000
 Ionic relaxation
   EDIFFG = -.1E-01   stopping-criterion for IOM
   NSW    =      0    number of steps for IOM
   NBLOCK =      1;   KBLOCK =      1    inner block; outer block 
   IBRION =     -1    ionic relax: 0-MD 1-quasi-New 2-CG
   NFREE  =      0    steps in history (QN), initial steepest desc. (CG)
   ISIF   =      2    stress and relaxation
   IWAVPR =     10    prediction:  0-non 1-charg 2-wave 3-comb
   ISYM   =      1    0-nonsym 1-usesym 2-fastsym
   LCORR  =      T    Harris-Foulkes like correction to forces

   POTIM  = 0.5000    time-step for ionic-motion
   TEIN   =    0.0    initial temperature
   TEBEG  =    0.0;   TEEND  =   0.0 temperature during run
   SMASS  =  -3.00    Nose mass-parameter (am)
   estimated Nose-frequenzy (Omega)   =  0.10E-29 period in steps = 0.13E+47 mass=  -0.483E-26a.u.
   SCALEE = 1.0000    scale energy and forces
   NPACO  =    256;   APACO  = 10.0  distance and # of slots for P.C.
   PSTRESS=    0.0 pullay stress

  Mass of Ions in am
   POMASS =   1.00 28.09
  Ionic Valenz
   ZVAL   =   1.00  4.00
  Atomic Wigner-Seitz radii
   RWIGS  =  -1.00 -1.00
  virtual crystal weights 
   VCA    =   1.00  1.00
   NELECT =     344.0000    total number of electrons
   NUPDOWN=      -1.0000    fix difference up-down

 DOS related values:
   EMIN   =  10.00;   EMAX   =-10.00  energy-range for DOS
   EFERMI =   0.00;   METHOD = LEGACY      
   ISMEAR =     0;   SIGMA  =   0.10  broadening in eV -4-tet -1-fermi 0-gaus
   EFERMI_NEDOS =   21; number of points for ismear=-14 and -15

 Electronic relaxation 2 (details)
   IALGO  =     38    algorithm
   LDIAG  =      F    sub-space diagonalisation (order eigenvalues)
   LSUBROT=      F    optimize rotation matrix (better conditioning)
   TURBO    =      0    0=normal 1=particle mesh
   IRESTART =      0    0=no restart 2=restart with 2 vectors
   NREBOOT  =      0    no. of reboots
   NMIN     =      0    reboot dimension
   EREF     =   0.00    reference energy to select bands
   IMIX   =      4    mixing-type and parameters
     AMIX     =   0.40;   BMIX     =  1.00
     AMIX_MAG =   1.60;   BMIX_MAG =  1.00
     AMIN     =   0.10
     WC   =   100.;   INIMIX=   1;  MIXPRE=   1;  MAXMIX= -45

 Intra band minimization:
   WEIMIN = 0.0000     energy-eigenvalue tresh-hold
   EBREAK =  0.11E-08  absolut break condition
   DEPER  =   0.30     relativ break condition  

   TIME   =   0.40     timestep for ELM

  volume/ion in A,a.u.               =      64.91       438.01
  Fermi-wavevector in a.u.,A,eV,Ry     =   0.632271  1.194819  5.439152  0.399766
  Thomas-Fermi vector in A             =   1.695530

 Write flags
   LWAVE        =      F    write WAVECAR
   LDOWNSAMPLE  =      F    k-point downsampling of WAVECAR
   LCHARG       =      F    write CHGCAR
   LVTOT        =      F    write LOCPOT, total local potential
   LVHAR        =      F    write LOCPOT, Hartree potential only
   WRT_POTENTIAL= false  ! write potential to hdf5 file
   LELF         =      F    write electronic localiz. function (ELF)
   LORBIT       =     11    0 simple, 1 ext, 2 COOP (PROOUT), +10 PAW based schemes


 Python interface
   PLUGINS active      =      F    recompile with -DPLUGINS to activate

 Dipole corrections
   LMONO      =      F    monopole corrections only (constant potential shift)
   LDIPOL     =      F    correct potential (dipole corrections)
   IDIPOL     =      0    1-x, 2-y, 3-z, 4-all directions 
   EPSILON    =  1.0000000 bulk dielectric constant
   LVACPOTAV  =      F  vacuum potentials using an averaging scheme for the charge density
   VACPOTFLAT =  0.1000000 required flatness to determine vacuum potential

Coulomb truncation method
  LTRUNCATE          =      F  Coulomb kernel truncation to be used
  IDIMENSIONALITY    =      3  Dimensionality of cutoff (0 molecules / 2 surfaces)
  ISURFACE           =     -1  Direction of surface normal
  LCOARSEN           =      F  Coarsen the charge grid before padding, preferred


 Exchange correlation treatment:
   METAGGA = SCAN    functional components
   XC_C    = 1    coefficients multiplying the functional components
   LIBXC   =     F    Libxc                    
   VOSKOWN =     0    Vosko Wilk Nusair interpolation
   LHFCALC =     F    Hartree Fock is set to
   LHFONE  =     F    Hartree Fock one center treatment
   AEXX    =    0.0000 exact exchange contribution

 Parameters of functionals:
   SCAN:
     P1 =  0.000000E+00
     P2 =  0.000000E+00
     P3 =  0.000000E+00

 Accuracy and mixing parameters for tau-dependent meta-GGA functionals:
   LMAXTAU = 6
   LMIXTAU = T

 Van der Waals corrections
   IVDW    =     0    specifies the selected vdW correction

 Linear response parameters
   LEPSILON=     F    determine dielectric tensor
   LRPA    =     F    only Hartree local field effects (RPA)
   LNABLA  =     F    use nabla operator in PAW spheres
   LVEL    =     F    velocity operator in full k-point grid
   CSHIFT  =0.1000    complex shift for real part using Kramers Kronig
   OMEGAMAX=  -1.0    maximum frequency
   DEG_THRESHOLD= 0.2000000E-02 threshold for treating states as degnerate
   RTIME   =   -0.100 relaxation time in fs
  (WPLASMAI=    0.000 imaginary part of plasma frequency in eV, 0.658/RTIME)
   DFIELD  = 0.0000000 0.0000000 0.0000000 field for delta impulse in time

  Optional k-point grid parameters
   LKPOINTS_OPT  =     F    use optional k-point grid
   KPOINTS_OPT_MODE=     1    mode for optional k-point grid

 Orbital magnetization related:
   ORBITALMAG=     F  switch on orbital magnetization
   LCHIMAG   =     F  perturbation theory with respect to B field
   DQ        =  0.001000  dq finite difference perturbation B field
   LLRAUG    =     F  two centre corrections for induced B field
   LBONE     =     F  B-component reconstruction in AE one-centre
   LVGVCALC  =     T  calculate vGv susceptibility
   LVGVAPPL  =     F  apply vGv susceptibility instead of pGv for G=0

 Random number generation:
   RANDOM_GENERATOR = DEFAULT
   PCG_SEED         = not used


--------------------------------------------------------------------------------------------------------


 Static calculation
 charge density and potential will be updated during run
 non-spin polarized calculation
 Variant of blocked Davidson
 perform Loewdin sub-space diagonalisation
    ordering is kept fixed
    before iterative eigenvector-optimisation
 modified Broyden-mixing scheme, WC =      100.0
 initial mixing is a Kerker type mixing with AMIX =  0.4000 and BMIX =      1.0000
 Hartree-type preconditioning will be used
 using additional bands           52
 reciprocal scheme for non local part
 use partial core corrections
 calculate Harris-corrections to forces   (improved forces if not selfconsistent)
 use gradient corrections 
 use of overlap-Matrix (Vanderbilt PP)
 Gauss-broadening in eV      SIGMA  =   0.10


--------------------------------------------------------------------------------------------------------


  energy-cutoff  :     1200.00
  volume of cell :     5971.36
      direct lattice vectors                 reciprocal lattice vectors
    14.537671106  0.000000000  0.000000000     0.068786809  0.000000000  0.000000000
     0.000000000 14.537671106  0.000000000     0.000000000  0.068786809  0.000000000
     0.000000000  0.000000000 28.254253000     0.000000000  0.000000000  0.035392902

  length of vectors
    14.537671106 14.537671106 28.254253000     0.068786809  0.068786809  0.035392902



 old parameters found on file WAVECAR:
  energy-cutoff  :     1200.00
  volume of cell :     5971.36
      direct lattice vectors                 reciprocal lattice vectors
    14.537671106  0.000000000  0.000000000     0.068786809  0.000000000  0.000000000
     0.000000000 14.537671106  0.000000000     0.000000000  0.068786809  0.000000000
     0.000000000  0.000000000 28.254253000     0.000000000  0.000000000  0.035392902

  length of vectors


 k-points in units of 2pi/SCALE and weight: read from INCAR                         
   0.00000000  0.00000000  0.00000000       0.250
   0.03439340  0.00000000  0.00000000       0.250
   0.00000000  0.03439340  0.00000000       0.250
   0.03439340  0.03439340  0.00000000       0.250

 k-points in reciprocal lattice and weights: read from INCAR                         
   0.00000000  0.00000000  0.00000000       0.250
   0.50000000  0.00000000  0.00000000       0.250
   0.00000000  0.50000000  0.00000000       0.250
   0.50000000  0.50000000  0.00000000       0.250

 position of ions in fractional coordinates (direct lattice) 
   0.44221251  0.04477946  0.56208044
   0.20820598  0.03598176  0.35392902
   0.42647340  0.92824359  0.63867280
   0.97679332  0.53651991  0.43708545
   0.21666675  0.20066144  0.58301357
   0.39892910  0.45545191  0.51381620
   0.64120999  0.52898913  0.47334336
   0.61145076  0.83349664  0.49928034
   0.35561817  0.77910003  0.60799459
   0.10473342  0.66060925  0.41804266
   0.63871166  0.67625687  0.56992351
   0.43080628  0.23807390  0.58001438
   0.72491666  0.33793583  0.51165547
   0.95727162  0.30630560  0.47268010
   0.82236005  0.49011771  0.41896677
   0.99770451  0.26238728  0.60822854
   0.00656946  0.41178054  0.63341837
   0.57638874  0.19916876  0.60959258
   0.09032121  0.83566342  0.59870148
   0.61543558  0.45199881  0.50864919
   0.11976746  0.49304046  0.59325663
   0.14199317  0.98301852  0.56651730
   0.77151972  0.63394060  0.44914028
   0.38159276  0.85925042  0.52750016
   0.72034922  0.42671622  0.61511812
   0.59709839  0.05071548  0.64607098
   0.44391223  0.25870237  0.49779738
   0.31797046  0.04829185  0.37212858
   0.02838763  0.22031658  0.53379904
   0.20671399  0.07351934  0.63310833
   0.33913823  0.62049485  0.58696448
   0.45089203  0.51432722  0.61302640
   0.79405428  0.99681716  0.47704793
   0.98590757  0.73908674  0.37631920
   0.49865002  0.03909285  0.46090842
   0.07357162  0.14279522  0.38894109
   0.21309190  0.59747259  0.63666921
   0.34332666  0.06096829  0.45426481
   0.79416434  0.12667160  0.43374118
   0.96401273  0.97888444  0.47623107
   0.86472585  0.49223290  0.61554213
   0.99946517  0.05956690  0.54752193
   0.95730602  0.82230502  0.49947712
   0.87228552  0.04726005  0.59988325
   0.35324090  0.11364613  0.60906877
   0.53959193  0.19918527  0.44116413
   0.29535405  0.81486229  0.38521001
   0.57200221  0.74024236  0.49874980
   0.07872375  0.37813897  0.43073632
   0.26480720  0.96518898  0.50717083
   0.17236323  0.74663954  0.48050016
   0.07969227  0.52731830  0.46142480
   0.19000636  0.26318590  0.41394204
   0.47194148  0.41588917  0.48211053
   0.42067536  0.42442218  0.40166282
   0.53671939  0.62460142  0.37186533
   0.29583143  0.20913185  0.47114758
   0.32149785  0.30520019  0.37331052
   0.29272708  0.64762161  0.51225254
   0.64604571  0.83777518  0.38861626
   0.41814400  0.72763374  0.48261382
   0.63868208  0.70046983  0.42427287
   0.69425150  0.25524583  0.44346219
   0.53276828  0.95014531  0.39917966
   0.88397928  0.75477701  0.43491835
   0.84785932  0.76769518  0.62879217
   0.88613918  0.54656898  0.54437939
   0.60365927  0.51925786  0.57941978
   0.60778373  0.78038634  0.62986103
   0.71904227  0.26987266  0.58300614
   0.92750757  0.20019025  0.40999643
   0.82709259  0.80658724  0.54799371
   0.69918352  0.39487205  0.39334142
   0.03745751  0.57542779  0.53750326
   0.49689183  0.96415718  0.53863264
   0.32434769  0.54819372  0.41133075
   0.77480085  0.66101922  0.52760032
   0.05788245  0.73967143  0.53953269
   0.61552225  0.92752133  0.58907355
   0.78309654  0.87832500  0.41937201
   0.23781182  0.39695767  0.55557239
   0.56267678  0.47203021  0.36645860
   0.36058389  0.37520040  0.60852902
   0.76216472  0.95476090  0.55431453
   0.24424063  0.49899533  0.48080454
   0.07374496  0.98426357  0.41017906
   0.40109794  0.69341918  0.40320808
   0.85674658  0.42703745  0.49315383
   0.20999718  0.76334097  0.63842859
   0.19645375  0.88637994  0.44398318
   0.84752915  0.20249667  0.62632634
   0.19368646  0.24862992  0.53659684

 position of ions in cartesian coordinates  (Angst):
   6.42874000  0.65098900 15.88116300
   3.02683000  0.52309100 10.00000000
   6.19993000 13.49450000 18.04522300
  14.20030000  7.79975000 12.34952300
   3.14983000  2.91715000 16.47261300
   5.79950000  6.62121000 14.51749300
   9.32170000  7.69027000 13.37396300
   8.88907000 12.11710000 14.10679300
   5.16986000 11.32630000 17.17843300
   1.52258000  9.60372000 11.81148300
   9.28538000  9.83120000 16.10276300
   6.26292000  3.46104000 16.38787300
  10.53860000  4.91280000 14.45644300
  13.91650000  4.45297000 13.35522300
  11.95520000  7.12517000 11.83759300
  14.50430000  3.81450000 17.18504300
   0.09550470  5.98633000 17.89676300
   8.37935000  2.89545000 17.22358300
   1.31306000 12.14860000 16.91586300
   8.94700000  6.57101000 14.37150300
   1.74114000  7.16766000 16.76202300
   2.06425000 14.29080000 16.00652300
  11.21610000  9.21602000 12.69012300
   5.54747000 12.49150000 14.90412300
  10.47220000  6.20346000 17.37970300
   8.68042000  0.73728500 18.25425300
   6.45345000  3.76093000 14.06489300
   4.62255000  0.70205100 10.51421500
   0.41269000  3.20289000 15.08209300
   3.00514000  1.06880000 17.88800300
   4.93028000  9.02055000 16.58424300
   6.55492000  7.47712000 17.32060300
  11.54370000 14.49140000 13.47863300
  14.33280000 10.74460000 10.63261800
   7.24921000  0.56831900 13.02262300
   1.06956000  2.07591000 10.98924000
   3.09786000  8.68586000 17.98861300
   4.99117000  0.88633700 12.83491300
  11.54530000  1.84151000 12.25503300
  14.01450000 14.23070000 13.45555300
  12.57110000  7.15592000 17.39168300
  14.52989587  0.86596400 15.46982300
  13.91700000 11.95440000 14.11235300
  12.68100000  0.68705100 16.94925300
   5.13530000  1.65215000 17.20878300
   7.84441000  2.89569000 12.46476300
   4.29376000 11.84620000 10.88382100
   8.31558000 10.76140000 14.09180300
   1.14446000  5.49726000 12.17013300
   3.84968000 14.03160000 14.32973300
   2.50576000 10.85440000 13.57617300
   1.15854000  7.66598000 13.03721300
   2.76225000  3.82611000 11.69562300
   6.86093000  6.04606000 13.62167300
   6.11564000  6.17011000 11.34868300
   7.80265000  9.08025000 10.50677700
   4.30070000  3.04029000 13.31192300
   4.67383000  4.43690000 10.54761000
   4.25557000  9.41491000 14.47331300
   9.39200000 12.17930000 10.98006200
   6.07884000 10.57810000 13.63589300
   9.28495000 10.18320000 11.98751300
  10.09280000  3.71068000 12.52969300
   7.74521000 13.81290000 11.27852300
  12.85100000 10.97270000 12.28829300
  12.32590000 11.16050000 17.76605300
  12.88240000  7.94584000 15.38103300
   8.77580000  7.54880000 16.37107300
   8.83576000 11.34500000 17.79625300
  10.45320000  3.92332000 16.47240300
  13.48380000  2.91030000 11.58414300
  12.02400000 11.72590000 15.48315300
  10.16450000  5.74052000 11.11356800
   0.54454500  8.36538000 15.18675300
   7.22365000 14.01660000 15.21866300
   4.71526000  7.96946000 11.62184300
  11.26380000  9.60968000 14.90695300
   0.84147600 10.75310000 15.24409300
   8.94826000 13.48400000 16.64383300
  11.38440000 12.76880000 11.84904300
   3.45723000  5.77084000 15.69728300
   8.18001000  6.86222000 10.35401400
   5.24205000  5.45454000 17.19353300
  11.08010000 13.88000000 15.66174300
   3.55069000  7.25423000 13.58477300
   1.07208000 14.30890000 11.58930300
   5.83103000 10.08070000 11.39234300
  12.45510000  6.20813000 13.93369300
   3.05287000 11.09720000 18.03832300
   2.85598000 12.88590000 12.54441300
  12.32110000  2.94383000 17.69638300
   2.81575000  3.61450000 15.16114300



--------------------------------------------------------------------------------------------------------


 k-point     1 :   0.0000 0.0000 0.0000  plane waves:  563583
 k-point     2 :   0.5000 0.0000 0.0000  plane waves:  563730
 k-point     3 :   0.0000 0.5000 0.0000  plane waves:  563730
 k-point     4 :   0.5000 0.5000 0.0000  plane waves:  563788

 maximum and minimum number of plane-waves per node :     35298    35155

 maximum number of plane-waves:    563788
 maximum index in each direction: 
   IXMAX=   41   IYMAX=   41   IZMAX=   79
   IXMIN=  -41   IYMIN=  -41   IZMIN=  -79


 parallel 3D FFT for wavefunctions:
    minimum data exchange during FFTs selected (reduces bandwidth)
 parallel 3D FFT for charge:
    minimum data exchange during FFTs selected (reduces bandwidth)


 total amount of memory used by VASP MPI-rank0   356118. kBytes
=======================================================================

   base                                    :      30000. kBytes
   nonl-proj                               :      69963. kBytes
   fftplans                                :     108867. kBytes
   grid                                    :      83991. kBytes
   one-center                              :         18. kBytes
   wavefun                                 :      63279. kBytes

     INWAV:  cpu time     18.9516: real time     18.9625
 Broyden mixing: mesh for mixing (old mesh)
   NGX = 83   NGY = 83   NGZ =159
  (NGX  =336   NGY  =336   NGZ  =640)
  gives a total of ****** points

 initial charge density was supplied:
 number of electron     343.9999999 magnetization 
 keeping initial charge density in first step


--------------------------------------------------------------------------------------------------------


 Maximum index for augmentation-charges        11043 (set IRDMAX)


--------------------------------------------------------------------------------------------------------


 First call to EWALD:  gamma=   0.098
 Maximum number of real-space cells   3x   3x   2
 Maximum number of reciprocal cells   2x   2x   4

    FEWALD:  cpu time      0.0183: real time      0.0183


--------------------------------------- Ionic step        1  -------------------------------------------




--------------------------------------- Iteration      1(   1)  ---------------------------------------


    POTLOK:  cpu time      2.1759: real time      2.1768
    SETDIJ:  cpu time      1.6274: real time      1.6288
    EDDIAG:  cpu time     37.4179: real time     37.4402
     EDDAV:  cpu time    171.6306: real time    171.7318
       DOS:  cpu time      0.0073: real time      0.0073
    CHARGE:  cpu time     21.8036: real time     21.8230
    MIXING:  cpu time      0.0495: real time      0.0498
    --------------------------------------------
      LOOP:  cpu time    234.7123: real time    234.8579

 eigenvalue-minimisations  :  1792
 total energy-change (2. order) :-0.8574902E+03  (-0.9740852E+00)
 number of electron     343.9999999 magnetization 
 augmentation part      -19.1216000 magnetization 

 Broyden mixing:
  rms(total) = 0.10926E+01    rms(broyden)= 0.24642E+02
  rms(prec ) = 0.11213E+01
  weight for this iteration     100.00
  WARNING: grid for Broyden might be to small

 Free energy of the ion-electron system (eV)
  ---------------------------------------------------
  alpha Z        PSCENC =        41.84752616
  Ewald energy   TEWEN  =     51177.65864021
  -Hartree energ DENC   =    -58853.76070081
  -exchange      EXHF   =         0.00000000
  -V(xc)+E(xc)   XCENC  =      -402.22221481
  PAW double counting   =     29178.53176095   -28340.36038284
  entropy T*S    EENTRO =        -0.21800476
  eigenvalues    EBANDS =     -2416.48789174
  atomic energy  EATOM  =      8757.52110192
  Solvation  Ediel_sol  =         0.00000000
  ---------------------------------------------------
  free energy    TOTEN  =      -857.49016570 eV

  energy without entropy =     -857.27216094  energy(sigma->0) =     -857.38116332


--------------------------------------------------------------------------------------------------------




--------------------------------------- Iteration      1(   2)  ---------------------------------------


    POTLOK:  cpu time      2.1395: real time      2.1617
    SETDIJ:  cpu time      1.6226: real time      1.6235
    EDDIAG:  cpu time     37.5046: real time     37.5289
     EDDAV:  cpu time    172.3274: real time    172.4225
       DOS:  cpu time      0.0033: real time      0.0033
    CHARGE:  cpu time     21.6458: real time     21.6652
    MIXING:  cpu time      0.0431: real time      0.0431
    --------------------------------------------
      LOOP:  cpu time    235.2863: real time    235.4483

 eigenvalue-minimisations  :  1800
 total energy-change (2. order) : 0.6169085E+02  (-0.9066606E+00)
 number of electron     343.9999999 magnetization 
 augmentation part      -19.0507359 magnetization 

 Broyden mixing:
  rms(total) = 0.73838E+00    rms(broyden)= 0.14277E+02
  rms(prec ) = 0.75351E+00
  weight for this iteration     100.00
  WARNING: grid for Broyden might be to small

 eigenvalues of (default mixing * dielectric matrix)
  average eigenvalue GAMMA=   0.6333
  0.6333

 Free energy of the ion-electron system (eV)
  ---------------------------------------------------
  alpha Z        PSCENC =        41.84752616
  Ewald energy   TEWEN  =     51177.65864021
  -Hartree energ DENC   =    -58842.66554979
  -exchange      EXHF   =         0.00000000
  -V(xc)+E(xc)   XCENC  =      -393.14976491
  PAW double counting   =     34857.33013383   -34018.94538467
  entropy T*S    EENTRO =        -0.20562478
  eigenvalues    EBANDS =     -2375.19039156
  atomic energy  EATOM  =      8757.52110192
  Solvation  Ediel_sol  =         0.00000000
  ---------------------------------------------------
  free energy    TOTEN  =      -795.79931359 eV

  energy without entropy =     -795.59368881  energy(sigma->0) =     -795.69650120


--------------------------------------------------------------------------------------------------------




--------------------------------------- Iteration      1(   3)  ---------------------------------------


    POTLOK:  cpu time      2.1415: real time      2.1628
    SETDIJ:  cpu time      1.6128: real time      1.6142
    EDDIAG:  cpu time     37.5206: real time     37.5430
     EDDAV:  cpu time    172.4839: real time    172.5725
       DOS:  cpu time      0.0020: real time      0.0020
    CHARGE:  cpu time     21.6366: real time     21.6574
    MIXING:  cpu time      0.0414: real time      0.0415
    --------------------------------------------
      LOOP:  cpu time    235.4388: real time    235.5934

 eigenvalue-minimisations  :  1808
 total energy-change (2. order) :-0.3385089E+01  (-0.7394463E+00)
 number of electron     343.9999999 magnetization 
 augmentation part      -18.9877796 magnetization 

 Broyden mixing:
  rms(total) = 0.29743E+00    rms(broyden)= 0.22514E+02
  rms(prec ) = 0.38393E+00
  weight for this iteration     100.00
  WARNING: grid for Broyden might be to small

 eigenvalues of (default mixing * dielectric matrix)
  average eigenvalue GAMMA=   0.7772
  0.9305  0.6240

 Free energy of the ion-electron system (eV)
  ---------------------------------------------------
  alpha Z        PSCENC =        41.84752616
  Ewald energy   TEWEN  =     51177.65864021
  -Hartree energ DENC   =    -58840.93447424
  -exchange      EXHF   =         0.00000000
  -V(xc)+E(xc)   XCENC  =      -396.73605388
  PAW double counting   =     41830.76459144   -40992.52300867
  entropy T*S    EENTRO =        -0.21299027
  eigenvalues    EBANDS =     -2376.56973497
  atomic energy  EATOM  =      8757.52110192
  Solvation  Ediel_sol  =         0.00000000
  ---------------------------------------------------
  free energy    TOTEN  =      -799.18440229 eV

  energy without entropy =     -798.97141203  energy(sigma->0) =     -799.07790716


--------------------------------------------------------------------------------------------------------




--------------------------------------- Iteration      1(   4)  ---------------------------------------


    POTLOK:  cpu time      2.1336: real time      2.1616
    SETDIJ:  cpu time      1.6198: real time      1.6208
    EDDIAG:  cpu time     37.5461: real time     37.5704
     EDDAV:  cpu time    185.8479: real time    185.9490
       DOS:  cpu time      0.0021: real time      0.0021
    CHARGE:  cpu time     21.6397: real time     21.6585
    MIXING:  cpu time      0.0413: real time      0.0413
    --------------------------------------------
      LOOP:  cpu time    248.8305: real time    249.0037

 eigenvalue-minimisations  :  2048
 total energy-change (2. order) : 0.3947663E+00  (-0.1048095E+00)
 number of electron     343.9999999 magnetization 
 augmentation part      -18.9804796 magnetization 

 Broyden mixing:
  rms(total) = 0.10161E+00    rms(broyden)= 0.16370E+01
  rms(prec ) = 0.17021E+00
  weight for this iteration     100.00
  WARNING: grid for Broyden might be to small

 eigenvalues of (default mixing * dielectric matrix)
  average eigenvalue GAMMA=   0.9660
  1.6906  0.6449  0.5624

 Free energy of the ion-electron system (eV)
  ---------------------------------------------------
  alpha Z        PSCENC =        41.84752616
  Ewald energy   TEWEN  =     51177.65864021
  -Hartree energ DENC   =    -58841.42850583
  -exchange      EXHF   =         0.00000000
  -V(xc)+E(xc)   XCENC  =      -397.61435975
  PAW double counting   =     46660.41192149   -45822.22324050
  entropy T*S    EENTRO =        -0.20250280
  eigenvalues    EBANDS =     -2374.76021694
  atomic energy  EATOM  =      8757.52110192
  Solvation  Ediel_sol  =         0.00000000
  ---------------------------------------------------
  free energy    TOTEN  =      -798.78963603 eV

  energy without entropy =     -798.58713323  energy(sigma->0) =     -798.68838463


--------------------------------------------------------------------------------------------------------




--------------------------------------- Iteration      1(   5)  ---------------------------------------


    POTLOK:  cpu time      2.1459: real time      2.1723
    SETDIJ:  cpu time      1.6222: real time      1.6230
    EDDIAG:  cpu time     37.5247: real time     37.5473
     EDDAV:  cpu time    188.0199: real time    188.1297
       DOS:  cpu time      0.0037: real time      0.0037
    CHARGE:  cpu time     21.6408: real time     21.6604
    MIXING:  cpu time      0.0418: real time      0.0418
    --------------------------------------------
      LOOP:  cpu time    250.9989: real time    251.1783

 eigenvalue-minimisations  :  2088
 total energy-change (2. order) : 0.1121227E-01  (-0.3004564E-01)
 number of electron     343.9999999 magnetization 
 augmentation part      -18.9817667 magnetization 

 Broyden mixing:
  rms(total) = 0.65015E-01    rms(broyden)= 0.14787E+01
  rms(prec ) = 0.10720E+00
  weight for this iteration     100.00
  WARNING: grid for Broyden might be to small

 eigenvalues of (default mixing * dielectric matrix)
  average eigenvalue GAMMA=   1.0092
  2.3220  0.7427  0.6170  0.3551

 Free energy of the ion-electron system (eV)
  ---------------------------------------------------
  alpha Z        PSCENC =        41.84752616
  Ewald energy   TEWEN  =     51177.65864021
  -Hartree energ DENC   =    -58842.47848798
  -exchange      EXHF   =         0.00000000
  -V(xc)+E(xc)   XCENC  =      -398.58542233
  PAW double counting   =     46543.25066927   -45705.04841565
  entropy T*S    EENTRO =        -0.21067589
  eigenvalues    EBANDS =     -2372.73335947
  atomic energy  EATOM  =      8757.52110192
  Solvation  Ediel_sol  =         0.00000000
  ---------------------------------------------------
  free energy    TOTEN  =      -798.77842376 eV

  energy without entropy =     -798.56774787  energy(sigma->0) =     -798.67308581


--------------------------------------------------------------------------------------------------------




--------------------------------------- Iteration      1(   6)  ---------------------------------------


    POTLOK:  cpu time      2.1376: real time      2.1666
    SETDIJ:  cpu time      1.6165: real time      1.6176
    EDDIAG:  cpu time     37.5382: real time     37.5602
     EDDAV:  cpu time    181.6311: real time    181.7395
       DOS:  cpu time      0.0020: real time      0.0020
    CHARGE:  cpu time     21.6258: real time     21.6455
    MIXING:  cpu time      0.0428: real time      0.0429
    --------------------------------------------
      LOOP:  cpu time    244.5940: real time    244.7742

 eigenvalue-minimisations  :  1968
 total energy-change (2. order) : 0.9488954E-02  (-0.1354389E-01)
 number of electron     343.9999999 magnetization 
 augmentation part      -18.9826785 magnetization 

 Broyden mixing:
  rms(total) = 0.33376E-01    rms(broyden)= 0.20651E+00
  rms(prec ) = 0.39641E-01
  weight for this iteration     100.00
  WARNING: grid for Broyden might be to small

 eigenvalues of (default mixing * dielectric matrix)
  average eigenvalue GAMMA=   0.9637
  2.5239  0.7880  0.6220  0.5566  0.3283

 Free energy of the ion-electron system (eV)
  ---------------------------------------------------
  alpha Z        PSCENC =        41.84752616
  Ewald energy   TEWEN  =     51177.65864021
  -Hartree energ DENC   =    -58842.39934220
  -exchange      EXHF   =         0.00000000
  -V(xc)+E(xc)   XCENC  =      -398.80725368
  PAW double counting   =     46288.60928567   -45450.39059904
  entropy T*S    EENTRO =        -0.21077112
  eigenvalues    EBANDS =     -2372.59752272
  atomic energy  EATOM  =      8757.52110192
  Solvation  Ediel_sol  =         0.00000000
  ---------------------------------------------------
  free energy    TOTEN  =      -798.76893481 eV

  energy without entropy =     -798.55816368  energy(sigma->0) =     -798.66354924


--------------------------------------------------------------------------------------------------------




--------------------------------------- Iteration      1(   7)  ---------------------------------------


    POTLOK:  cpu time      2.1342: real time      2.1658
    SETDIJ:  cpu time      1.6214: real time      1.6222
    EDDIAG:  cpu time     37.5317: real time     37.5552
     EDDAV:  cpu time    175.8596: real time    175.9572
       DOS:  cpu time      0.0019: real time      0.0019
    CHARGE:  cpu time     21.6454: real time     21.6649
    MIXING:  cpu time      0.0433: real time      0.0433
    --------------------------------------------
      LOOP:  cpu time    238.8375: real time    239.0107

 eigenvalue-minimisations  :  1864
 total energy-change (2. order) : 0.1863827E-02  (-0.3153600E-02)
 number of electron     343.9999999 magnetization 
 augmentation part      -18.9798708 magnetization 

 Broyden mixing:
  rms(total) = 0.19790E-01    rms(broyden)= 0.15940E+00
  rms(prec ) = 0.21005E-01
  weight for this iteration     100.00
  WARNING: grid for Broyden might be to small

 eigenvalues of (default mixing * dielectric matrix)
  average eigenvalue GAMMA=   0.9648
  2.5754  1.0330  0.3320  0.6933  0.6304  0.5245

 Free energy of the ion-electron system (eV)
  ---------------------------------------------------
  alpha Z        PSCENC =        41.84752616
  Ewald energy   TEWEN  =     51177.65864021
  -Hartree energ DENC   =    -58842.07694159
  -exchange      EXHF   =         0.00000000
  -V(xc)+E(xc)   XCENC  =      -398.70974906
  PAW double counting   =     46199.95848357   -45361.72701929
  entropy T*S    EENTRO =        -0.20944631
  eigenvalues    EBANDS =     -2373.02966659
  atomic energy  EATOM  =      8757.52110192
  Solvation  Ediel_sol  =         0.00000000
  ---------------------------------------------------
  free energy    TOTEN  =      -798.76707098 eV

  energy without entropy =     -798.55762467  energy(sigma->0) =     -798.66234783


--------------------------------------------------------------------------------------------------------




--------------------------------------- Iteration      1(   8)  ---------------------------------------


    POTLOK:  cpu time      2.1413: real time      2.1649
    SETDIJ:  cpu time      1.6182: real time      1.6192
    EDDIAG:  cpu time     37.5344: real time     37.5594
     EDDAV:  cpu time    175.4864: real time    175.5854
       DOS:  cpu time      0.0041: real time      0.0041
    CHARGE:  cpu time     21.6313: real time     21.6502
    MIXING:  cpu time      0.0436: real time      0.0436
    --------------------------------------------
      LOOP:  cpu time    238.4594: real time    238.6269

 eigenvalue-minimisations  :  1856
 total energy-change (2. order) :-0.3837051E-03  (-0.8026406E-03)
 number of electron     343.9999999 magnetization 
 augmentation part      -18.9782915 magnetization 

 Broyden mixing:
  rms(total) = 0.70720E-02    rms(broyden)= 0.51658E-01
  rms(prec ) = 0.76773E-02
  weight for this iteration     100.00
  WARNING: grid for Broyden might be to small

 eigenvalues of (default mixing * dielectric matrix)
  average eigenvalue GAMMA=   0.9859
  2.5768  1.2969  0.8366  0.3275  0.6955  0.6397  0.5286

 Free energy of the ion-electron system (eV)
  ---------------------------------------------------
  alpha Z        PSCENC =        41.84752616
  Ewald energy   TEWEN  =     51177.65864021
  -Hartree energ DENC   =    -58841.33565336
  -exchange      EXHF   =         0.00000000
  -V(xc)+E(xc)   XCENC  =      -398.49757398
  PAW double counting   =     46226.21329487   -45387.96835534
  entropy T*S    EENTRO =        -0.20996041
  eigenvalues    EBANDS =     -2373.99647476
  atomic energy  EATOM  =      8757.52110192
  Solvation  Ediel_sol  =         0.00000000
  ---------------------------------------------------
  free energy    TOTEN  =      -798.76745468 eV

  energy without entropy =     -798.55749428  energy(sigma->0) =     -798.66247448


--------------------------------------------------------------------------------------------------------




--------------------------------------- Iteration      1(   9)  ---------------------------------------


    POTLOK:  cpu time      2.1401: real time      2.1686
    SETDIJ:  cpu time      1.6155: real time      1.6163
    EDDIAG:  cpu time     37.5543: real time     37.5810
     EDDAV:  cpu time    187.4326: real time    187.5383
       DOS:  cpu time      0.0029: real time      0.0029
    CHARGE:  cpu time     21.6391: real time     21.6584
    MIXING:  cpu time      0.0443: real time      0.0443
    --------------------------------------------
      LOOP:  cpu time    250.4289: real time    250.6101

 eigenvalue-minimisations  :  2080
 total energy-change (2. order) :-0.3391401E-03  (-0.1472984E-03)
 number of electron     343.9999999 magnetization 
 augmentation part      -18.9781058 magnetization 

 Broyden mixing:
  rms(total) = 0.27118E-02    rms(broyden)= 0.34589E-01
  rms(prec ) = 0.30446E-02
  weight for this iteration     100.00
  WARNING: grid for Broyden might be to small

 eigenvalues of (default mixing * dielectric matrix)
  average eigenvalue GAMMA=   1.0485
  2.5568  1.9884  0.9003  0.3272  0.7712  0.5258  0.6893  0.6292

 Free energy of the ion-electron system (eV)
  ---------------------------------------------------
  alpha Z        PSCENC =        41.84752616
  Ewald energy   TEWEN  =     51177.65864021
  -Hartree energ DENC   =    -58841.00219814
  -exchange      EXHF   =         0.00000000
  -V(xc)+E(xc)   XCENC  =      -398.46504179
  PAW double counting   =     46251.25501910   -45413.00358158
  entropy T*S    EENTRO =        -0.20968621
  eigenvalues    EBANDS =     -2374.36957350
  atomic energy  EATOM  =      8757.52110192
  Solvation  Ediel_sol  =         0.00000000
  ---------------------------------------------------
  free energy    TOTEN  =      -798.76779382 eV

  energy without entropy =     -798.55810761  energy(sigma->0) =     -798.66295072


--------------------------------------------------------------------------------------------------------




--------------------------------------- Iteration      1(  10)  ---------------------------------------


    POTLOK:  cpu time      2.1346: real time      2.1632
    SETDIJ:  cpu time      1.6114: real time      1.6127
    EDDIAG:  cpu time     37.5357: real time     37.5587
     EDDAV:  cpu time    180.2194: real time    180.3237
       DOS:  cpu time      0.0040: real time      0.0040
    CHARGE:  cpu time     21.6320: real time     21.6510
    MIXING:  cpu time      0.0451: real time      0.0451
    --------------------------------------------
      LOOP:  cpu time    243.1819: real time    243.3581

 eigenvalue-minimisations  :  1944
 total energy-change (2. order) :-0.3384076E-04  (-0.5164099E-04)
 number of electron     343.9999999 magnetization 
 augmentation part      -18.9782122 magnetization 

 Broyden mixing:
  rms(total) = 0.15968E-02    rms(broyden)= 0.16745E-01
  rms(prec ) = 0.18725E-02
  weight for this iteration     100.00
  WARNING: grid for Broyden might be to small

 eigenvalues of (default mixing * dielectric matrix)
  average eigenvalue GAMMA=   1.0964
  2.5515  2.5515  0.9346  0.9346  0.3274  0.8041  0.6254  0.6035  0.5352

 Free energy of the ion-electron system (eV)
  ---------------------------------------------------
  alpha Z        PSCENC =        41.84752616
  Ewald energy   TEWEN  =     51177.65864021
  -Hartree energ DENC   =    -58840.75110222
  -exchange      EXHF   =         0.00000000
  -V(xc)+E(xc)   XCENC  =      -398.47845424
  PAW double counting   =     46250.69177542   -45412.43811207
  entropy T*S    EENTRO =        -0.20980860
  eigenvalues    EBANDS =     -2374.60939425
  atomic energy  EATOM  =      8757.52110192
  Solvation  Ediel_sol  =         0.00000000
  ---------------------------------------------------
  free energy    TOTEN  =      -798.76782766 eV

  energy without entropy =     -798.55801906  energy(sigma->0) =     -798.66292336


--------------------------------------------------------------------------------------------------------




--------------------------------------- Iteration      1(  11)  ---------------------------------------


    POTLOK:  cpu time      2.1384: real time      2.1706
    SETDIJ:  cpu time      1.6149: real time      1.6157
    EDDIAG:  cpu time     37.5963: real time     37.6177
     EDDAV:  cpu time    175.6615: real time    175.7586
       DOS:  cpu time      0.0034: real time      0.0034
    CHARGE:  cpu time     21.6302: real time     21.6491
    MIXING:  cpu time      0.0458: real time      0.0458
    --------------------------------------------
      LOOP:  cpu time    238.6904: real time    238.8610

 eigenvalue-minimisations  :  1864
 total energy-change (2. order) :-0.1001668E-03  (-0.2796583E-04)
 number of electron     343.9999999 magnetization 
 augmentation part      -18.9783324 magnetization 

 Broyden mixing:
  rms(total) = 0.10107E-02    rms(broyden)= 0.94596E-02
  rms(prec ) = 0.12817E-02
  weight for this iteration     100.00
  WARNING: grid for Broyden might be to small

 eigenvalues of (default mixing * dielectric matrix)
  average eigenvalue GAMMA=   1.0925
  2.6758  2.6758  1.1247  0.3274  0.8025  0.8025  0.7821  0.6248  0.5458  0.5636

 Free energy of the ion-electron system (eV)
  ---------------------------------------------------
  alpha Z        PSCENC =        41.84752616
  Ewald energy   TEWEN  =     51177.65864021
  -Hartree energ DENC   =    -58840.45026508
  -exchange      EXHF   =         0.00000000
  -V(xc)+E(xc)   XCENC  =      -398.49303395
  PAW double counting   =     46247.54599847   -45409.29105333
  entropy T*S    EENTRO =        -0.20969814
  eigenvalues    EBANDS =     -2374.89714410
  atomic energy  EATOM  =      8757.52110192
  Solvation  Ediel_sol  =         0.00000000
  ---------------------------------------------------
  free energy    TOTEN  =      -798.76792783 eV

  energy without entropy =     -798.55822969  energy(sigma->0) =     -798.66307876


--------------------------------------------------------------------------------------------------------




--------------------------------------- Iteration      1(  12)  ---------------------------------------


    POTLOK:  cpu time      2.1341: real time      2.1644
    SETDIJ:  cpu time      1.6156: real time      1.6171
    EDDIAG:  cpu time     37.5400: real time     37.5652
     EDDAV:  cpu time    175.4234: real time    175.5201
       DOS:  cpu time      0.0023: real time      0.0023
    CHARGE:  cpu time     21.6423: real time     21.6621
    MIXING:  cpu time      0.0467: real time      0.0467
    --------------------------------------------
      LOOP:  cpu time    238.4045: real time    238.5779

 eigenvalue-minimisations  :  1856
 total energy-change (2. order) :-0.1093390E-03  (-0.1814835E-04)
 number of electron     343.9999999 magnetization 
 augmentation part      -18.9784329 magnetization 

 Broyden mixing:
  rms(total) = 0.51008E-03    rms(broyden)= 0.47307E-02
  rms(prec ) = 0.74487E-03
  weight for this iteration     100.00
  WARNING: grid for Broyden might be to small

 eigenvalues of (default mixing * dielectric matrix)
  average eigenvalue GAMMA=   1.1080
  2.7383  2.7383  1.3480  1.0200  0.8998  0.3274  0.7951  0.6473  0.6317  0.5101
  0.5315

 Free energy of the ion-electron system (eV)
  ---------------------------------------------------
  alpha Z        PSCENC =        41.84752616
  Ewald energy   TEWEN  =     51177.65864021
  -Hartree energ DENC   =    -58840.19302667
  -exchange      EXHF   =         0.00000000
  -V(xc)+E(xc)   XCENC  =      -398.50162880
  PAW double counting   =     46245.23137177   -45406.97580157
  entropy T*S    EENTRO =        -0.20978780
  eigenvalues    EBANDS =     -2375.14643240
  atomic energy  EATOM  =      8757.52110192
  Solvation  Ediel_sol  =         0.00000000
  ---------------------------------------------------
  free energy    TOTEN  =      -798.76803717 eV

  energy without entropy =     -798.55824937  energy(sigma->0) =     -798.66314327


--------------------------------------------------------------------------------------------------------




--------------------------------------- Iteration      1(  13)  ---------------------------------------


    POTLOK:  cpu time      2.1344: real time      2.1638
    SETDIJ:  cpu time      1.6602: real time      1.6610
    EDDIAG:  cpu time     37.5574: real time     37.5820
     EDDAV:  cpu time    175.5112: real time    175.6073
       DOS:  cpu time      0.0054: real time      0.0054
    CHARGE:  cpu time     21.6675: real time     21.6868
    MIXING:  cpu time      0.0474: real time      0.0474
    --------------------------------------------
      LOOP:  cpu time    238.5836: real time    238.7538

 eigenvalue-minimisations  :  1856
 total energy-change (2. order) :-0.1216675E-03  (-0.1599578E-04)
 number of electron     343.9999999 magnetization 
 augmentation part      -18.9784747 magnetization 

 Broyden mixing:
  rms(total) = 0.32661E-03    rms(broyden)= 0.37203E-02
  rms(prec ) = 0.50476E-03
  weight for this iteration     100.00
  WARNING: grid for Broyden might be to small

 eigenvalues of (default mixing * dielectric matrix)
  average eigenvalue GAMMA=   1.1329
  2.8180  2.8180  1.8467  1.0814  0.8600  0.8600  0.3274  0.7201  0.6344  0.6344
  0.5297  0.4651

 Free energy of the ion-electron system (eV)
  ---------------------------------------------------
  alpha Z        PSCENC =        41.84752616
  Ewald energy   TEWEN  =     51177.65864021
  -Hartree energ DENC   =    -58839.95636683
  -exchange      EXHF   =         0.00000000
  -V(xc)+E(xc)   XCENC  =      -398.50563929
  PAW double counting   =     46244.78450395   -45406.52890075
  entropy T*S    EENTRO =        -0.20974657
  eigenvalues    EBANDS =     -2375.37927763
  atomic energy  EATOM  =      8757.52110192
  Solvation  Ediel_sol  =         0.00000000
  ---------------------------------------------------
  free energy    TOTEN  =      -798.76815884 eV

  energy without entropy =     -798.55841227  energy(sigma->0) =     -798.66328555


--------------------------------------------------------------------------------------------------------




--------------------------------------- Iteration      1(  14)  ---------------------------------------


    POTLOK:  cpu time      2.1664: real time      2.1683
    SETDIJ:  cpu time      1.6194: real time      1.6202
    EDDIAG:  cpu time     37.5369: real time     37.5611
     EDDAV:  cpu time    175.6482: real time    175.7459
       DOS:  cpu time      0.0026: real time      0.0026
    CHARGE:  cpu time     21.6411: real time     21.6604
    MIXING:  cpu time      0.0485: real time      0.0486
    --------------------------------------------
      LOOP:  cpu time    238.6632: real time    238.8072

 eigenvalue-minimisations  :  1856
 total energy-change (2. order) :-0.1333875E-03  (-0.1754781E-04)
 number of electron     343.9999999 magnetization 
 augmentation part      -18.9785431 magnetization 

 Broyden mixing:
  rms(total) = 0.20586E-03    rms(broyden)= 0.31746E-02
  rms(prec ) = 0.34602E-03
  weight for this iteration     100.00
  WARNING: grid for Broyden might be to small

 eigenvalues of (default mixing * dielectric matrix)
  average eigenvalue GAMMA=   1.1397
  2.8745  2.8745  2.0726  1.1138  0.9103  0.9103  0.3274  0.8111  0.6581  0.6581
  0.6165  0.5262  0.4624

 Free energy of the ion-electron system (eV)
  ---------------------------------------------------
  alpha Z        PSCENC =        41.84752616
  Ewald energy   TEWEN  =     51177.65864021
  -Hartree energ DENC   =    -58839.73827101
  -exchange      EXHF   =         0.00000000
  -V(xc)+E(xc)   XCENC  =      -398.51184045
  PAW double counting   =     46245.18463319   -45406.92938361
  entropy T*S    EENTRO =        -0.20975543
  eigenvalues    EBANDS =     -2375.59094321
  atomic energy  EATOM  =      8757.52110192
  Solvation  Ediel_sol  =         0.00000000
  ---------------------------------------------------
  free energy    TOTEN  =      -798.76829223 eV

  energy without entropy =     -798.55853680  energy(sigma->0) =     -798.66341451


--------------------------------------------------------------------------------------------------------




--------------------------------------- Iteration      1(  15)  ---------------------------------------


    POTLOK:  cpu time      2.1545: real time      2.1876
    SETDIJ:  cpu time      1.6207: real time      1.6216
    EDDIAG:  cpu time     37.5189: real time     37.5432
     EDDAV:  cpu time    175.4590: real time    175.5601
       DOS:  cpu time      0.0108: real time      0.0112
    CHARGE:  cpu time     21.6690: real time     21.6886
    MIXING:  cpu time      0.0639: real time      0.0642
    --------------------------------------------
      LOOP:  cpu time    238.4968: real time    238.6763

 eigenvalue-minimisations  :  1856
 total energy-change (2. order) :-0.1112636E-03  (-0.1634445E-04)
 number of electron     343.9999999 magnetization 
 augmentation part      -18.9785704 magnetization 

 Broyden mixing:
  rms(total) = 0.15873E-03    rms(broyden)= 0.32016E-02
  rms(prec ) = 0.24954E-03
  weight for this iteration     100.00
  WARNING: grid for Broyden might be to small

 eigenvalues of (default mixing * dielectric matrix)
  average eigenvalue GAMMA=   1.1706
  3.2040  2.7471  2.3332  1.4192  0.9972  0.8838  0.8838  0.3274  0.7247  0.5258
  0.6450  0.6176  0.6176  0.4612

 Free energy of the ion-electron system (eV)
  ---------------------------------------------------
  alpha Z        PSCENC =        41.84752616
  Ewald energy   TEWEN  =     51177.65864021
  -Hartree energ DENC   =    -58839.53795011
  -exchange      EXHF   =         0.00000000
  -V(xc)+E(xc)   XCENC  =      -398.51361865
  PAW double counting   =     46245.26097835   -45407.00601941
  entropy T*S    EENTRO =        -0.20975567
  eigenvalues    EBANDS =     -2375.78930630
  atomic energy  EATOM  =      8757.52110192
  Solvation  Ediel_sol  =         0.00000000
  ---------------------------------------------------
  free energy    TOTEN  =      -798.76840349 eV

  energy without entropy =     -798.55864782  energy(sigma->0) =     -798.66352566


--------------------------------------------------------------------------------------------------------




--------------------------------------- Iteration      1(  16)  ---------------------------------------


    POTLOK:  cpu time      2.1469: real time      2.1731
    SETDIJ:  cpu time      1.6297: real time      1.6321
    EDDIAG:  cpu time     37.5950: real time     37.6184
     EDDAV:  cpu time    174.6937: real time    174.7871
       DOS:  cpu time      0.0022: real time      0.0022
    CHARGE:  cpu time     21.6768: real time     21.6970
    MIXING:  cpu time      0.0504: real time      0.0505
    --------------------------------------------
      LOOP:  cpu time    237.7948: real time    237.9604

 eigenvalue-minimisations  :  1848
 total energy-change (2. order) :-0.8359291E-04  (-0.1301748E-04)
[...]
   0.123E+02 -.236E+02 -.253E+02   -.112E+02 0.218E+02 0.225E+02   -.154E+01 0.120E+01 0.273E+01   0.295E-04 0.141E-05 0.205E-04
   -.483E+01 -.108E+02 0.711E+02   0.180E+01 0.114E+02 -.717E+02   0.275E+01 -.117E+01 0.436E+00   0.161E-04 -.166E-04 0.345E-04
   0.403E+01 0.190E+02 0.143E+03   -.473E+01 -.174E+02 -.143E+03   0.577E+00 -.168E+01 -.114E+00   0.933E-06 -.126E-05 0.428E-05
   0.210E+02 0.303E+01 0.248E+03   -.195E+02 -.901E+00 -.247E+03   -.215E+01 -.177E+01 -.111E+01   0.471E-04 0.119E-04 -.158E-04
   -.849E+01 0.960E+00 0.663E+02   0.716E+01 -.197E+01 -.632E+02   0.276E+00 0.230E+00 -.298E+01   0.659E-05 -.157E-04 0.764E-05
   -.659E+00 0.270E+02 0.276E+03   -.159E+00 -.246E+02 -.275E+03   0.127E+01 -.252E+01 -.171E+01   0.773E-05 -.146E-04 -.125E-04
   -.623E+01 -.128E+02 0.343E+03   0.811E+01 0.126E+02 -.341E+03   -.159E+01 0.878E+00 -.110E+01   0.385E-05 -.126E-04 -.791E-05
   0.933E+01 0.171E+01 0.912E+02   -.810E+01 -.396E+01 -.902E+02   -.110E+01 0.248E+01 -.244E+00   0.413E-04 0.228E-04 -.722E-05
   -.555E+01 0.111E+02 0.339E+03   0.531E+01 -.119E+02 -.343E+03   0.708E+00 -.362E-01 0.296E+01   0.261E-04 0.705E-05 0.114E-04
   0.171E+01 0.304E+01 -.171E+02   -.520E+00 -.369E+01 0.175E+02   -.170E+01 0.279E+00 -.150E+01   0.296E-04 -.156E-04 0.219E-04
   -.167E+00 -.334E+02 0.327E+03   0.234E+01 0.320E+02 -.323E+03   -.222E+01 0.274E+01 -.414E+01   -.213E-04 -.168E-04 0.163E-05
   -.125E+02 -.376E+01 0.610E+02   0.123E+02 0.366E+01 -.607E+02   0.665E-01 0.655E+00 -.191E+00   0.151E-04 -.111E-04 0.292E-04
   -.424E+01 0.180E+01 0.224E+03   0.392E+01 -.152E+01 -.223E+03   -.648E+00 -.105E+01 -.131E+01   -.669E-05 -.132E-04 0.493E-05
   -.356E+01 0.352E+02 0.186E+03   0.298E+01 -.362E+02 -.184E+03   0.178E+00 0.356E+00 -.351E+01   -.572E-04 0.156E-04 -.189E-05
   -.796E+01 -.181E+02 0.294E+03   0.821E+01 0.201E+02 -.292E+03   -.521E+00 -.288E+01 -.271E+01   0.143E-04 0.183E-04 0.505E-05
   -.103E+01 0.186E+01 0.212E+03   0.291E+01 -.160E+01 -.212E+03   -.245E+01 -.471E+00 0.108E+01   -.257E-04 -.335E-04 -.683E-05
   -.122E+02 -.374E+01 -.335E+03   0.129E+02 0.279E+01 0.338E+03   -.759E+00 0.924E+00 -.309E+01   -.386E-04 -.175E-04 -.147E-05
   0.878E+00 -.709E+01 -.108E+03   0.368E+00 0.631E+01 0.109E+03   -.185E+01 0.153E+01 -.175E+01   -.256E-04 0.155E-04 0.161E-04
   0.126E+02 -.136E-02 -.225E+03   -.119E+02 0.511E+00 0.222E+03   -.976E+00 0.708E-01 0.451E+01   -.120E-04 -.346E-05 0.262E-04
   0.542E+01 0.181E+01 -.332E+03   -.665E+01 -.278E+01 0.337E+03   0.139E+01 0.141E+01 -.400E+01   -.414E-05 -.120E-04 0.884E-05
   0.267E+01 0.373E+02 -.198E+03   -.272E+01 -.364E+02 0.197E+03   -.253E+00 -.120E+01 0.282E+01   -.587E-04 0.128E-04 0.186E-04
   0.194E+02 -.406E+00 0.277E+03   -.193E+02 0.431E+00 -.276E+03   0.289E+00 0.161E-01 -.988E+00   -.947E-05 0.308E-04 -.177E-04
   0.463E+01 -.192E+02 -.129E+03   -.227E+01 0.184E+02 0.131E+03   -.166E+01 0.103E+01 -.118E+01   -.443E-04 -.274E-04 0.376E-04
   -.165E+02 0.324E+02 0.312E+03   0.175E+02 -.308E+02 -.309E+03   -.107E+01 -.121E+01 -.212E+01   -.313E-04 -.878E-05 -.194E-04
   0.166E+00 -.420E+01 -.948E+02   -.132E+01 0.210E+01 0.939E+02   0.164E+01 0.286E+01 0.902E+00   -.143E-04 0.194E-05 0.218E-04
   -.255E+02 -.156E+02 -.834E+02   0.242E+02 0.145E+02 0.840E+02   0.126E+01 0.170E+01 -.115E+01   0.180E-04 0.195E-05 0.234E-04
   0.325E+02 0.692E+00 0.270E+03   -.317E+02 -.147E+01 -.271E+03   -.129E+01 0.900E+00 0.593E+00   0.194E-04 -.290E-04 -.586E-05
   -.144E+01 0.965E+00 -.759E+02   0.609E+00 -.247E+00 0.747E+02   0.957E+00 -.542E+00 0.193E+01   -.230E-04 -.515E-05 0.341E-04
   0.619E+01 0.492E+01 -.115E+03   -.610E+01 -.220E+01 0.113E+03   0.693E+00 -.399E+01 0.129E+01   -.593E-05 -.171E-04 0.183E-04
   -.899E+01 -.108E+02 -.218E+03   0.833E+01 0.987E+01 0.218E+03   0.104E+01 0.986E+00 0.720E+00   -.143E-05 -.615E-05 0.271E-04
   -.781E+01 -.416E+02 0.256E+03   0.584E+01 0.392E+02 -.255E+03   0.169E+01 0.282E+01 -.889E+00   -.194E-04 -.172E-04 -.652E-05
   0.410E+01 0.755E+01 -.133E+03   -.378E+01 -.952E+01 0.134E+03   -.656E+00 0.297E+01 -.124E+01   0.327E-04 0.424E-05 0.146E-04
   -.193E+02 0.287E+02 0.346E+03   0.178E+02 -.276E+02 -.344E+03   0.147E+01 -.202E+01 -.169E+01   -.451E-05 -.246E-04 -.145E-04
   -.304E+01 0.130E+02 -.298E+03   0.241E+01 -.124E+02 0.297E+03   0.113E+01 0.253E+00 0.108E+01   0.301E-04 -.707E-05 0.256E-04
   0.133E+02 -.332E+02 -.137E+03   -.131E+02 0.317E+02 0.136E+03   -.352E+00 0.132E+01 0.146E+01   -.515E-04 -.264E-04 0.344E-04
   0.122E+01 0.291E+02 0.744E+02   -.197E+01 -.275E+02 -.752E+02   0.750E+00 -.145E+01 0.116E+01   0.306E-04 -.554E-05 0.596E-05
   0.162E+02 0.393E+01 0.267E+03   -.181E+02 -.364E+01 -.267E+03   0.139E+01 -.482E+00 0.335E+00   0.131E-04 -.359E-05 -.479E-05
   0.474E+01 -.180E+02 0.286E+03   -.475E+01 0.168E+02 -.282E+03   -.355E+00 0.849E+00 -.380E+01   0.279E-04 -.264E-04 -.342E-05
   -.119E+02 0.232E+02 0.369E+02   0.109E+02 -.223E+02 -.383E+02   0.580E+00 -.187E+01 0.780E+00   -.249E-04 0.112E-04 0.136E-04
   0.157E+02 -.274E+02 -.348E+03   -.147E+02 0.266E+02 0.344E+03   -.151E+01 -.218E-02 0.344E+01   0.160E-04 -.195E-05 0.244E-04
   0.154E+02 -.175E+02 0.185E+03   -.137E+02 0.168E+02 -.181E+03   -.131E+01 0.983E+00 -.370E+01   0.701E-05 0.153E-05 0.225E-04
   0.122E+02 0.117E+02 -.308E+03   -.109E+02 -.116E+02 0.308E+03   -.112E+01 -.853E+00 -.873E+00   -.432E-04 0.253E-04 0.357E-04
   0.124E+02 0.150E+02 -.752E+02   -.125E+02 -.145E+02 0.772E+02   -.710E+00 -.639E+00 -.281E+01   0.375E-04 0.225E-04 0.733E-05
 -----------------------------------------------------------------------------------------------
   -.134E+02 0.113E+02 0.936E+01   -.249E-13 -.995E-13 0.000E+00   0.134E+02 -.113E+02 -.936E+01   0.918E-04 -.669E-04 0.981E-03


 POSITION                                       TOTAL-FORCE (eV/Angst)
 -----------------------------------------------------------------------------------
      6.42874      0.65099     15.88116        -0.236945     -0.065450      0.102127
      3.02683      0.52309     10.00000         1.468875      0.133301      0.653964
      6.19993     13.49450     18.04522        -0.226350     -0.421723     -0.367812
     14.20030      7.79975     12.34952        -0.096347     -0.279154      0.122804
      3.14983      2.91715     16.47261         0.121999     -0.458422      0.332902
      5.79950      6.62121     14.51749         0.267005      0.395769     -0.190565
      9.32170      7.69027     13.37396         0.092445     -0.396386      0.568405
      8.88907     12.11710     14.10679        -0.231520      0.550546      0.193633
      5.16986     11.32630     17.17843         1.033031      1.309937     -0.783118
      1.52258      9.60372     11.81148         0.273324      0.576788      0.027439
      9.28538      9.83120     16.10276        -0.349324     -0.482405     -0.687141
      6.26292      3.46104     16.38787         0.547535      0.792642      0.691754
     10.53860      4.91280     14.45644         0.340295      0.671180     -0.784032
     13.91650      4.45297     13.35522         0.647876      0.089339     -0.395913
     11.95520      7.12517     11.83759         0.084646      0.063011      0.276480
     14.50430      3.81450     17.18504        -1.311315      0.708722      1.111315
      0.09550      5.98633     17.89676        -0.669776      0.039167     -0.510581
      8.37935      2.89545     17.22358         0.744967     -0.952092     -0.478908
      1.31306     12.14860     16.91586         0.499467      0.844289      1.002982
      8.94700      6.57101     14.37150        -0.073817      0.595541     -1.353887
      1.74114      7.16766     16.76202         0.548261     -0.260644      0.299389
      2.06425     14.29080     16.00652         0.468277      0.071116      0.346020
     11.21610      9.21602     12.69012         0.977283     -0.040843     -1.377359
      5.54747     12.49150     14.90412        -0.916398     -0.391529      1.090118
     10.47220      6.20346     17.37970        -0.033541     -0.058029     -0.426282
      8.68042      0.73728     18.25425        -0.673257      0.590059     -0.413901
      6.45345      3.76093     14.06489        -0.296736      0.573171     -0.540944
      4.62255      0.70205     10.51421        -0.501718     -0.567684     -0.526472
      0.41269      3.20289     15.08209         1.124639     -0.701561     -0.522936
      3.00514      1.06880     17.88800         0.088010      0.149855     -0.630125
      4.93028      9.02055     16.58424         0.583530      0.052812      1.715464
      6.55492      7.47712     17.32060        -0.390898     -1.051691     -0.625152
     11.54370     14.49140     13.47863         0.929497     -0.490841     -1.004965
     14.33280     10.74460     10.63262         1.327497      0.070549     -0.883757
      7.24921      0.56832     13.02262         0.793736      0.896005      0.958950
      1.06956      2.07591     10.98924         0.297259      0.040382      0.837737
      3.09786      8.68586     17.98861         0.093106      0.722262     -0.258159
      4.99117      0.88634     12.83491        -1.073211      0.000775     -0.042702
     11.54530      1.84151     12.25503        -0.003546      1.166394     -0.442369
     14.01450     14.23070     13.45555         0.010973     -0.167760      0.175282
     12.57110      7.15592     17.39168         0.113429     -1.154743      1.793132
     14.52990      0.86596     15.46982         0.602341      0.076709     -0.356095
     13.91700     11.95440     14.11235        -1.410207      0.782634     -0.519309
     12.68100      0.68705     16.94925        -0.369666      0.474473     -0.548500
      5.13530      1.65215     17.20878         0.154102     -1.442449      0.088552
      7.84441      2.89569     12.46476         0.010372     -0.744001      0.072999
      4.29376     11.84620     10.88382         0.039568      0.648506     -0.082153
      8.31558     10.76140     14.09180         0.582346     -1.102280      0.062559
      1.14446      5.49726     12.17013        -0.219076     -0.497507      0.297724
      3.84968     14.03160     14.32973        -0.526669     -0.578927     -0.029343
      2.50576     10.85440     13.57617        -0.144436     -0.640156     -0.189100
      1.15854      7.66598     13.03721        -0.126867     -0.125385     -0.498749
      2.76225      3.82611     11.69562        -0.729910      0.273078     -0.385796
      6.86093      6.04606     13.62167        -1.090744     -0.773501      0.011428
      6.11564      6.17011     11.34868         0.511866     -0.148686     -0.088307
      7.80265      9.08025     10.50678         0.193354      0.602932      0.728311
      4.30070      3.04029     13.31192         0.064439      0.361582      0.728206
      4.67383      4.43690     10.54761         0.436944     -0.807967      0.078016
      4.25557      9.41491     14.47331        -0.555947     -0.357281     -1.154506
      9.39200     12.17930     10.98006        -0.146355      1.519957     -0.052704
      6.07884     10.57810     13.63589        -0.184090      0.620452      0.050208
      9.28495     10.18320     11.98751        -0.997526     -0.784781     -0.159222
     10.09280      3.71068     12.52969        -0.400350     -0.556003     -0.852705
      7.74521     13.81290     11.27852        -0.222949     -1.150783     -1.044532
     12.85100     10.97270     12.28829        -0.708661     -0.170074      0.493639
     12.32590     11.16050     17.76605        -0.176264      0.091571     -0.342514
     12.88240      7.94584     15.38103        -0.709139      0.781115     -0.521479
      8.77580      7.54880     16.37107        -0.300905      0.568462      1.788167
      8.83576     11.34500     17.79625         0.331520      0.539323      0.296330
     10.45320      3.92332     16.47240        -0.330033     -0.239520      2.418462
     13.48380      2.91030     11.58414         0.451340     -0.030993      0.380874
     12.02400     11.72590     15.48315         0.636375      0.252213      0.547636
     10.16450      5.74052     11.11357        -0.245831      0.420321      0.439912
      0.54455      8.36538     15.18675         0.555163      0.920226      0.029180
      7.22365     14.01660     15.21866        -0.053258      0.741288     -0.565775
      4.71526      7.96946     11.62184        -0.399242      0.107390      0.208765
     11.26380      9.60968     14.90695         0.183400      0.167164      0.833010
      0.84148     10.75310     15.24409         0.818644     -1.427156     -0.495138
      8.94826     13.48400     16.64383         0.423140      0.199372      0.302605
     11.38440     12.76880     11.84904        -0.259980      0.442651      0.404969
      3.45723      5.77084     15.69728        -0.386514      1.136972     -0.154420
      8.18001      6.86222     10.35401        -0.056800     -1.021899      0.624568
      5.24205      5.45454     17.19353         0.625191      0.919978     -0.482454
     11.08010     13.88000     15.66174        -0.052549     -0.082671      0.927517
      3.55069      7.25423     13.58477         0.022757      0.211373      0.506956
      1.07208     14.30890     11.58930        -0.445904     -0.122519      0.765211
      5.83103     10.08070     11.39234        -0.399977     -0.434544     -0.292133
     12.45510      6.20813     13.93369        -0.455054     -1.157896     -0.668383
      3.05287     11.09720     18.03832        -0.567391     -0.900057     -0.552693
      2.85598     12.88590     12.54441         0.332111      0.344501     -0.120757
     12.32110      2.94383     17.69638         0.134078     -0.811448     -1.081975
      2.81575      3.61450     15.16114        -0.829024     -0.258415     -0.899880
 -----------------------------------------------------------------------------------
    total drift:                                0.009691     -0.008486     -0.007684


--------------------------------------------------------------------------------------------------------



  FREE ENERGIE OF THE ION-ELECTRON SYSTEM (eV)
  ---------------------------------------------------
  free  energy   TOTEN  =      -798.76856449 eV

  energy  without entropy=     -798.55880812  energy(sigma->0) =     -798.66368630



--------------------------------------------------------------------------------------------------------


    POTLOK:  cpu time      3.7429: real time      3.7452


--------------------------------------------------------------------------------------------------------


     LOOP+:  cpu time   5399.5024: real time   5403.3619
    4ORBIT:  cpu time      0.0000: real time      0.0000



 total charge

# of ion       s       p       d       tot
------------------------------------------
    1        0.551   0.015   0.000   0.566
    2        0.494   0.010   0.000   0.504
    3        0.385   0.002   0.000   0.387
    4        0.492   0.013   0.000   0.505
    5        0.550   0.018   0.000   0.567
    6        0.560   0.018   0.000   0.578
    7        0.543   0.015   0.000   0.558
    8        0.573   0.018   0.000   0.591
    9        0.792   0.787   0.000   1.579
   10        0.802   0.840   0.000   1.642
   11        0.758   0.939   0.000   1.697
   12        0.758   0.929   0.000   1.686
   13        0.769   0.962   0.000   1.731
   14        0.758   0.905   0.000   1.663
   15        0.785   0.850   0.000   1.635
   16        0.785   0.883   0.000   1.669
   17        0.782   0.869   0.000   1.651
   18        0.789   0.828   0.000   1.617
   19        0.786   0.869   0.000   1.656
   20        0.753   1.001   0.000   1.755
   21        0.753   0.922   0.000   1.675
   22        0.759   0.852   0.000   1.612
   23        0.767   0.944   0.000   1.711
   24        0.762   0.914   0.000   1.676
   25        0.791   0.840   0.000   1.631
   26        0.861   0.698   0.000   1.559
   27        0.766   0.926   0.000   1.692
   28        0.848   0.698   0.000   1.547
   29        0.766   0.912   0.000   1.678
   30        0.874   0.701   0.000   1.576
   31        0.759   0.930   0.000   1.689
   32        0.799   0.818   0.000   1.616
   33        0.768   0.913   0.000   1.681
   34        0.867   0.751   0.000   1.618
   35        0.760   0.928   0.000   1.688
   36        0.793   0.800   0.000   1.593
   37        0.799   0.838   0.000   1.637
   38        0.760   0.955   0.000   1.715
   39        0.782   0.870   0.000   1.652
   40        0.764   0.868   0.000   1.633
   41        0.782   0.891   0.000   1.673
   42        0.756   0.893   0.000   1.649
   43        0.761   0.981   0.000   1.743
   44        0.784   0.822   0.000   1.606
   45        0.835   0.761   0.000   1.596
   46        0.809   0.832   0.000   1.641
   47        0.845   0.717   0.000   1.562
   48        0.762   0.952   0.000   1.714
   49        0.812   0.834   0.000   1.646
   50        0.758   0.919   0.000   1.677
   51        0.769   0.907   0.000   1.676
   52        0.735   0.947   0.000   1.682
   53        0.759   0.878   0.000   1.637
   54        0.761   0.954   0.000   1.716
   55        0.757   0.901   0.000   1.658
   56        0.783   0.871   0.000   1.654
   57        0.755   0.911   0.000   1.666
   58        0.851   0.741   0.000   1.592
   59        0.766   0.919   0.000   1.685
   60        0.777   0.921   0.000   1.698
   61        0.765   0.945   0.000   1.710
   62        0.759   0.959   0.000   1.718
   63        0.752   0.898   0.000   1.650
   64        0.822   0.782   0.000   1.603
   65        0.766   0.944   0.000   1.711
   66        0.914   0.605   0.000   1.519
   67        0.762   0.996   0.000   1.759
   68        0.752   0.948   0.000   1.700
   69        0.865   0.721   0.000   1.586
   70        0.759   0.882   0.000   1.641
   71        0.786   0.850   0.000   1.636
   72        0.758   0.955   0.000   1.713
   73        0.787   0.807   0.000   1.593
   74        0.768   0.955   0.000   1.723
   75        0.771   0.913   0.000   1.685
   76        0.805   0.826   0.000   1.632
   77        0.763   0.959   0.000   1.722
   78        0.765   0.973   0.000   1.738
   79        0.759   0.900   0.000   1.659
   80        0.798   0.852   0.000   1.649
   81        0.761   0.879   0.000   1.640
   82        0.775   0.864   0.000   1.639
   83        0.788   0.840   0.000   1.629
   84        0.766   0.891   0.000   1.657
   85        0.787   0.821   0.000   1.608
   86        0.793   0.783   0.000   1.576
   87        0.759   0.893   0.000   1.652
   88        0.762   0.938   0.000   1.700
   89        0.792   0.849   0.000   1.640
   90        0.760   0.892   0.000   1.652
   91        0.788   0.819   0.000   1.608
   92        0.766   0.915   0.000   1.681
--------------------------------------------------
tot         69.858  73.455   0.000 143.314


 total amount of memory used by VASP MPI-rank0   356118. kBytes
=======================================================================

   base                                    :      30000. kBytes
   nonl-proj                               :      69963. kBytes
   fftplans                                :     108867. kBytes
   grid                                    :      83991. kBytes
   one-center                              :         18. kBytes
   wavefun                                 :      63279. kBytes

  
  
 General timing and accounting informations for this job:
 ========================================================
  
                  Total CPU time used (sec):     5545.697
                            User time (sec):     4933.755
                          System time (sec):      611.942
                         Elapsed time (sec):     5549.584
  
                   Maximum memory used (kb):      625636.
                   Average memory used (kb):          N/A
  
                          Minor page faults:      7973025
                          Major page faults:         1190
                 Voluntary context switches:         3542
