LAMMPS data file via write_data, version 2 Apr 2025, timestep = 6560000, units = metal

1000 atoms
2 atom types

-1.687426478557203 23.928112556139126 xlo xhi
-1.687426478557203 23.928112556139126 ylo yhi
-1.687426478557203 23.928112556139126 zlo zhi

Atom Type Labels

1 H
2 Si

Masses

1 1.00784
2 28.0855

Atoms # atomic

120 1 2.715636463667373 1.0386867940856837 -0.9732467922620978 2 1 3
272 1 2.5220821162194094 1.472443094563265 -0.3837784572994827 -2 -4 -1
255 1 -1.613360391707991 3.070260509740546 2.2282456813631533 1 -3 -1
326 1 10.990301488607052 6.190324250681775 3.1957765193476506 -1 2 2
129 1 -0.8626648171861028 -0.780422959583669 4.439780196610218 0 3 -1
168 1 3.284816904190402 -1.3948772264017861 -0.145275697730326 1 0 7
183 1 4.824480795062697 -0.21908094389062516 -0.30125087521835536 1 3 0
421 1 2.58440678355611 0.360491976526895 3.112855993201828 2 -1 4
147 1 4.879693376305285 3.1577543938683714 2.466129266244465 3 -5 2
196 1 4.867424450641279 2.581559564193082 2.9412412435638666 -2 -1 1
27 1 3.2339340043528138 0.6460255250872402 3.4307478071881157 -2 1 -2
2 1 5.153100396219498 0.4766950827942322 -0.3629640990254739 -7 1 5
375 1 -1.3062808861106838 2.343217610428118 4.423345099075598 0 1 3
737 2 8.190716737086161 7.009472491756275 4.249123816847707 0 0 0
387 1 10.092400160490078 0.7826281494226235 -0.6168842778417332 3 -1 -1
45 1 9.53801267932447 -1.4439539486705135 1.022412939975435 2 2 -2
285 1 8.997981813206962 -0.8766003361845655 1.0002088078114517 -1 1 0
212 1 -0.4918908845517267 4.5637293943669235 3.6658205749741306 -1 -1 2
933 2 10.194260741228 10.12702345104736 -0.8164880891231521 0 0 0
132 1 1.518265304331727 5.207307284837392 3.2629654149981526 0 1 1
824 2 -0.7051493353805407 3.1056695351344654 3.361526519453375 -1 1 0
434 1 1.8066921999784649 4.933142537284272 -0.12685092507540352 2 -1 2
267 1 1.133302200526228 2.8223686728324973 0.379552260380454 -3 -5 6
929 2 0.6769700323764942 4.114050959477867 0.2256218527732885 1 0 1
443 1 0.27339697450695755 4.651034033158798 1.442495259680181 0 0 -2
205 1 -0.3676791950061784 4.111384866069197 -0.766000652468632 1 1 -1
72 1 -1.4397801668179107 -0.9379491974505825 3.9497162680107536 1 2 0
433 1 0.6485177678570513 2.5127694392230246 3.0565013046582283 -1 1 -1
505 2 7.9552557200166625 10.403699035729751 -1.1028727397013691 1 0 0
104 1 6.112381949335628 -1.4751090611850308 3.6819740371740375 -3 1 -1
531 2 2.5645764729487786 4.766042736544815 4.042054659743836 0 0 -1
985 2 6.834826391176778 8.370752623903623 3.043926776861774 0 0 0
347 1 2.909569430381967 3.4645277795135137 3.5926726047237025 0 -2 4
103 1 6.175840342624056 3.1696624972410756 -0.667073609027067 1 0 -2
156 1 4.606390987129702 5.04086405471687 1.6660385157025752 0 0 0
981 2 4.553607451739721 6.235157135367749 0.7773789541278822 1 0 0
142 1 4.292877388158088 6.077945553988967 -0.7064241198239855 2 0 0
427 1 6.932002908373256 4.647271675315116 2.3335646781035857 -1 2 4
580 2 6.841798168614488 5.110657036218645 3.769910914269712 0 0 -1
342 1 5.80557672187721 3.166704109713316 0.02485850595032968 0 -1 1
150 1 7.328917518978358 3.868632734640391 4.442372056539147 -1 0 1
449 1 9.821572320478205 7.601783448482733 1.793585500880679 -2 -1 3
270 1 10.430230641502614 4.153291207803452 3.7730669728714084 -2 1 1
437 1 8.977761956429472 2.15001893513615 0.6369614527074137 -1 -1 3
15 1 9.316436582942789 2.7544427758176964 0.809975565441448 3 -2 1
321 1 7.695210253386188 6.083853892074559 0.7989112794704241 2 3 -4
382 1 10.229610386193972 3.4893854743255615 3.5965345990907114 0 0 -1
637 2 7.49814830868095 10.530483703523267 3.2929138377488503 0 0 0
511 2 4.682339605900345 5.8452220022269525 4.548187964420301 0 1 0
656 2 9.804407347562336 10.928110994578278 3.2024067191691916 0 0 0
907 2 10.153421996686916 7.374900192288603 3.180592965540428 0 0 0
444 1 -0.20276392862277692 6.195677852377486 2.0235118409437796 1 1 0
192 1 -1.0219090904772632 8.811622993198428 4.3011700308294305 -3 -5 -4
755 2 3.1346075045872785 7.8100350335839295 1.8118191195136584 0 0 0
313 1 1.9172729473537737 7.189261728795437 2.5032465535316906 -4 2 4
533 2 -0.05628747665251366 10.67709659530823 2.2088794401745666 0 1 0
231 1 0.141213118944032 9.22880213450716 2.308471958275334 2 -1 2
632 2 2.59307782806502 9.076923313525512 0.011153388927287677 0 0 0
410 1 2.498222841875295 8.092376841586633 -1.0412731981207997 1 2 -1
266 1 -0.9509410652177875 6.29012623258626 2.0410812488924357 4 1 -1
967 2 6.805205847874628 7.192114735254851 0.9909123103110606 1 1 -1
904 2 4.544277135110931 8.17353240490852 3.694774066693194 0 0 0
802 2 6.518740350979277 8.824174983204324 -0.4276315957481893 1 0 -1
659 2 4.5524295544472 10.23337745682066 -0.18695085504105835 0 0 0
466 2 0.46767130285555814 1.505974470501942 6.688012475533343 0 1 1
190 1 -0.9571293834169079 1.7020767496892653 6.992433694103562 0 0 -1
351 1 0.6653550537408104 0.03578751943689418 6.711654492238873 0 -2 -1
865 2 -0.10558733722304581 -0.5270533313518628 9.435734236326764 0 0 -1
11 1 -0.010549870972516251 0.9284753415615832 9.477800915774393 3 -1 -2
448 1 0.9711382869727601 1.6942167109981545 5.263667677527688 -2 1 -3
149 1 0.8828478447682087 -1.252644526786651 8.487370664453502 1 -1 1
523 2 11.105802188583317 3.2404158916603185 6.865824502722335 0 0 0
322 1 -1.2722702438037228 -0.7923247724588247 8.663821330242504 1 -1 3
44 1 -0.049541375432109236 -1.0901964105288158 10.805283618716764 0 -5 1
779 2 10.37314280129609 10.514428882334713 9.640316187110631 0 0 0
199 1 7.224472407288506 10.221588600499922 10.394018991145634 1 1 -1
46 1 2.898842692666821 -0.7118112014404036 10.458950799039998 -3 5 -1
118 1 2.802985083694682 0.15590764979089577 8.255627330800616 2 0 0
901 2 4.439661911003434 2.003737846220591 5.8889738661568725 0 0 0
537 2 3.1705583427321455 0.5141762000169803 9.673181228441612 0 0 1
185 1 7.225602879509726 -0.9351747721747183 7.675087729302941 1 0 -1
42 1 6.54565433517039 -0.798855720400771 7.947734666052458 2 -2 2
127 1 3.0347056059195934 2.140556615911566 5.919718738892222 2 -1 1
253 1 4.848061246951787 1.5363327927869128 7.299797213807757 -1 2 -4
172 1 4.533548793064031 0.7999947913682606 9.443634417298854 2 -2 -1
877 2 3.7544845054025124 -1.4537459855415071 6.689152312455988 0 0 0
440 1 5.712326354657841 7.642756898451632 10.620384151887684 -1 3 -3
7 1 2.532028083175619 1.6479653247999022 10.05453185271693 -2 1 1
344 1 7.067120674337554 -0.35077206539682004 5.358872831333208 1 0 -1
96 1 6.418830706189858 0.0016710905006902532 5.508861840155923 5 0 4
371 1 7.890649092872241 2.4256696643911893 9.588111759520768 2 3 -6
450 1 5.044203522249668 -0.9839431181260949 7.185355513955429 1 2 2
404 1 10.259022389033552 0.9633156748710006 10.25277406557082 0 2 0
784 2 4.16482667230536 7.836370290892578 10.890455097878558 0 0 0
402 1 8.239517956920476 2.979016192197366 9.270574864099881 -1 0 0
162 1 2.8223256316649934 2.77245877139279 8.602024669082688 4 3 -2
934 2 7.622045345832568 9.43955299051449 7.076356821182225 1 0 0
362 1 -1.3044133158490683 4.162545745470004 10.320522822540449 -1 -3 2
245 1 0.7793975656594436 3.138578850850301 9.441172450677229 2 -2 1
177 1 1.6055098719226728 4.371540449093184 7.354853845499623 2 -1 -1
93 1 0.32492409841378445 5.863404532373442 5.415107176627692 2 -2 0
221 1 -0.24049631624614842 5.324499050186822 5.365223467640407 1 0 1
715 2 1.427773382210984 3.093484739605165 8.0317241731542 -1 0 0
14 1 1.8912013725700154 4.409733603805989 5.284256262931739 -1 0 5
64 1 -0.02648694962952791 5.530123712420166 8.184629597388511 -1 2 3
415 1 -0.7635482180180369 5.667382765093105 8.410875345305936 2 -1 1
364 1 0.03477850045979802 10.753246601859923 9.993436702782247 -1 -1 -1
175 1 -1.4030248875627422 7.669497817404627 11.095242576681159 1 1 -2
233 1 4.832933854436019 3.4572586428597623 5.701019957221115 -3 1 3
406 1 5.302813514394074 3.0341901981127313 8.708892392814464 -3 -2 2
340 1 3.1588454929335112 -0.5057991177875236 5.828321879482368 1 -3 0
328 1 4.196137214147053 4.884134091915572 10.067114342397039 4 1 2
271 1 6.232098693464129 5.164653198941766 8.669451428248868 2 0 1
107 1 4.19870612142386 4.968275616793636 7.703615254995283 1 -3 -1
479 2 4.871090741996711 4.392411985787737 8.8743764134204 0 0 0
105 1 4.724191062677373 5.976524582568469 5.987045400168521 1 0 1
412 1 3.05161834672327 6.714714546545835 7.771119299709509 -2 0 1
248 1 7.170993894008468 3.3029878957607854 7.41706098886595 -1 2 0
131 1 7.294024527900985 3.9931558299049277 7.562325640975054 -4 2 1
136 1 9.584708119664962 3.0107052335780624 6.921489493909078 0 0 0
648 2 7.045142960906585 6.77007434871666 8.379696695286459 0 0 0
435 1 4.805535694047366 1.1939559852434454 4.754737991843567 1 2 0
50 1 -0.8642279132385827 9.242077070596416 4.853443779903726 -2 2 -3
426 1 1.017992121504963 10.718095675390517 5.204936426127463 1 1 -2
861 2 8.533547771820952 7.232620013141528 6.533576007664864 0 0 0
703 2 9.790666170080579 10.521779139975425 7.403180201140962 0 0 0
113 1 2.6787190846452615 7.151644072073324 7.505243087073801 2 2 -2
323 1 5.743528868638907 7.519819446763989 8.616507173744354 -1 -4 -2
259 1 2.1960449400893927 9.324538274447432 8.255012910937879 0 1 1
141 1 2.2732937095718166 9.53679503566337 8.995321562053483 1 1 1
697 2 4.347756862032133 10.13396414171215 4.862480035345299 -1 0 1
397 1 3.699370472164887 7.153927552993714 9.621251899880754 2 3 0
414 1 3.6001187530186085 10.015847594902274 6.153115854238516 2 3 0
513 2 6.532472857830896 10.640398437471294 5.510273647061147 0 0 0
805 2 10.613731504282072 6.968045382368421 7.448639425518021 1 1 1
532 2 8.546592347408962 9.650965067508604 10.673335490436344 0 0 0
203 1 6.611581355411744 9.491645107872785 8.118172502761094 1 0 0
882 2 8.30815598468261 7.359814832517996 10.311630251057329 0 0 0
583 2 10.556811823106084 6.9094831694986265 9.807344684520297 0 0 0
372 1 10.142420316759297 -0.9677519307041319 5.172304334115964 -2 -3 2
152 1 3.511210061246417 11.039566621580246 10.207945574898615 -1 1 -1
383 1 3.7993598302780933 9.235589886149278 10.860455885897736 1 2 2
417 1 8.055596219959547 4.093864184988441 11.056489657215089 0 0 -1
442 1 1.9677630090777578 9.657777955827639 11.08290771197317 5 1 -2
405 1 9.921043470161148 -0.36478543178035094 4.79335915019305 1 1 0
281 1 0.8272855822638441 1.201969211537675 11.49536766339721 -2 -3 0
250 1 0.9860214280899484 1.280597786078749 12.249755530450718 -3 1 0
178 1 4.054044896318904 0.9032043022809573 15.663342417626293 0 6 -2
208 1 5.737271874713877 -0.22817978321187926 13.061681831631109 3 -1 -2
68 1 4.286840415912676 1.3284760356006515 15.079758356791082 1 0 2
591 2 5.955995163215513 -0.1843329037610424 16.736044839990186 0 0 0
86 1 5.496554626773737 -0.42934278576312424 12.33882701278352 0 -2 0
422 1 6.804001899851578 1.3706592203650603 14.183606624717081 0 -2 -1
29 1 5.2189234160322 2.081866128457684 12.813578259458508 1 0 -1
641 2 7.394932692077546 0.46147997362260096 15.136305271274061 0 0 0
612 2 9.055610485962319 1.9095151551880343 16.07784484793224 0 0 0
873 2 8.318798703975757 -1.2990965208350174 14.05410326354433 0 0 0
510 2 10.604899170599774 -1.4222366565049467 14.504170580189257 0 1 0
465 2 10.860668135154384 2.3259294983221954 14.62686645234323 0 0 0
846 2 10.338979437232238 8.35660126708183 14.130050078596474 0 0 0
360 1 -0.3694261753347545 -0.9444766565981647 13.637516929859311 1 0 1
280 1 2.473563526670283 4.8801131258282595 15.897703787784128 0 -2 4
309 1 -0.1563799698740409 3.0765218365458153 14.152841243791334 -4 2 0
820 2 1.5572739118485748 5.444632858398533 11.931258823625933 0 1 0
101 1 1.5536086360251322 4.091107678213612 11.36495663141174 3 3 -3
6 1 0.5813804013996982 2.898607772705975 16.75141894748092 -2 0 -2
308 1 0.0611783533982877 3.7226055537530867 13.763392042992475 1 2 3
251 1 1.9831225537407318 5.621005409304725 13.260408371624903 2 2 2
82 1 2.186955551528207 4.58161258150317 16.521778901177694 -1 -1 0
111 1 0.26636039996307126 6.811008812678992 16.254012917943545 0 1 0
391 1 -0.37785256591537864 6.696274042121058 13.668811841255026 -1 -1 0
140 1 6.312024362081344 6.9080600352169945 12.900966628178546 -3 1 0
74 1 3.3886514449429637 3.013148195284592 11.345399732082182 2 0 0
207 1 5.272153305593156 4.4539226135047425 12.24987400923564 -2 -2 0
398 1 5.714700605468683 2.742998262526336 16.13871392362093 1 0 1
996 2 6.434818603673669 4.049655240442982 15.98260753559098 0 1 -2
66 1 4.017349185882338 5.422221810132092 14.133890054409497 1 1 2
654 2 4.315466648230591 3.265160490741713 12.5481674097729 -1 1 0
336 1 3.524908809700552 3.424083445677198 13.768947652091674 3 -1 0
179 1 7.061105948748471 4.22248956740642 14.672524232402722 0 1 -1
319 1 3.9924669789049787 6.938715834266382 16.229141092155103 3 -1 2
741 2 4.087014999396801 6.780436194860899 14.801125904886469 1 0 1
401 1 5.635145985831246 5.296912695315668 16.08793741928559 -1 0 -1
194 1 3.7040795202782766 7.404379908295374 12.304186606983082 0 -1 -2
334 1 7.4742167950550975 2.4889347793874874 12.508460916788167 0 1 -1
4 1 7.918298029309952 4.739286403880495 13.293215448732981 1 2 0
968 2 9.83220516131182 5.956829366316413 16.58947099441317 0 0 0
55 1 9.032996256122296 5.307623181248866 15.531314670215433 -1 0 0
894 2 10.499446149206117 3.1729000927722932 12.48458288950771 0 0 0
906 2 8.19442864058982 3.676838870656919 12.369832089371508 0 -1 0
198 1 3.1349789861314115 -1.16587758560626 16.48309004891866 5 -1 -2
264 1 7.597791282935217 6.766450288058646 11.497085445827686 0 1 0
67 1 6.962916994464521 7.078997142480462 15.228729688611576 3 0 -3
413 1 8.399705355464778 8.949578777492603 16.624793059450447 0 0 -1
37 1 0.3194242599586308 8.658358324738982 14.543426284469835 2 2 -1
438 1 -0.1197280039734907 3.188971187137903 16.80286766681659 0 -4 -1
969 2 -0.7188029938938255 10.453576541546855 13.165359940268868 1 0 0
25 1 0.983749743795094 7.9622879752816935 12.34065940641342 0 -4 1
601 2 -0.3600292991321914 7.390882061391856 15.054268172727781 1 0 0
708 2 1.2406670242836007 9.406451830102506 12.385899809428373 1 0 0
130 1 2.1200068208432765 9.584750568137917 13.617482095757959 3 1 -3
117 1 -1.6569300003767289 7.746415691910055 15.593525215797108 1 -1 -3
359 1 0.18355863265161654 5.702726269248595 11.611329065811752 -1 -2 1
325 1 -1.5335965341822957 4.632542011146355 15.334493219479178 1 1 2
75 1 7.998726490435432 -1.225242657984323 12.598721247719546 1 1 -1
338 1 2.780671119224004 7.43604036719289 14.300843685388184 2 2 -1
262 1 3.769180977783037 9.480472599376185 15.77785312897177 0 0 1
377 1 4.351804164076412 10.63858268740321 13.917714558123038 3 -1 1
143 1 1.738087080981221 8.894241519013082 17.019747557823234 1 0 1
436 1 6.286486752336179 9.28652575507241 14.037751898117259 2 -3 -2
564 2 6.067610435588009 7.74875398670112 14.18004639304407 0 0 -1
624 2 3.175025967941309 10.290438439202171 14.654725209663802 0 0 -1
652 2 9.731719644298252 8.246707016718295 16.444859550963816 0 0 -1
452 2 8.547829373268959 9.259935746505189 12.988905371613257 1 0 0
242 1 2.3249681746209854 6.373895815059997 11.164011971527714 1 -2 1
9 1 -0.5421328039497395 -0.937867552594916 12.821707017862119 0 1 3
277 1 -1.449595541403725 7.049032534237698 11.448152043331827 -1 3 -1
508 2 0.8918391432108352 0.10413255828908663 18.599179312617522 0 0 0
766 2 -0.23543910869479 0.4826712707173706 20.64016893379636 0 1 -1
823 2 1.3942300259414617 0.48174655073683903 22.295002860160196 1 1 0
269 1 -1.1714553612087775 1.6269042764685295 21.04583658030879 0 0 0
373 1 2.121878143305969 1.0167623639290397 18.578056269102863 0 -2 0
189 1 0.8290991467183937 1.127459280277432 23.467265880923662 2 -2 2
32 1 3.795353449470271 3.7179438972240355 23.35041410380719 1 -2 0
879 2 10.626955164623386 7.628459356321809 20.344985135136984 0 0 -1
727 2 3.5658533476350884 1.0377276844246244 21.699088464214174 0 0 0
897 2 4.949592797002445 -0.4967251888211821 20.424261849545857 0 0 0
669 2 5.451410432096098 1.007927482817919 18.52051046105999 0 0 0
209 1 4.153856907718206 1.2325461638201918 22.968454684777175 0 0 -4
329 1 4.296362256307266 1.8369062977093162 18.31218720680225 1 0 0
316 1 3.7085477220588174 2.322886245771735 20.921425336283065 -1 2 0
70 1 6.652378054640405 -0.39465767793854223 23.09968171779208 1 0 1
646 2 6.817874252704803 -0.5315519580212555 21.697796995105058 0 0 -1
611 2 9.504842043432548 -0.17625172462814076 19.53039068853754 1 0 0
494 2 8.210652789976136 1.1003866147515646 20.918619087513047 0 1 0
578 2 9.398334754636597 2.3871812494541462 22.465492842511914 0 0 0
170 1 5.129628487258741 10.920339122702417 17.891726412752764 2 4 -1
512 2 11.006282066834189 -1.2204204617740193 22.973346697588152 0 1 0
858 2 7.0859035075357575 2.31475904611447 19.348316597562736 1 0 -1
892 2 10.653309272127261 9.827442644299692 17.877142977454124 0 0 0
864 2 10.820633300017873 0.9488207210121504 23.724995776589296 0 0 0
92 1 2.2223542778760828 3.9292021481249106 18.867750309903155 0 1 -1
157 1 0.7851186421864194 3.5085519297867824 21.939497420222395 -6 1 1
320 1 1.0174387310129474 3.4238326394390883 22.68180578993595 0 2 1
379 1 -0.5765949688094572 4.000401968977917 18.655505801681983 2 -1 1
470 2 8.024940599849288 3.4042395355048614 17.621718526201334 0 0 0
282 1 2.415249901249517 4.545371138771046 18.395264040046612 2 -1 2
345 1 4.332296631907064 4.160171119063885 19.60433688179445 2 -1 0
133 1 4.7826501453396215 3.7247782284582955 19.263905948241867 -5 1 0
254 1 6.729517575886625 3.479999160478622 20.202131939566723 -1 -2 1
223 1 6.206265991007572 7.248194122182943 18.1940296192008 -3 -1 0
71 1 7.639200207929148 10.184541400664706 18.46792524308839 -2 2 -5
739 2 10.903945612069599 4.093065659360294 21.812304409238745 0 0 0
984 2 9.714305571004347 5.576133111388755 20.416729507257774 0 1 0
293 1 8.303007535429552 5.6361581892865615 20.842360474482508 2 2 0
884 2 9.93742613542329 4.453510906090108 18.344956761280727 1 0 0
176 1 8.340856313109628 2.7152699329538708 23.48572181952374 -1 3 -2
33 1 -0.1721771526224729 7.461372649018564 18.884442174323798 -1 0 0
155 1 -0.6535941997543582 6.972459800794173 19.08335792264987 -3 -1 -1
158 1 1.8420003199075299 9.305362411172853 20.779022340913308 3 0 0
889 2 2.052515694447613 10.708334257620502 21.12243428324677 1 0 0
568 2 9.089161633662064 9.33582740681537 19.615837058114845 1 0 0
184 1 8.7513503864569 7.195746008448607 23.66768586745919 0 3 -3
499 2 10.931819594180876 10.791162766824735 22.61008677580608 0 0 0
166 1 5.7929820852825555 7.372041278684327 18.851559648264086 0 -1 -3
317 1 3.982285657728468 8.054519900984278 18.20013467127682 5 3 0
58 1 4.6926479267498635 8.468419846291148 22.188245402115943 1 -3 2
284 1 3.7366534472660913 7.422099159442247 18.102841905424754 0 3 2
237 1 5.252204605819184 8.569702143981257 21.659000342736235 -1 -5 1
260 1 3.3306448192215736 10.692021672530005 22.208051214078733 2 1 1
662 2 6.782527525085499 10.926176898993226 22.475080199200562 0 0 0
381 1 6.489206054305782 9.793315931807356 21.497336830496835 0 3 -2
234 1 3.1389110821118296 10.963521763231348 18.158369117073107 -2 1 -1
182 1 0.04134692328671696 6.877475650855329 23.59731164944391 1 3 -2
446 1 1.4074119494116544 9.338731684450561 17.61532051070694 3 0 0
47 1 0.45523828156518187 6.8429762386291575 23.019660109054332 2 1 -7
181 1 3.145492713039011 3.513924894071727 23.59902539081389 1 0 -1
278 1 8.624760523595477 6.439464051895397 23.673223023107663 1 -2 -4
988 2 10.457528651440231 0.731910311107796 17.62575249063522 0 0 0
337 1 -1.2289287414002414 10.012741848570982 23.926443127136327 4 1 2
349 1 6.0439332377322454 8.202643987011374 23.86738107666998 -5 -1 -1
91 1 -0.3975270194565179 0.5036681761135888 17.57798587284657 -1 4 -2
874 2 1.9021109202173312 14.897073016243233 -0.06426871798404776 0 0 0
869 2 1.0253976592160043 11.678784221796235 3.9347700706744284 1 0 0
986 2 -0.08780107903822754 14.793787780015293 -1.3614284132264376 0 0 0
807 2 -0.37987320301486904 11.330127740865477 -1.5595219611848736 1 0 0
498 2 2.837965374600822 12.885422239222843 -0.00836015722352057 0 0 0
566 2 4.384455429159714 11.87491690347082 1.4477770907497898 0 0 0
843 2 3.272351520130357 11.893616342892862 3.524692105016065 1 0 0
888 2 6.339521897233263 14.175487365316256 -1.1763815231019308 0 0 0
875 2 6.604863293559093 12.425860946776911 1.9470130866013036 0 0 0
544 2 6.7682694344160215 14.35103369639749 3.029729406049962 0 0 0
628 2 10.857119441763219 11.433948896670614 1.083809180421341 0 0 0
710 2 7.70437380972947 12.556872671158098 -0.11655055410856918 0 0 0
549 2 10.06240720881328 13.378778969025308 0.29894777729608424 0 0 1
764 2 10.114769580993643 13.079215898899854 4.341163242656777 0 0 0
649 2 9.054414918315853 14.95964683788593 3.4138905980673995 0 0 0
777 2 9.567849797249513 15.46331876056366 1.2088746191287538 0 0 1
893 2 -0.10461015376331373 15.703657929032943 3.339640750190779 1 0 1
975 2 1.7501858124732013 16.004626850508597 2.1043138874389338 0 0 0
839 2 0.23418020998722233 18.436599293038405 -0.3841328554528287 0 0 0
876 2 -1.077896205472723 16.817589508967423 -1.2184748117458728 0 0 1
868 2 2.177955751613148 17.87055687466527 0.8270939647309552 1 0 0
743 2 -0.6137340353624716 19.37364566181765 3.242608696779934 0 0 0
368 1 8.255137417349232 23.568191160461875 3.1519810651582407 3 -1 -1
813 2 3.6224071668364353 15.940398661507828 3.3940482253455695 1 0 0
576 2 5.6085046627926545 16.115428713694406 2.1737371939560672 0 -1 0
674 2 5.659471151932813 16.205842691221655 -0.22999753408963097 0 0 0
673 2 3.3069108965706153 16.59150947522072 -0.7674606671788974 0 0 0
527 2 5.219673623917786 19.000123090196535 4.4640055104432514 0 0 0
521 2 6.41330677991505 18.58315407963007 -0.5799971128227603 0 -1 1
720 2 6.811451652671279 18.030869265521083 3.089389988634397 1 0 0
8 1 8.796697673491472 22.930151695756347 -1.3384565390236467 0 1 0
307 1 8.346142902594504 15.838062890522387 0.4574844067125796 -1 0 1
718 2 8.795274490887442 17.0996451851113 4.168507995890636 0 0 0
756 2 10.754292556335415 18.368233482504113 4.609881341762508 0 0 0
616 2 7.276197726022133 19.652148481002254 1.4681904051985564 0 0 1
989 2 11.004498263288934 18.88950875410617 -0.7377595299723476 0 0 1
235 1 10.165050694129924 19.797233857786047 -0.054995443686722156 -1 -2 -6
306 1 8.77152237173847 19.833722556291494 1.4202629479611093 3 0 -2
596 2 -1.0472946494825486 19.764351394868925 0.9936870222981846 0 0 0
356 1 0.6131646174587453 20.266767529979443 3.609829090406704 0 -1 0
998 2 -0.45944620883626164 21.957202859109763 0.8471628079299074 0 0 1
197 1 -0.18495574696991168 22.412578541863937 2.325379234887489 2 2 -1
496 2 1.6444782328547265 21.521454623412783 -0.034065675799233475 0 -1 0
249 1 -1.5789339043944701 20.174459807227443 3.838040046068012 2 -1 0
10 1 8.592605763592182 21.640217654486584 1.0261213244053407 -4 1 2
169 1 10.571586594755715 22.50025214001266 4.157154731071016 1 -2 -2
386 1 10.618225710353652 19.928774036536474 4.437544571543624 1 3 1
615 2 4.518551665449858 19.730329298059186 -0.8977305591186684 0 0 0
275 1 6.02439799273486 22.70183746846589 -1.0991703112912186 -1 2 0
501 2 3.2330067192846395 20.053938889422103 1.0239447683499 0 0 0
622 2 4.18713714068211 20.742228440450383 3.019223850150156 0 0 0
483 2 2.9924418644283914 23.093723590906716 -1.0601241037087656 0 0 0
311 1 3.182661785841292 21.688030037615388 3.519986801076186 -1 1 0
600 2 5.975062770749804 21.55981851869873 2.070125614623971 0 0 0
241 1 5.798576427896873 22.357270765113334 0.9772682179065044 1 -1 -3
994 2 6.997703758965033 22.961921063448436 3.6486655514835986 0 0 0
240 1 9.178313049552937 21.916527218737997 0.7079783005658373 -1 1 2
870 2 1.1859459793828675 11.168496818848729 0.1130480468257653 0 0 0
798 2 1.9346191733323006 14.269566997952415 6.221148173645663 0 0 0
128 1 -1.0290061291214854 13.72057372588471 5.392315158909925 1 0 -3
247 1 1.3357711452675556 14.271898044713875 10.21379050277823 -2 2 -3
424 1 -1.6449635133607223 19.18798069896979 6.828163353813483 0 -3 1
354 1 7.7199530061085895 22.736890943527303 6.830273177500137 -1 -3 -1
376 1 2.2119417141420583 13.165094521310419 7.233974559909624 1 0 0
238 1 -0.7607382801779753 13.32020066271442 10.829078439273479 3 -5 5
292 1 -0.7037195147643607 13.17527332756944 8.58897108014512 0 2 4
297 1 0.30546928244310223 11.478990080198916 10.128191090306307 -6 1 -4
60 1 -0.3525201211177029 12.56225664531378 8.535730004390212 1 0 2
291 1 3.0745251825641553 23.819899478207653 7.899342711729007 0 -2 0
500 2 3.6222886076127976 13.861544598084448 4.734829939295754 0 1 0
187 1 9.173709023071293 23.598778951877417 8.843773703253792 1 0 2
660 2 5.88506382421982 14.330412613178947 5.189725027608785 0 0 0
667 2 5.913917620531805 13.26382454314505 8.753761664270765 0 0 0
602 2 4.574714740261697 12.136918912910462 10.497595061875602 0 0 1
608 2 6.680893721299771 12.709395806173198 6.543799704993672 0 1 0
693 2 7.741396233505537 13.685767750357158 10.348017514140082 0 -1 0
765 2 9.96227831512738 14.001104948528459 9.815223336639075 0 0 0
936 2 9.026563743847065 12.817974878095203 6.4841711609259995 0 0 0
516 2 9.950866059532181 14.48982804125458 7.675510709776773 0 0 0
43 1 -1.1019774540689162 15.496556343871646 8.819691857772478 1 -2 -1
974 2 9.937181425838773 21.628591969024612 5.226436291068997 -1 0 0
463 2 -1.4892209346406597 17.77236336858552 6.484911042301357 0 -1 0
688 2 -0.24481928857128055 16.6999836252657 8.332295709035217 0 0 1
570 2 1.901978815224863 16.23326362808674 7.513370587405966 1 0 1
497 2 1.8210942211535524 18.32410203536654 6.201606660686016 1 0 0
972 2 -0.2987830764020578 18.475733513793607 9.922604860670594 0 -1 0
432 1 1.1956348884154497 18.700666552125593 7.521208415521574 1 2 -5
154 1 0.9846708694922692 19.10107861727654 10.156787649210184 2 -3 3
57 1 -1.1466843002174292 19.44363644958469 9.209237744136635 0 1 0
137 1 2.3667901008885384 19.790630904386738 5.694065925298525 1 0 -2
468 2 3.87581023367951 17.318702798121127 5.189090368410698 0 0 0
792 2 5.385808728573618 15.675321164514898 8.436964934626056 0 0 0
514 2 3.588993268878946 16.837817679975373 9.180652000351428 0 0 0
535 2 5.714472064359489 16.315848491896773 6.308615796625668 1 -1 0
451 2 4.35233897447172 19.047550161956273 9.133986255781611 0 0 0
385 1 3.6929758389710923 19.445673737716174 7.854724867829997 1 -1 1
810 2 6.567592329380876 19.077085968657116 8.232768049642251 0 0 0
963 2 7.059640630157423 15.987304224435395 10.037391941193944 0 0 0
617 2 7.814701447438095 17.471867467424328 6.320925763363716 0 0 0
551 2 9.598255033979521 16.787581402360495 7.626811387267825 0 0 0
788 2 9.00214239071408 17.344852557310325 9.780867933341884 0 0 1
951 2 7.672309996918774 21.865016737940373 5.682999938030749 0 0 0
539 2 8.850135339346362 19.679481284711752 9.340755749726462 0 0 0
22 1 0.9833657475494806 21.98857693284807 7.218694432765201 -3 -4 4
729 2 1.2624441190904312 21.871646787491645 8.6409942051514 0 0 0
229 1 -0.05737705400433013 22.21512880087608 9.334243129800427 0 -1 0
283 1 1.7471588625528574 20.542022399226127 8.984860341564705 2 -3 0
343 1 2.293435201621253 22.862754241763554 9.026014206440959 2 0 2
380 1 0.7001833930963182 23.403329331819975 5.841062484758629 -6 -1 0
102 1 -1.385625652834319 22.730422921073647 6.702777232773753 6 0 0
653 2 -0.0024623931360723272 17.612501538252474 4.802467032538188 0 0 0
982 2 6.848996249749023 19.650880887080632 6.091658629920456 1 0 0
837 2 10.650744674038734 15.830638481402993 10.907229137000062 -1 -1 0
288 1 3.909440251770058 22.962924534765754 5.742742535010806 1 -2 -1
219 1 3.8763131224015765 19.916264405185025 10.229730268423625 0 -1 0
230 1 5.470277574324704 21.49996391634059 8.883837074168424 1 -2 0
642 2 0.2914137818146727 13.872263730153364 4.773490332092464 1 0 0
735 2 5.279348684080931 22.41485371330237 9.952253546649432 0 -1 0
108 1 1.3108834307558834 23.072408112262416 5.464254674213123 -1 -2 3
76 1 5.036960458615487 23.8096919514378 9.402549676597067 3 1 1
943 2 11.050135913088152 19.96736741564093 8.234952903190065 0 0 0
79 1 8.935627075776845 23.716046004742967 8.140687056358045 0 -2 1
210 1 3.704457756842281 22.15395847860275 10.266696731822101 -1 -2 -1
193 1 0.32624249214152634 13.231306325662727 14.1788087710259 2 0 0
623 2 1.3864440604820234 13.18313778980814 13.166849833824784 0 0 0
312 1 1.366346153805965 13.450267407139778 16.054326436815636 1 -1 0
160 1 2.453826531150768 14.01148256773738 13.646607285647923 0 -3 0
333 1 -1.4239279006980652 11.556757951156769 12.460215802321544 1 -1 0
400 1 1.9839997302920702 11.651688592641367 14.825244842135046 2 4 1
361 1 1.6386397483089938 13.810990797076549 16.866853226053344 1 1 -6
419 1 1.564576910578893 11.884746069818688 12.662469404099173 1 -1 0
730 2 9.30683601002706 20.970316836886997 15.907140003459102 0 0 0
289 1 4.700672349278721 12.941147788862681 14.380170962892038 -2 1 0
694 2 5.30251465831889 13.530629507639507 15.629445814919755 0 0 -1
261 1 4.417243723155843 13.316692616860523 16.641542501943142 -1 -2 1
78 1 3.115779479883992 15.327123206843424 12.116218001997199 3 3 0
547 2 6.925306925121326 13.045987807691906 12.473152464278026 0 0 0
206 1 3.7997879546902835 13.246244651722792 11.276544700153147 2 1 -4
1000 2 7.298370996570293 12.220427018862162 15.927939251083195 0 0 0
740 2 9.218156672722433 13.379646582562211 16.32030534108088 0 0 0
672 2 9.844694354525029 13.070338443372181 14.11334980068145 0 0 0
687 2 8.118916930007337 11.487110392562373 13.845486029925477 0 0 0
899 2 11.072363012162498 12.25696945901339 17.511448813478697 0 0 0
579 2 0.30591201547304325 14.348583886071758 11.279965398638225 1 -1 0
685 2 10.88308531153122 21.785287696155446 11.242443513113816 0 0 0
153 1 1.806232615395822 17.477518177560047 11.859561133677778 3 4 1
365 1 1.720995012427768 16.148849423781083 15.540352767583649 -1 1 -2
352 1 1.9297048751358865 19.03942810944973 13.708158054989402 0 1 1
26 1 1.5215859364622162 16.669849519981998 15.165366954929745 -2 0 0
331 1 1.483682064772505 19.597023833096998 13.630214228825338 -1 3 -1
847 2 6.202078477309085 15.564123307313103 15.184002884600297 0 0 -1