 vasp.6.5.0 16Dec24 (build Jan 20 2025 08:32:48) complex                         
 executed on        HPECrayEX_GCC date 2025.07.28  16:51:35
 running  128 mpi-ranks, with    1 threads/rank, on    1 nodes
 distrk:  each k-point on  128 cores,    1 groups
 distr:  one band on NCORE=  16 cores,    8 groups


--------------------------------------------------------------------------------------------------------


 INCAR:
   SYSTEM = a-Si SPC
   NCORE = 16
   ISTART = 1
   ICHARG = 1
   ISPIN = 1
   ISYM = 1
   EDIFF = 1E-6
   NELM = 150
   EDIFFG = -0.01
   NSW = 0
   ISIF = 2
   IBRION = -1
   PREC = Accurate
   ENCUT = 1200
   KSPACING = 0.23
   KGAMMA = .TRUE.
   METAGGA = SCAN
   LASPH = .TRUE.
   LDIAG = .FALSE.
   LMIXTAU = .TRUE.
   ADDGRID = .TRUE.
   ALGO = Normal
   ISMEAR = 0
   SIGMA = 0.1
   LORBIT = 11
   NEDOS = 2000
   LWAVE = .FALSE.
   LCHARG = .FALSE.

 POTCAR:    PAW_PBE H 15Jun2001                   
 POTCAR:    PAW_PBE Si 05Jan2001                  
 POTCAR:    PAW_PBE H 15Jun2001                   
   SHA256 =  030f79b5d3ab3cf0e668861823c8fb652ff669f3e15e46930bd03bfd63a607b6 H/POTCAR              
   COPYR  = (c) Copyright 15Jun2001 Georg Kresse                                                    
   COPYR  = This file is part of the software VASP. Any use, copying, and all other rights are regul
   COPYR  = If you do not have a valid VASP license, you may not use, copy or distribute this file. 
   VRHFIN =H: ultrasoft test                                                                        
   LEXCH  = PE                                                                                      
   EATOM  =    12.4884 eV,    0.9179 Ry                                                             
                                                                                                    
   TITEL  = PAW_PBE H 15Jun2001                                                                     
   LULTRA =        F    use ultrasoft PP ?                                                          
   IUNSCR =        0    unscreen: 0-lin 1-nonlin 2-no                                               
   RPACOR =    0.000    partial core radius                                                         
   POMASS =    1.000; ZVAL   =    1.000    mass and valenz                                          
   RCORE  =    1.100    outmost cutoff radius                                                       
   RWIGS  =    0.700; RWIGS  =    0.370    wigner-seitz radius (au A)                               
   ENMAX  =  250.000; ENMIN  =  200.000 eV                                                          
   RCLOC  =    0.701    cutoff for local pot                                                        
   LCOR   =        T    correct aug charges                                                         
   LPAW   =        T    paw PP                                                                      
   EAUG   =  400.000                                                                                
   RMAX   =    1.123    core radius for proj-oper                                                   
   RAUG   =    1.200    factor for augmentation sphere                                              
   RDEP   =    1.112    radius for radial grids                                                     
   RDEPT  =    0.926    core radius for aug-charge                                                  
                                                                                                    
   Atomic configuration                                                                             
    2 entries                                                                                       
     n  l   j            E        occ.                                                              
     1  0  0.50        -6.4927   1.0000                                                             
     2  1  0.50        -3.4015   0.0000                                                             
   Description                                                                                      
     l       E           TYP  RCUT    TYP  RCUT                                                     
     0     -6.4927494     23  1.100                                                                 
     0      6.8029130     23  1.100                                                                 
     1     -4.0817478     23  1.100                                                                 
  local pseudopotential read in
  atomic valenz-charges read in
  non local Contribution for L=           0  read in
    real space projection operators read in
  non local Contribution for L=           0  read in
    real space projection operators read in
  non local Contribution for L=           1  read in
    real space projection operators read in
    PAW grid and wavefunctions read in

   number of l-projection  operators is LMAX  =           3
   number of lm-projection operators is LMMAX =           5

 POTCAR:    PAW_PBE Si 05Jan2001                  
   SHA256 =  79d9987ad8750f624c4d6acb2a16d13abf6a777132adc04dc6c8399be72b42bb Si/POTCAR             
   COPYR  = (c) Copyright 05Jan2001 Georg Kresse                                                    
   COPYR  = This file is part of the software VASP. Any use, copying, and all other rights are regul
   COPYR  = If you do not have a valid VASP license, you may not use, copy or distribute this file. 
   VRHFIN =Si: s2p2                                                                                 
   LEXCH  = PE                                                                                      
   EATOM  =   103.0669 eV,    7.5752 Ry                                                             
                                                                                                    
   TITEL  = PAW_PBE Si 05Jan2001                                                                    
   LULTRA =        F    use ultrasoft PP ?                                                          
   IUNSCR =        1    unscreen: 0-lin 1-nonlin 2-no                                               
   RPACOR =    1.500    partial core radius                                                         
   POMASS =   28.085; ZVAL   =    4.000    mass and valenz                                          
   RCORE  =    1.900    outmost cutoff radius                                                       
   RWIGS  =    2.480; RWIGS  =    1.312    wigner-seitz radius (au A)                               
   ENMAX  =  245.345; ENMIN  =  184.009 eV                                                          
   ICORE  =        2    local potential                                                             
   LCOR   =        T    correct aug charges                                                         
   LPAW   =        T    paw PP                                                                      
   EAUG   =  322.069                                                                                
   DEXC   =    0.000                                                                                
   RMAX   =    1.950    core radius for proj-oper                                                   
   RAUG   =    1.300    factor for augmentation sphere                                              
   RDEP   =    1.993    radius for radial grids                                                     
   RDEPT  =    1.837    core radius for aug-charge                                                  
                                                                                                    
   Atomic configuration                                                                             
    6 entries                                                                                       
     n  l   j            E        occ.                                                              
     1  0  0.50     -1785.8828   2.0000                                                             
     2  0  0.50      -139.4969   2.0000                                                             
     2  1  1.50       -95.5546   6.0000                                                             
     3  0  0.50       -10.8127   2.0000                                                             
     3  1  0.50        -4.0811   2.0000                                                             
     3  2  1.50        -4.0817   0.0000                                                             
   Description                                                                                      
     l       E           TYP  RCUT    TYP  RCUT                                                     
     0    -10.8127223     23  1.900                                                                 
     0     -7.6451159     23  1.900                                                                 
     1     -4.0811372     23  1.900                                                                 
     1      2.4879257     23  1.900                                                                 
     2     -4.0817478      7  1.900                                                                 
  local pseudopotential read in
  partial core-charges read in
  partial kinetic energy density read in
  atomic valenz-charges read in
  non local Contribution for L=           0  read in
    real space projection operators read in
  non local Contribution for L=           0  read in
    real space projection operators read in
  non local Contribution for L=           1  read in
    real space projection operators read in
  non local Contribution for L=           1  read in
    real space projection operators read in
    PAW grid and wavefunctions read in

   number of l-projection  operators is LMAX  =           4
   number of lm-projection operators is LMMAX =           8

 -----------------------------------------------------------------------------
|                                                                             |
|               ----> ADVICE to this user running VASP <----                  |
|                                                                             |
|     You have a (more or less) 'large supercell' and for larger cells it     |
|     might be more efficient to use real-space projection operators.         |
|     Therefore, try LREAL= Auto in the INCAR file.                           |
|     Mind: For very accurate calculation, you might also keep the            |
|     reciprocal projection scheme (i.e. LREAL=.FALSE.).                      |
|                                                                             |
 -----------------------------------------------------------------------------

 -----------------------------------------------------------------------------
|                                                                             |
|               ----> ADVICE to this user running VASP <----                  |
|                                                                             |
|     You enforced a specific xc type in the INCAR file but a different       |
|     type was found in the POTCAR file.                                      |
|     I HOPE YOU KNOW WHAT YOU ARE DOING!                                     |
|                                                                             |
 -----------------------------------------------------------------------------

  PAW_PBE H 15Jun2001                   :
 energy of atom  1       EATOM=  -12.4884
 kinetic energy error for atom=    0.0000 (will be added to EATOM!!)
  PAW_PBE Si 05Jan2001                  :
 energy of atom  2       EATOM= -103.0669
 kinetic energy error for atom=    0.0001 (will be added to EATOM!!)


 POSCAR:  H Si
  positions in cartesian coordinates
  No initial velocities read in


 exchange-correlation table for SCAN
   RHO(1)=    0.500       N(1)  =     2000
   RHO(2)=  100.500       N(2)  =     4000



--------------------------------------------------------------------------------------------------------


 ion  position               nearest neighbor table
   1  0.378  0.103  0.499-  42 1.49
   2  0.696  0.348  0.651-  56 1.49
   3  0.244  0.515  0.475-   5 0.84
   4  0.196  0.549  0.360-  83 1.49
   5  0.242  0.533  0.448-   3 0.84  83 1.82
   6  0.667  0.165  0.383-  62 1.50
   7  0.024  0.993  0.468- 102 1.52
   8  0.943  0.414  0.328-  63 1.48
   9  0.892  0.156  0.559-  50 1.67  78 1.69
  10  0.199  0.501  0.577-  38 2.36 103 2.38 100 2.43  24 2.53
  11  0.781  0.589  0.383-  17 2.28  66 2.32  51 2.33
  12  0.062  0.344  0.652-  28 2.26 103 2.32  85 2.33
  13  0.031  0.548  0.483-  76 2.28  68 2.30  41 2.33
  14  0.254  0.967  0.465-  37 2.33  47 2.33  77 2.35  64 2.37
  15  0.463  0.550  0.454-  52 2.33  67 2.36  39 2.38  80 2.38
  16  0.701  0.150  0.603-  56 2.30  94 2.35  78 2.37  95 2.44
  17  0.936  0.612  0.376-  11 2.28  63 2.29  76 2.35
  18  0.882  0.887  0.627-  81 2.32  75 2.34  89 2.46
  19  0.566  0.866  0.534-  59 2.32  53 2.33  82 2.36  31 2.43  95 3.03
  20  0.979  0.355  0.544-  68 2.34  85 2.35  74 2.37  24 2.40
  21  0.304  0.171  0.655-  28 2.36  43 2.42  87 2.48  84 2.88
  22  0.968  0.174  0.453-  69 2.29 101 2.30  74 2.32  50 2.33
  23  0.406  0.755  0.631-  73 2.32  70 2.32  53 2.38
  24  0.143  0.360  0.535-  55 2.36  20 2.40  35 2.41  10 2.53
  25  0.164  0.885  0.650-  90 2.35  70 2.36  43 2.43
  26  0.031  0.024  0.575-  90 2.31  84 2.31  50 2.32  75 2.33
  27  0.181  0.723  0.429-  83 2.35  77 2.37  44 2.39  76 2.39
  28  0.148  0.215  0.660-  12 2.26  84 2.30  21 2.36
  29  0.968  0.563  0.624- 103 2.35  68 2.37  57 2.40  89 2.51
  30  0.959  0.789  0.479-  76 2.29 102 2.40  96 2.41  61 2.42
  31  0.563  0.030  0.517-  94 2.30  42 2.33  65 2.39  19 2.43  95 2.85
  32  0.429  0.368  0.553-  38 2.34  45 2.37  39 2.39  87 2.39
  33  0.479  0.165  0.402-  92 2.29  98 2.33  65 2.33
  34  0.773  0.932  0.439-  99 2.33  96 2.34  49 2.35  71 2.39
  35  0.223  0.216  0.545-  84 2.32  87 2.34  64 2.39  24 2.41
  36  0.790  0.528  0.564-  48 2.28  68 2.31  79 2.32  57 2.37  97 3.08
  37  0.252  0.879  0.532-  14 2.33  90 2.37  44 2.40  54 2.40  70 2.90
  38  0.360  0.498  0.586-  32 2.34  10 2.36  73 2.38
  39  0.424  0.395  0.472-  40 2.32  98 2.36  15 2.38  32 2.39
  40  0.299  0.349  0.427-  55 2.29  72 2.31  39 2.32  92 2.40
  41  0.022  0.424  0.432-  63 2.30  55 2.31  13 2.33  74 2.36
  42  0.426  0.094  0.544-   1 1.49  54 2.33  31 2.33  87 2.35
  43  0.258  0.018  0.631-  54 2.32  84 2.35  21 2.42  25 2.43
  44  0.256  0.725  0.502- 100 2.33  80 2.38  27 2.39  37 2.40
  45  0.592  0.356  0.553-  56 2.31  48 2.32  32 2.37  91 2.37
  46  0.206  0.155  0.363-  72 2.38 101 2.39  92 2.39
  47  0.400  0.927  0.438-  14 2.33  88 2.35  65 2.35  59 2.38
  48  0.644  0.504  0.539-  36 2.28  97 2.32  45 2.32  67 2.35
  49  0.893  0.955  0.386-  69 2.27  34 2.35 102 2.35
  50  0.937  0.087  0.519-   9 1.67  71 2.31  26 2.32  22 2.33
  51  0.704  0.459  0.410-  11 2.33  67 2.35  93 2.35  60 2.37
  52  0.412  0.583  0.380-  58 2.32  15 2.33  83 2.34
  53  0.491  0.885  0.605-  19 2.33  54 2.34  23 2.38  95 2.60
  54  0.362  0.963  0.577-  43 2.32  42 2.33  53 2.34  37 2.40
  55  0.151  0.343  0.454-  40 2.29  41 2.31 101 2.35  24 2.36
  56  0.634  0.289  0.622-   2 1.49  16 2.30  45 2.31
  57  0.842  0.457  0.633-  36 2.37  29 2.40  85 2.43  68 3.01
  58  0.439  0.739  0.377-  52 2.32  86 2.36  88 2.37  59 3.02
  59  0.481  0.803  0.474-  19 2.32  86 2.36  80 2.36  47 2.38  58 3.02
  60  0.560  0.418  0.378-  51 2.37  98 2.40
  61  0.026  0.754  0.553-  90 2.34  89 2.40  30 2.42 100 2.47
  62  0.760  0.210  0.385-   6 1.50  69 2.26  93 2.36
  63  0.003  0.474  0.357-   8 1.48  17 2.29  41 2.30
  64  0.230  0.127  0.475- 101 2.30  92 2.36  14 2.37  35 2.39
  65  0.526  0.029  0.437-  99 2.32  33 2.33  47 2.35  31 2.39
  66  0.698  0.685  0.431-  11 2.32  96 2.36  86 2.37  67 2.38
  67  0.624  0.554  0.462-  48 2.35  51 2.35  15 2.36  66 2.38
  68  0.945  0.512  0.547-  13 2.30  36 2.31  20 2.34  29 2.37  57 3.01
  69  0.873  0.108  0.400-  62 2.26  49 2.27  22 2.29
  70  0.250  0.766  0.615-  23 2.32  25 2.36 100 2.46  37 2.90  90 2.94
  71  0.796  0.017  0.509-  50 2.31  94 2.33  34 2.39  81 2.42
  72  0.283  0.298  0.352-  40 2.31  46 2.38  92 2.56
  73  0.448  0.636  0.583-  23 2.32  97 2.37  38 2.38  80 2.40
  74  0.920  0.323  0.469-  22 2.32  93 2.34  41 2.36  20 2.37
  75  0.947  0.031  0.644-  26 2.33  18 2.34  78 2.41
  76  0.025  0.673  0.436-  13 2.28  30 2.29  17 2.35  27 2.39
  77  0.176  0.881  0.409-  14 2.35  27 2.37 102 2.44  88 2.54
  78  0.861  0.160  0.615-   9 1.69  16 2.37  85 2.39  75 2.41
  79  0.755  0.676  0.589-  36 2.32  82 2.33  97 2.43  89 2.47
  80  0.410  0.670  0.504-  59 2.36  44 2.38  15 2.38  73 2.40
  81  0.763  0.928  0.578-  82 2.30  18 2.32  95 2.39  71 2.42
  82  0.713  0.797  0.541-  81 2.30  96 2.32  79 2.33  19 2.36
  83  0.254  0.597  0.394-   4 1.49   5 1.82  52 2.34  27 2.35
  84  0.152  0.119  0.597-  28 2.30  26 2.31  35 2.32  43 2.35  21 2.88
  85  0.921  0.314  0.617-  12 2.33  20 2.35  78 2.39  57 2.43
  86  0.579  0.789  0.410-  99 2.34  59 2.36  58 2.36  66 2.37
  87  0.367  0.226  0.580-  35 2.34  42 2.35  32 2.39  21 2.48
  88  0.334  0.863  0.372-  47 2.35  58 2.37  77 2.54
  89  0.912  0.724  0.611-  61 2.40  18 2.46  79 2.47  29 2.51
  90  0.110  0.886  0.573-  26 2.31  61 2.34  25 2.35  37 2.37  70 2.94
  91  0.650  0.272  0.489-  93 2.34  94 2.35  98 2.36  45 2.37
  92  0.326  0.187  0.417-  33 2.29  64 2.36  46 2.39  40 2.40  72 2.56 101 3.05
  93  0.769  0.325  0.442-  91 2.34  74 2.34  51 2.35  62 2.36
  94  0.685  0.129  0.523-  31 2.30  71 2.33  91 2.35  16 2.35
  95  0.628  0.999  0.609-  81 2.39  16 2.44  53 2.60  31 2.85  19 3.03
  96  0.794  0.786  0.472-  82 2.32  34 2.34  66 2.36  30 2.41
  97  0.605  0.604  0.598-  48 2.32  73 2.37  79 2.43  36 3.08
  98  0.533  0.300  0.434-  33 2.33  39 2.36  91 2.36  60 2.40
  99  0.634  0.939  0.399-  65 2.32  34 2.33  86 2.34
 100  0.168  0.663  0.562-  44 2.33  10 2.43  70 2.46  61 2.47
 101  0.118  0.192  0.430-  64 2.30  22 2.30  55 2.35  46 2.39  92 3.05
 102  0.018  0.914  0.433-   7 1.52  49 2.35  30 2.40  77 2.44
 103  0.109  0.496  0.646-  12 2.32  29 2.35  10 2.38

  LATTYP: Found a simple tetragonal cell.
 ALAT       =    14.5388263618
 C/A-ratio  =     1.9923949966
  
  Lattice vectors:
  
 A1 = (  14.5388263618,   0.0000000000,   0.0000000000)
 A2 = (   0.0000000000,  14.5388263618,   0.0000000000)
 A3 = (   0.0000000000,   0.0000000000,  28.9670849000)


Analysis of symmetry for initial positions (statically):
=====================================================================
 Subroutine PRICEL returns:
 Original cell was already a primitive cell.
 

 Routine SETGRP: Setting up the symmetry group for a 
 simple tetragonal supercell.


 Subroutine GETGRP returns: Found  1 space group operations
 (whereof  1 operations were pure point group operations)
 out of a pool of 16 trial point group operations.


The static configuration has the point symmetry C_1 .


Analysis of symmetry for dynamics (positions and initial velocities):
=====================================================================
 Subroutine PRICEL returns:
 Original cell was already a primitive cell.
 

 Routine SETGRP: Setting up the symmetry group for a 
 simple tetragonal supercell.


 Subroutine GETGRP returns: Found  1 space group operations
 (whereof  1 operations were pure point group operations)
 out of a pool of 16 trial point group operations.


The dynamic configuration has the point symmetry C_1 .


 Subroutine INISYM returns: Found  1 space group operations
 (whereof  1 operations are pure point group operations),
 and found     1 'primitive' translations


----------------------------------------------------------------------------------------

                                     Primitive cell                                     

  volume of cell :    6122.9892

  direct lattice vectors                    reciprocal lattice vectors
    14.538826362  0.000000000  0.000000000     0.068781343  0.000000000  0.000000000
     0.000000000 14.538826362  0.000000000     0.000000000  0.068781343  0.000000000
     0.000000000  0.000000000 28.967084900     0.000000000  0.000000000  0.034521941

  length of vectors
    14.538826362 14.538826362 28.967084900     0.068781343  0.068781343  0.034521941

  position of ions in fractional coordinates (direct lattice)
     0.377556377  0.103245312  0.498891044
     0.695668407  0.347785997  0.650861065
     0.243505648  0.514929075  0.475451947
     0.195941506  0.548872024  0.359594163
     0.241570127  0.532873394  0.447893256
     0.667019754  0.164534248  0.383016953
     0.024052514  0.992542780  0.467636818
     0.943292292  0.413856078  0.328405077
     0.891792695  0.155819985  0.558721453
     0.198644676  0.501413909  0.577255548
     0.781440524  0.589154482  0.382764395
     0.062345865  0.344339039  0.651771148
     0.030950823  0.547698614  0.482974772
     0.254373841  0.966535599  0.465116453
     0.462805824  0.549578737  0.454346884
     0.700614939  0.150260226  0.603417234
     0.936123400  0.611621026  0.375506069
     0.881995021  0.887210826  0.627009577
     0.566125432  0.866243615  0.534249764
     0.978716745  0.355463694  0.543728005
     0.303788919  0.171249181  0.654975138
     0.967735302  0.173715441  0.453455371
     0.405909226  0.755321489  0.631443503
     0.142879014  0.359869165  0.534643976
     0.163734038  0.885460705  0.649800477
     0.031471035  0.023824609  0.575396872
     0.180884490  0.723163517  0.429187567
     0.147660296  0.215082306  0.660119799
     0.968385410  0.562798628  0.624255982
     0.959190590  0.788943476  0.478668069
     0.562939038  0.029658749  0.517279174
     0.429111979  0.368490240  0.552905553
     0.479184080  0.164652374  0.401698456
     0.772781703  0.931699547  0.439412290
     0.222612456  0.215819075  0.544512538
     0.790424773  0.528001466  0.564207659
     0.251533166  0.878556688  0.532374926
     0.359973201  0.498076704  0.585922598
     0.423989970  0.394500205  0.471602249
     0.299415783  0.348890654  0.426934886
     0.022190735  0.424232881  0.431794729
     0.426048137  0.093872459  0.544108184
     0.257657655  0.018340104  0.631406832
     0.256374768  0.724548664  0.502332651
     0.591706606  0.355924141  0.552932139
     0.206326064  0.154921205  0.363220084
     0.400479776  0.926944443  0.438439862
     0.643706812  0.504299325  0.539162147
     0.892940146  0.955366778  0.386449913
     0.937353216  0.086577634  0.519016874
     0.704431668  0.459430646  0.410003392
     0.411503798  0.582630807  0.379807018
     0.491150410  0.884706638  0.604593486
     0.361712683  0.963126132  0.577413369
     0.151301277  0.342794855  0.453754220
     0.634184727  0.289260472  0.622107983
     0.842335595  0.457270233  0.633265022
     0.439315251  0.739431869  0.377235978
     0.480966036  0.803456215  0.474298844
     0.560367280  0.417902461  0.378106067
     0.025660126  0.754212025  0.553288950
     0.759894197  0.209521213  0.384521344
     0.002561980  0.473900338  0.357178414
     0.230244321  0.126698356  0.475333849
     0.526126397  0.028660522  0.437013435
     0.697863785  0.685308379  0.430873385
     0.624316776  0.553538969  0.462418991
     0.944611971  0.512392443  0.547233008
     0.873271143  0.107976133  0.399558732
     0.249783742  0.766258946  0.615160682
     0.795743879  0.016651937  0.509123497
     0.283328279  0.297679089  0.351777895
     0.447746011  0.635833670  0.582628344
     0.919971301  0.322910854  0.469313549
     0.946968211  0.030515981  0.643668635
     0.024523489  0.673328918  0.436159073
     0.175752734  0.880933261  0.408819372
     0.861480161  0.160490448  0.615113742
     0.754814651  0.675586976  0.588607894
     0.410348105  0.669898845  0.503716756
     0.763190380  0.928461341  0.577924508
     0.712761061  0.797471259  0.541015826
     0.254024341  0.597140608  0.394138846
     0.151565105  0.118847787  0.597104293
     0.921245031  0.313962537  0.616712859
     0.579364881  0.789067699  0.410083899
     0.366749546  0.226102793  0.580245484
     0.333552792  0.862811024  0.372104949
     0.911527699  0.723504219  0.610922838
     0.110234449  0.885726634  0.573109644
     0.650330526  0.271680904  0.489198882
     0.326277733  0.187226055  0.417208208
     0.768602779  0.324931052  0.441645337
     0.685066556  0.129368288  0.523334822
     0.628224584  0.998952497  0.608782111
     0.794091929  0.786333970  0.472434359
     0.604511740  0.604415881  0.598223903
     0.533369715  0.300278225  0.434408247
     0.634458764  0.938858543  0.399289953
     0.167928562  0.663075876  0.561906286
     0.117868115  0.191772829  0.430108522
     0.018468312  0.913959491  0.433286289
     0.109230610  0.496133303  0.645934072

  ion indices of the primitive-cell ions
   primitive index   ion index
                 1           1
                 2           2
                 3           3
                 4           4
                 5           5
                 6           6
                 7           7
                 8           8
                 9           9
                10          10
                11          11
                12          12
                13          13
                14          14
                15          15
                16          16
                17          17
                18          18
                19          19
                20          20
                21          21
                22          22
                23          23
                24          24
                25          25
                26          26
                27          27
                28          28
                29          29
                30          30
                31          31
                32          32
                33          33
                34          34
                35          35
                36          36
                37          37
                38          38
                39          39
                40          40
                41          41
                42          42
                43          43
                44          44
                45          45
                46          46
                47          47
                48          48
                49          49
                50          50
                51          51
                52          52
                53          53
                54          54
                55          55
                56          56
                57          57
                58          58
                59          59
                60          60
                61          61
                62          62
                63          63
                64          64
                65          65
                66          66
                67          67
                68          68
                69          69
                70          70
                71          71
                72          72
                73          73
                74          74
                75          75
                76          76
                77          77
                78          78
                79          79
                80          80
                81          81
                82          82
                83          83
                84          84
                85          85
                86          86
                87          87
                88          88
                89          89
                90          90
                91          91
                92          92
                93          93
                94          94
                95          95
                96          96
                97          97
                98          98
                99          99
               100         100
               101         101
               102         102
               103         103

----------------------------------------------------------------------------------------


 -----------------------------------------------------------------------------
|                                                                             |
|           W    W    AA    RRRRR   N    N  II  N    N   GGGG   !!!           |
|           W    W   A  A   R    R  NN   N  II  NN   N  G    G  !!!           |
|           W    W  A    A  R    R  N N  N  II  N N  N  G       !!!           |
|           W WW W  AAAAAA  RRRRR   N  N N  II  N  N N  G  GGG   !            |
|           WW  WW  A    A  R   R   N   NN  II  N   NN  G    G                |
|           W    W  A    A  R    R  N    N  II  N    N   GGGG   !!!           |
|                                                                             |
|     The requested file  could not be found or opened for reading            |
|     k-point information. Automatic k-point generation is used as a          |
|     fallback, which may lead to unwanted results.                           |
|                                                                             |
 -----------------------------------------------------------------------------



Automatic generation of k-mesh.
 Grid dimensions derived from KSPACING:
 generate k-points for:    2    2    1

 Generating k-lattice:

  Cartesian coordinates                     Fractional coordinates (reciprocal lattice)
     0.034390671  0.000000000  0.000000000     0.500000000  0.000000000  0.000000000
     0.000000000  0.034390671  0.000000000     0.000000000  0.500000000  0.000000000
     0.000000000  0.000000000  0.034521941     0.000000000  0.000000000  1.000000000

  Length of vectors
     0.034390671  0.034390671  0.034521941

  Shift w.r.t. Gamma in fractional coordinates (k-lattice)
     0.000000000  0.000000000  0.000000000

 
 Subroutine IBZKPT returns following result:
 ===========================================
 
 Found      4 irreducible k-points:
 
 Following reciprocal coordinates:
            Coordinates               Weight
  0.000000  0.000000  0.000000      1.000000
  0.500000  0.000000  0.000000      1.000000
  0.000000  0.500000  0.000000      1.000000
  0.500000  0.500000  0.000000      1.000000
 
 Following cartesian coordinates:
            Coordinates               Weight
  0.000000  0.000000  0.000000      1.000000
  0.034391  0.000000  0.000000      1.000000
  0.000000  0.034391  0.000000      1.000000
  0.034391  0.034391  0.000000      1.000000
 


--------------------------------------------------------------------------------------------------------




 Dimension of arrays:
   k-points           NKPTS =      4   k-points in BZ     NKDIM =      4   number of bands    NBANDS=    248
   number of dos      NEDOS =   2000   number of ions     NIONS =    103
   non local maximal  LDIM  =      4   non local SUM 2l+1 LMDIM =      8
   total plane-waves  NPLWV = ******
   max r-space proj   IRMAX =      1   max aug-charges    IRDMAX= 414422
   dimension x,y,z NGX =   168 NGY =  168 NGZ =  336
   dimension x,y,z NGXF=   336 NGYF=  336 NGZF=  672
   support grid    NGXF=   672 NGYF=  672 NGZF= 1344
   ions per type =               9  94
   NGX,Y,Z   is equivalent  to a cutoff of  19.21, 19.21, 19.28 a.u.
   NGXF,Y,Z  is equivalent  to a cutoff of  38.42, 38.42, 38.57 a.u.

 SYSTEM =  a-Si SPC                                
 POSCAR =   H Si                                   

 Startparameter for this run:
   NWRITE =      2    write-flag & timer
   PREC   = accura    normal or accurate (medium, high low for compatibility)
   ISTART =      1    job   : 0-new  1-cont  2-samecut
   ICHARG =      1    charge: 1-file 2-atom 10-const
   ISPIN  =      1    spin polarized calculation?
   LNONCOLLINEAR =      F non collinear calculations
   LSORBIT =      F    spin-orbit coupling
   INIWAV =      1    electr: 0-lowe 1-rand  2-diag
   LASPH  =      T    aspherical Exc in radial PAW
 Electronic Relaxation 1
   ENCUT  = 1200.0 eV  88.20 Ry    9.39 a.u.  41.07 41.07 81.82*2*pi/ulx,y,z
   ENINI  = 1200.0     initial cutoff
   ENAUG  =  400.0 eV  augmentation charge cutoff
   NELM   =    150;   NELMIN=  2; NELMDL=  0     # of ELM steps 
   EDIFF  = 0.1E-05   stopping-criterion for ELM
   LREAL  =      F    real-space projection
   NLSPLINE    = F    spline interpolate recip. space projectors
   LCOMPAT=      F    compatible to vasp.4.4
   GGA_COMPAT  = T    GGA compatible to vasp.4.4-vasp.4.6
   LMAXPAW     = -100 max onsite density
   LMAXMIX     =    2 max onsite mixed and CHGCAR
   VOSKOWN=      0    Vosko Wilk Nusair interpolation
   ROPT   =    0.00000   0.00000
 Ionic relaxation
   EDIFFG = -.1E-01   stopping-criterion for IOM
   NSW    =      0    number of steps for IOM
   NBLOCK =      1;   KBLOCK =      1    inner block; outer block 
   IBRION =     -1    ionic relax: 0-MD 1-quasi-New 2-CG
   NFREE  =      0    steps in history (QN), initial steepest desc. (CG)
   ISIF   =      2    stress and relaxation
   IWAVPR =     10    prediction:  0-non 1-charg 2-wave 3-comb
   ISYM   =      1    0-nonsym 1-usesym 2-fastsym
   LCORR  =      T    Harris-Foulkes like correction to forces

   POTIM  = 0.5000    time-step for ionic-motion
   TEIN   =    0.0    initial temperature
   TEBEG  =    0.0;   TEEND  =   0.0 temperature during run
   SMASS  =  -3.00    Nose mass-parameter (am)
   estimated Nose-frequenzy (Omega)   =  0.10E-29 period in steps = 0.13E+47 mass=  -0.483E-26a.u.
   SCALEE = 1.0000    scale energy and forces
   NPACO  =    256;   APACO  = 10.0  distance and # of slots for P.C.
   PSTRESS=    0.0 pullay stress

  Mass of Ions in am
   POMASS =   1.00 28.09
  Ionic Valenz
   ZVAL   =   1.00  4.00
  Atomic Wigner-Seitz radii
   RWIGS  =  -1.00 -1.00
  virtual crystal weights 
   VCA    =   1.00  1.00
   NELECT =     385.0000    total number of electrons
   NUPDOWN=      -1.0000    fix difference up-down

 DOS related values:
   EMIN   =  10.00;   EMAX   =-10.00  energy-range for DOS
   EFERMI =   0.00;   METHOD = LEGACY      
   ISMEAR =     0;   SIGMA  =   0.10  broadening in eV -4-tet -1-fermi 0-gaus
   EFERMI_NEDOS =   21; number of points for ismear=-14 and -15

 Electronic relaxation 2 (details)
   IALGO  =     38    algorithm
   LDIAG  =      F    sub-space diagonalisation (order eigenvalues)
   LSUBROT=      F    optimize rotation matrix (better conditioning)
   TURBO    =      0    0=normal 1=particle mesh
   IRESTART =      0    0=no restart 2=restart with 2 vectors
   NREBOOT  =      0    no. of reboots
   NMIN     =      0    reboot dimension
   EREF     =   0.00    reference energy to select bands
   IMIX   =      4    mixing-type and parameters
     AMIX     =   0.40;   BMIX     =  1.00
     AMIX_MAG =   1.60;   BMIX_MAG =  1.00
     AMIN     =   0.10
     WC   =   100.;   INIMIX=   1;  MIXPRE=   1;  MAXMIX= -45

 Intra band minimization:
   WEIMIN = 0.0000     energy-eigenvalue tresh-hold
   EBREAK =  0.10E-08  absolut break condition
   DEPER  =   0.30     relativ break condition  

   TIME   =   0.40     timestep for ELM

  volume/ion in A,a.u.               =      59.45       401.16
  Fermi-wavevector in a.u.,A,eV,Ry     =   0.650989  1.230192  5.765975  0.423787
  Thomas-Fermi vector in A             =   1.720445

 Write flags
   LWAVE        =      F    write WAVECAR
   LDOWNSAMPLE  =      F    k-point downsampling of WAVECAR
   LCHARG       =      F    write CHGCAR
   LVTOT        =      F    write LOCPOT, total local potential
   LVHAR        =      F    write LOCPOT, Hartree potential only
   WRT_POTENTIAL= false  ! write potential to hdf5 file
   LELF         =      F    write electronic localiz. function (ELF)
   LORBIT       =     11    0 simple, 1 ext, 2 COOP (PROOUT), +10 PAW based schemes


 Python interface
   PLUGINS active      =      F    recompile with -DPLUGINS to activate

 Dipole corrections
   LMONO      =      F    monopole corrections only (constant potential shift)
   LDIPOL     =      F    correct potential (dipole corrections)
   IDIPOL     =      0    1-x, 2-y, 3-z, 4-all directions 
   EPSILON    =  1.0000000 bulk dielectric constant
   LVACPOTAV  =      F  vacuum potentials using an averaging scheme for the charge density
   VACPOTFLAT =  0.1000000 required flatness to determine vacuum potential

Coulomb truncation method
  LTRUNCATE          =      F  Coulomb kernel truncation to be used
  IDIMENSIONALITY    =      3  Dimensionality of cutoff (0 molecules / 2 surfaces)
  ISURFACE           =     -1  Direction of surface normal
  LCOARSEN           =      F  Coarsen the charge grid before padding, preferred


 Exchange correlation treatment:
   METAGGA = SCAN    functional components
   XC_C    = 1    coefficients multiplying the functional components
   LIBXC   =     F    Libxc                    
   VOSKOWN =     0    Vosko Wilk Nusair interpolation
   LHFCALC =     F    Hartree Fock is set to
   LHFONE  =     F    Hartree Fock one center treatment
   AEXX    =    0.0000 exact exchange contribution

 Parameters of functionals:
   SCAN:
     P1 =  0.000000E+00
     P2 =  0.000000E+00
     P3 =  0.000000E+00

 Accuracy and mixing parameters for tau-dependent meta-GGA functionals:
   LMAXTAU = 6
   LMIXTAU = T

 Van der Waals corrections
   IVDW    =     0    specifies the selected vdW correction

 Linear response parameters
   LEPSILON=     F    determine dielectric tensor
   LRPA    =     F    only Hartree local field effects (RPA)
   LNABLA  =     F    use nabla operator in PAW spheres
   LVEL    =     F    velocity operator in full k-point grid
   CSHIFT  =0.1000    complex shift for real part using Kramers Kronig
   OMEGAMAX=  -1.0    maximum frequency
   DEG_THRESHOLD= 0.2000000E-02 threshold for treating states as degnerate
   RTIME   =   -0.100 relaxation time in fs
  (WPLASMAI=    0.000 imaginary part of plasma frequency in eV, 0.658/RTIME)
   DFIELD  = 0.0000000 0.0000000 0.0000000 field for delta impulse in time

  Optional k-point grid parameters
   LKPOINTS_OPT  =     F    use optional k-point grid
   KPOINTS_OPT_MODE=     1    mode for optional k-point grid

 Orbital magnetization related:
   ORBITALMAG=     F  switch on orbital magnetization
   LCHIMAG   =     F  perturbation theory with respect to B field
   DQ        =  0.001000  dq finite difference perturbation B field
   LLRAUG    =     F  two centre corrections for induced B field
   LBONE     =     F  B-component reconstruction in AE one-centre
   LVGVCALC  =     T  calculate vGv susceptibility
   LVGVAPPL  =     F  apply vGv susceptibility instead of pGv for G=0

 Random number generation:
   RANDOM_GENERATOR = DEFAULT
   PCG_SEED         = not used


--------------------------------------------------------------------------------------------------------


 Static calculation
 charge density and potential will be updated during run
 non-spin polarized calculation
 Variant of blocked Davidson
 perform Loewdin sub-space diagonalisation
    ordering is kept fixed
    before iterative eigenvector-optimisation
 modified Broyden-mixing scheme, WC =      100.0
 initial mixing is a Kerker type mixing with AMIX =  0.4000 and BMIX =      1.0000
 Hartree-type preconditioning will be used
 using additional bands           55
 reciprocal scheme for non local part
 use partial core corrections
 calculate Harris-corrections to forces   (improved forces if not selfconsistent)
 use gradient corrections 
 use of overlap-Matrix (Vanderbilt PP)
 Gauss-broadening in eV      SIGMA  =   0.10


--------------------------------------------------------------------------------------------------------


  energy-cutoff  :     1200.00
  volume of cell :     6122.99
      direct lattice vectors                 reciprocal lattice vectors
    14.538826362  0.000000000  0.000000000     0.068781343  0.000000000  0.000000000
     0.000000000 14.538826362  0.000000000     0.000000000  0.068781343  0.000000000
     0.000000000  0.000000000 28.967084900     0.000000000  0.000000000  0.034521941

  length of vectors
    14.538826362 14.538826362 28.967084900     0.068781343  0.068781343  0.034521941



 old parameters found on file WAVECAR:
  energy-cutoff  :     1200.00
  volume of cell :     6122.99
      direct lattice vectors                 reciprocal lattice vectors
    14.538826362  0.000000000  0.000000000     0.068781343  0.000000000  0.000000000
     0.000000000 14.538826362  0.000000000     0.000000000  0.068781343  0.000000000
     0.000000000  0.000000000 28.967084900     0.000000000  0.000000000  0.034521941

  length of vectors


 k-points in units of 2pi/SCALE and weight: read from INCAR                         
   0.00000000  0.00000000  0.00000000       0.250
   0.03439067  0.00000000  0.00000000       0.250
   0.00000000  0.03439067  0.00000000       0.250
   0.03439067  0.03439067  0.00000000       0.250

 k-points in reciprocal lattice and weights: read from INCAR                         
   0.00000000  0.00000000  0.00000000       0.250
   0.50000000  0.00000000  0.00000000       0.250
   0.00000000  0.50000000  0.00000000       0.250
   0.50000000  0.50000000  0.00000000       0.250

 position of ions in fractional coordinates (direct lattice) 
   0.37755638  0.10324531  0.49889104
   0.69566841  0.34778600  0.65086107
   0.24350565  0.51492907  0.47545195
   0.19594151  0.54887202  0.35959416
   0.24157013  0.53287339  0.44789326
   0.66701975  0.16453425  0.38301695
   0.02405251  0.99254278  0.46763682
   0.94329229  0.41385608  0.32840508
   0.89179270  0.15581998  0.55872145
   0.19864468  0.50141391  0.57725555
   0.78144052  0.58915448  0.38276440
   0.06234587  0.34433904  0.65177115
   0.03095082  0.54769861  0.48297477
   0.25437384  0.96653560  0.46511645
   0.46280582  0.54957874  0.45434688
   0.70061494  0.15026023  0.60341723
   0.93612340  0.61162103  0.37550607
   0.88199502  0.88721083  0.62700958
   0.56612543  0.86624361  0.53424976
   0.97871675  0.35546369  0.54372800
   0.30378892  0.17124918  0.65497514
   0.96773530  0.17371544  0.45345537
   0.40590923  0.75532149  0.63144350
   0.14287901  0.35986917  0.53464398
   0.16373404  0.88546070  0.64980048
   0.03147103  0.02382461  0.57539687
   0.18088449  0.72316352  0.42918757
   0.14766030  0.21508231  0.66011980
   0.96838541  0.56279863  0.62425598
   0.95919059  0.78894348  0.47866807
   0.56293904  0.02965875  0.51727917
   0.42911198  0.36849024  0.55290555
   0.47918408  0.16465237  0.40169846
   0.77278170  0.93169955  0.43941229
   0.22261246  0.21581908  0.54451254
   0.79042477  0.52800147  0.56420766
   0.25153317  0.87855669  0.53237493
   0.35997320  0.49807670  0.58592260
   0.42398997  0.39450020  0.47160225
   0.29941578  0.34889065  0.42693489
   0.02219074  0.42423288  0.43179473
   0.42604814  0.09387246  0.54410818
   0.25765766  0.01834010  0.63140683
   0.25637477  0.72454866  0.50233265
   0.59170661  0.35592414  0.55293214
   0.20632606  0.15492121  0.36322008
   0.40047978  0.92694444  0.43843986
   0.64370681  0.50429932  0.53916215
   0.89294015  0.95536678  0.38644991
   0.93735322  0.08657763  0.51901687
   0.70443167  0.45943065  0.41000339
   0.41150380  0.58263081  0.37980702
   0.49115041  0.88470664  0.60459349
   0.36171268  0.96312613  0.57741337
   0.15130128  0.34279486  0.45375422
   0.63418473  0.28926047  0.62210798
   0.84233559  0.45727023  0.63326502
   0.43931525  0.73943187  0.37723598
   0.48096604  0.80345622  0.47429884
   0.56036728  0.41790246  0.37810607
   0.02566013  0.75421202  0.55328895
   0.75989420  0.20952121  0.38452134
   0.00256198  0.47390034  0.35717841
   0.23024432  0.12669836  0.47533385
   0.52612640  0.02866052  0.43701343
   0.69786378  0.68530838  0.43087338
   0.62431678  0.55353897  0.46241899
   0.94461197  0.51239244  0.54723301
   0.87327114  0.10797613  0.39955873
   0.24978374  0.76625895  0.61516068
   0.79574388  0.01665194  0.50912350
   0.28332828  0.29767909  0.35177789
   0.44774601  0.63583367  0.58262834
   0.91997130  0.32291085  0.46931355
   0.94696821  0.03051598  0.64366864
   0.02452349  0.67332892  0.43615907
   0.17575273  0.88093326  0.40881937
   0.86148016  0.16049045  0.61511374
   0.75481465  0.67558698  0.58860789
   0.41034810  0.66989885  0.50371676
   0.76319038  0.92846134  0.57792451
   0.71276106  0.79747126  0.54101583
   0.25402434  0.59714061  0.39413885
   0.15156511  0.11884779  0.59710429
   0.92124503  0.31396254  0.61671286
   0.57936488  0.78906770  0.41008390
   0.36674955  0.22610279  0.58024548
   0.33355279  0.86281102  0.37210495
   0.91152770  0.72350422  0.61092284
   0.11023445  0.88572663  0.57310964
   0.65033053  0.27168090  0.48919888
   0.32627773  0.18722605  0.41720821
   0.76860278  0.32493105  0.44164534
   0.68506656  0.12936829  0.52333482
   0.62822458  0.99895250  0.60878211
   0.79409193  0.78633397  0.47243436
   0.60451174  0.60441588  0.59822390
   0.53336972  0.30027822  0.43440825
   0.63445876  0.93885854  0.39928995
   0.16792856  0.66307588  0.56190629
   0.11786812  0.19177283  0.43010852
   0.01846831  0.91395949  0.43328629
   0.10923061  0.49613330  0.64593407

 position of ions in cartesian coordinates  (Angst):
   5.48922660  1.50106567 14.45141922
  10.11420217  5.05640022 18.85354773
   3.54028634  7.48646441 13.77245692
   2.84875954  7.97995505 10.41639466
   3.51214613  7.74735375 12.97416196
   9.69768438  2.39213486 11.09488461
   0.34969533 14.43040713 13.54607540
  13.71436284  6.01698166  9.51293775
  12.96561915  2.26543970 16.18453177
   2.88806045  7.28996976 16.72141048
  11.36122809  8.56561471 11.08756874
   0.90643571  5.00628550 18.87991018
   0.44998864  7.96289505 13.99037122
   3.69829710 14.05229325 13.47306779
   6.72865351  7.99022983 13.16110477
  10.18611894  2.18460734 17.47923825
  13.61013556  8.89225190 10.87731618
  12.82317246 12.89900414 18.16263964
   8.23079935 12.59416550 15.47565826
  14.22939282  5.16802492 15.75021527
   4.41673435  2.48976210 18.97272043
  14.06973552  2.52561863 13.13528024
   5.90144375 10.98148797 18.29107757
   2.07729317  5.23207531 15.48707745
   2.38050075 12.87355944 18.82282558
   0.45755191  0.34638185 16.66757004
   2.62984819 10.51394881 12.43231270
   2.14680741  3.12704430 19.12174626
  14.07918733  8.18243153 18.08287602
  13.94550544 11.47031220 13.86561860
   8.18447293  0.43120340 14.98406975
   6.23878455  5.35741561 16.01606210
   6.96677414  2.39385228 11.63603327
  11.23533899 13.54581794 12.72849311
   3.23652385  3.13775606 15.77294093
  11.49184852  7.67652164 16.34345117
   3.65699703 12.77318313 15.42134969
   5.23358786  7.24145072 16.97246965
   6.16431656  5.73556998 13.66094240
   4.35315408  5.07246064 12.36705910
   0.32262725  6.16784819 12.50783456
   6.19423989  1.36479538 15.76122797
   3.74603991  0.26664359 18.29001532
   3.72738823 10.53408721 14.55111255
   8.60271960  5.17471928 16.01683221
   2.99973882  2.25237250 10.52142701
   5.82250592 13.47668431 12.70032471
   9.35874157  7.33192032 15.61795570
  12.98230173 13.88991169 11.19432745
  13.62801564  1.25873719 15.03440586
  10.24160971  6.67958239 11.87660307
   5.98278226  8.47076813 11.00190215
   7.14075053 12.86259619 17.51331084
   5.25887789 14.00272360 16.72598207
   2.19974300  4.98383488 13.14393701
   9.22030163  4.20550778 18.02065476
  12.24657095  6.64817252 18.34384166
   6.38712815 10.75047155 10.92742659
   6.99268169 11.68131040 13.73905487
   8.14708258  6.07581131 10.95263054
   0.37306811 10.96535767 16.02716800
  11.04796978  3.04619254 11.13846243
   0.03724819  6.88995472 10.34641743
   3.34748221  1.84204540 13.76903596
   7.64926033  0.41669036 12.65900526
  10.14612039  9.96357953 12.48114592
   9.07683320  8.04780695 13.39493016
  13.73354943  7.44958476 15.85174501
  12.69633751  1.56984625 11.57405170
   3.63156245 11.14050577 17.81941171
  11.56918208  0.24209962 14.74782355
   4.11926065  4.32790459 10.18998014
   6.50970151  9.24427532 16.87704471
  13.37530300  4.69474484 13.59464543
  13.76780639  0.44366655 18.64520401
   0.35654275  9.78941223 12.63425690
   2.55523848 12.80773572 11.84230545
  12.52491047  2.33334276 17.81805200
  10.97411914  9.82224174 17.05025485
   5.96597984  9.73954299 14.59120604
  11.09589242 13.49873822 16.74078828
  10.36270931 11.59429616 15.67165135
   3.69321578  8.68172362 11.41705342
   2.20357875  1.72790734 17.29637074
  13.39382154  4.56464681 17.86437374
   8.42328541 11.47211827 11.87893513
   5.33210797  3.28726925 16.80802021
   4.84946612 12.54425966 10.77879566
  13.25254294 10.51890221 17.69665372
   1.60267951 12.87742573 16.60131572
   9.45504260  3.94992149 14.17066554
   4.74369530  2.72204710 12.08530559
  11.17458235  4.72411614 12.79317797
   9.96006371  1.88086308 15.15948423
   9.13364815 14.52359690 17.63464309
  11.54516467 11.43237305 13.68504618
   8.78889122  8.78749755 17.32880258
   7.75456968  4.36569297 12.58354057
   9.22428581 13.64990134 11.56626597
   2.44148421  9.64034502 16.27678710
   1.71366406  2.78815186 12.45899007
   0.26850758 13.28789834 12.55104072
   1.58808487  7.21319595 18.71082711



--------------------------------------------------------------------------------------------------------


 k-point     1 :   0.0000 0.0000 0.0000  plane waves:  577715
 k-point     2 :   0.5000 0.0000 0.0000  plane waves:  577914
 k-point     3 :   0.0000 0.5000 0.0000  plane waves:  577914
 k-point     4 :   0.5000 0.5000 0.0000  plane waves:  578060

 maximum and minimum number of plane-waves per node :     36178    36048

 maximum number of plane-waves:    578060
 maximum index in each direction: 
   IXMAX=   41   IYMAX=   41   IZMAX=   81
   IXMIN=  -41   IYMIN=  -41   IZMIN=  -81


 parallel 3D FFT for wavefunctions:
    minimum data exchange during FFTs selected (reduces bandwidth)
 parallel 3D FFT for charge:
    minimum data exchange during FFTs selected (reduces bandwidth)


 total amount of memory used by VASP MPI-rank0   382338. kBytes
=======================================================================

   base                                    :      30000. kBytes
   nonl-proj                               :      78053. kBytes
   fftplans                                :     114276. kBytes
   grid                                    :      88184. kBytes
   one-center                              :         21. kBytes
   wavefun                                 :      71804. kBytes

     INWAV:  cpu time     21.2922: real time     21.3056
 Broyden mixing: mesh for mixing (old mesh)
   NGX = 83   NGY = 83   NGZ =163
  (NGX  =336   NGY  =336   NGZ  =672)
  gives a total of ****** points

 initial charge density was supplied:
 number of electron     384.9999999 magnetization 
 keeping initial charge density in first step


--------------------------------------------------------------------------------------------------------


 Maximum index for augmentation-charges        11551 (set IRDMAX)


--------------------------------------------------------------------------------------------------------


 First call to EWALD:  gamma=   0.097
 Maximum number of real-space cells   3x   3x   2
 Maximum number of reciprocal cells   2x   2x   4

    FEWALD:  cpu time      0.0172: real time      0.0172


--------------------------------------- Ionic step        1  -------------------------------------------




--------------------------------------- Iteration      1(   1)  ---------------------------------------


    POTLOK:  cpu time      2.3075: real time      2.3087
    SETDIJ:  cpu time      1.7805: real time      1.7813
    EDDIAG:  cpu time     43.4432: real time     43.4669
     EDDAV:  cpu time    202.5611: real time    202.6673
       DOS:  cpu time      0.0092: real time      0.0093
    CHARGE:  cpu time     25.2917: real time     25.3135
    MIXING:  cpu time      0.0532: real time      0.0542
    --------------------------------------------
      LOOP:  cpu time    275.4464: real time    275.6012

 eigenvalue-minimisations  :  1984
 total energy-change (2. order) :-0.9800004E+03  (-0.1090663E+01)
 number of electron     384.9999999 magnetization 
 augmentation part      -21.1820010 magnetization 

 Broyden mixing:
  rms(total) = 0.12042E+01    rms(broyden)= 0.12042E+01
  rms(prec ) = 0.12063E+01
  weight for this iteration     100.00

 Free energy of the ion-electron system (eV)
  ---------------------------------------------------
  alpha Z        PSCENC =        51.12021061
  Ewald energy   TEWEN  =     63063.90322920
  -Hartree energ DENC   =    -71760.81955299
  -exchange      EXHF   =         0.00000000
  -V(xc)+E(xc)   XCENC  =      -436.69296703
  PAW double counting   =     35128.90767531   -34191.76556224
  entropy T*S    EENTRO =        -0.19902862
  eigenvalues    EBANDS =     -2635.13223992
  atomic energy  EATOM  =      9800.67782177
  Solvation  Ediel_sol  =         0.00000000
  ---------------------------------------------------
  free energy    TOTEN  =      -980.00041391 eV

  energy without entropy =     -979.80138529  energy(sigma->0) =     -979.90089960


--------------------------------------------------------------------------------------------------------




--------------------------------------- Iteration      1(   2)  ---------------------------------------


    POTLOK:  cpu time      2.2533: real time      2.2783
    SETDIJ:  cpu time      1.7850: real time      1.7857
    EDDIAG:  cpu time     43.4171: real time     43.4407
     EDDAV:  cpu time    204.0731: real time    204.1846
       DOS:  cpu time      0.0021: real time      0.0021
    CHARGE:  cpu time     25.1295: real time     25.1528
    MIXING:  cpu time      0.0460: real time      0.0460
    --------------------------------------------
      LOOP:  cpu time    276.7059: real time    276.8901

 eigenvalue-minimisations  :  2016
 total energy-change (2. order) : 0.6804773E+02  (-0.1055161E+01)
 number of electron     384.9999999 magnetization 
 augmentation part      -21.1035891 magnetization 

 Broyden mixing:
  rms(total) = 0.81563E+00    rms(broyden)= 0.81563E+00
  rms(prec ) = 0.82032E+00
  weight for this iteration     100.00

 eigenvalues of (default mixing * dielectric matrix)
  average eigenvalue GAMMA=   2.5609
  2.5609

 Free energy of the ion-electron system (eV)
  ---------------------------------------------------
  alpha Z        PSCENC =        51.12021061
  Ewald energy   TEWEN  =     63063.90322920
  -Hartree energ DENC   =    -71748.99362927
  -exchange      EXHF   =         0.00000000
  -V(xc)+E(xc)   XCENC  =      -426.90155995
  PAW double counting   =     41953.66843218   -41016.29250040
  entropy T*S    EENTRO =        -0.19254454
  eigenvalues    EBANDS =     -2588.94214752
  atomic energy  EATOM  =      9800.67782177
  Solvation  Ediel_sol  =         0.00000000
  ---------------------------------------------------
  free energy    TOTEN  =      -911.95268793 eV

  energy without entropy =     -911.76014339  energy(sigma->0) =     -911.85641566


--------------------------------------------------------------------------------------------------------




--------------------------------------- Iteration      1(   3)  ---------------------------------------


    POTLOK:  cpu time      2.2707: real time      2.2937
    SETDIJ:  cpu time      1.7759: real time      1.7767
    EDDIAG:  cpu time     43.4422: real time     43.4665
     EDDAV:  cpu time    208.2041: real time    208.3134
       DOS:  cpu time      0.0031: real time      0.0031
    CHARGE:  cpu time     25.1315: real time     25.1551
    MIXING:  cpu time      0.0442: real time      0.0442
    --------------------------------------------
      LOOP:  cpu time    280.8716: real time    281.0528

 eigenvalue-minimisations  :  2080
 total energy-change (2. order) :-0.3284669E+01  (-0.1016425E+01)
 number of electron     384.9999999 magnetization 
 augmentation part      -21.0188704 magnetization 

 Broyden mixing:
  rms(total) = 0.28579E+00    rms(broyden)= 0.28579E+00
  rms(prec ) = 0.43255E+00
  weight for this iteration     100.00

 eigenvalues of (default mixing * dielectric matrix)
  average eigenvalue GAMMA=   1.6624
  0.6600  2.6647

 Free energy of the ion-electron system (eV)
  ---------------------------------------------------
  alpha Z        PSCENC =        51.12021061
  Ewald energy   TEWEN  =     63063.90322920
  -Hartree energ DENC   =    -71748.05862232
  -exchange      EXHF   =         0.00000000
  -V(xc)+E(xc)   XCENC  =      -430.20505128
  PAW double counting   =     54286.67061729   -53349.53694094
  entropy T*S    EENTRO =        -0.20635217
  eigenvalues    EBANDS =     -2589.60226910
  atomic energy  EATOM  =      9800.67782177
  Solvation  Ediel_sol  =         0.00000000
  ---------------------------------------------------
  free energy    TOTEN  =      -915.23735695 eV

  energy without entropy =     -915.03100479  energy(sigma->0) =     -915.13418087


--------------------------------------------------------------------------------------------------------




--------------------------------------- Iteration      1(   4)  ---------------------------------------


    POTLOK:  cpu time      2.2922: real time      2.2943
    SETDIJ:  cpu time      1.7825: real time      1.7832
    EDDIAG:  cpu time     43.4327: real time     43.4580
     EDDAV:  cpu time    224.1807: real time    224.2987
       DOS:  cpu time      0.0029: real time      0.0029
    CHARGE:  cpu time     25.1732: real time     25.1961
    MIXING:  cpu time      0.0437: real time      0.0437
    --------------------------------------------
      LOOP:  cpu time    296.9078: real time    297.0770

 eigenvalue-minimisations  :  2352
 total energy-change (2. order) : 0.6049760E-01  (-0.3334222E+00)
 number of electron     384.9999999 magnetization 
 augmentation part      -21.0196715 magnetization 

 Broyden mixing:
  rms(total) = 0.16244E+00    rms(broyden)= 0.16244E+00
  rms(prec ) = 0.26956E+00
  weight for this iteration     100.00

 eigenvalues of (default mixing * dielectric matrix)
  average eigenvalue GAMMA=   1.2833
  2.6095  0.8374  0.4028

 Free energy of the ion-electron system (eV)
  ---------------------------------------------------
  alpha Z        PSCENC =        51.12021061
  Ewald energy   TEWEN  =     63063.90322920
  -Hartree energ DENC   =    -71752.64156984
  -exchange      EXHF   =         0.00000000
  -V(xc)+E(xc)   XCENC  =      -432.39854217
  PAW double counting   =     55997.59212854   -55060.44718169
  entropy T*S    EENTRO =        -0.20956457
  eigenvalues    EBANDS =     -2582.77339119
  atomic energy  EATOM  =      9800.67782177
  Solvation  Ediel_sol  =         0.00000000
  ---------------------------------------------------
  free energy    TOTEN  =      -915.17685935 eV

  energy without entropy =     -914.96729478  energy(sigma->0) =     -915.07207706


--------------------------------------------------------------------------------------------------------




--------------------------------------- Iteration      1(   5)  ---------------------------------------


    POTLOK:  cpu time      2.2556: real time      2.2836
    SETDIJ:  cpu time      1.7885: real time      1.7892
    EDDIAG:  cpu time     43.4768: real time     43.5034
     EDDAV:  cpu time    220.1903: real time    220.3074
       DOS:  cpu time      0.0048: real time      0.0048
    CHARGE:  cpu time     25.1775: real time     25.2007
    MIXING:  cpu time      0.0434: real time      0.0444
    --------------------------------------------
      LOOP:  cpu time    292.9371: real time    293.1338

 eigenvalue-minimisations  :  2296
 total energy-change (2. order) : 0.5010003E-01  (-0.7853187E-01)
 number of electron     384.9999999 magnetization 
 augmentation part      -21.0220404 magnetization 

 Broyden mixing:
  rms(total) = 0.74913E-01    rms(broyden)= 0.74913E-01
  rms(prec ) = 0.93015E-01
  weight for this iteration     100.00

 eigenvalues of (default mixing * dielectric matrix)
  average eigenvalue GAMMA=   1.1622
  2.5484  1.0689  0.7118  0.3195

 Free energy of the ion-electron system (eV)
  ---------------------------------------------------
  alpha Z        PSCENC =        51.12021061
  Ewald energy   TEWEN  =     63063.90322920
  -Hartree energ DENC   =    -71755.87117279
  -exchange      EXHF   =         0.00000000
  -V(xc)+E(xc)   XCENC  =      -433.35324345
  PAW double counting   =     55846.60522427   -54909.42751066
  entropy T*S    EENTRO =        -0.19559305
  eigenvalues    EBANDS =     -2578.58572522
  atomic energy  EATOM  =      9800.67782177
  Solvation  Ediel_sol  =         0.00000000
  ---------------------------------------------------
  free energy    TOTEN  =      -915.12675932 eV

  energy without entropy =     -914.93116627  energy(sigma->0) =     -915.02896280


--------------------------------------------------------------------------------------------------------




--------------------------------------- Iteration      1(   6)  ---------------------------------------


    POTLOK:  cpu time      2.2511: real time      2.2796
    SETDIJ:  cpu time      1.7798: real time      1.7810
    EDDIAG:  cpu time     43.4616: real time     43.4885
     EDDAV:  cpu time    213.2252: real time    213.3401
       DOS:  cpu time      0.0068: real time      0.0068
    CHARGE:  cpu time     25.1450: real time     25.1687
    MIXING:  cpu time      0.0448: real time      0.0448
    --------------------------------------------
      LOOP:  cpu time    285.9141: real time    286.1093

 eigenvalue-minimisations  :  2176
 total energy-change (2. order) :-0.2121510E-02  (-0.1700514E-01)
 number of electron     384.9999999 magnetization 
 augmentation part      -21.0221068 magnetization 

 Broyden mixing:
  rms(total) = 0.48683E-01    rms(broyden)= 0.48683E-01
  rms(prec ) = 0.56038E-01
  weight for this iteration     100.00

 eigenvalues of (default mixing * dielectric matrix)
  average eigenvalue GAMMA=   1.0843
  2.5125  1.3068  0.6371  0.6371  0.3277

 Free energy of the ion-electron system (eV)
  ---------------------------------------------------
  alpha Z        PSCENC =        51.12021061
  Ewald energy   TEWEN  =     63063.90322920
  -Hartree energ DENC   =    -71754.10054690
  -exchange      EXHF   =         0.00000000
  -V(xc)+E(xc)   XCENC  =      -433.50796698
  PAW double counting   =     55634.21473824   -54697.00966096
  entropy T*S    EENTRO =        -0.19601283
  eigenvalues    EBANDS =     -2580.23069298
  atomic energy  EATOM  =      9800.67782177
  Solvation  Ediel_sol  =         0.00000000
  ---------------------------------------------------
  free energy    TOTEN  =      -915.12888083 eV

  energy without entropy =     -914.93286800  energy(sigma->0) =     -915.03087442


--------------------------------------------------------------------------------------------------------




--------------------------------------- Iteration      1(   7)  ---------------------------------------


    POTLOK:  cpu time      2.2522: real time      2.2768
    SETDIJ:  cpu time      1.7874: real time      1.7885
    EDDIAG:  cpu time     43.4419: real time     43.4691
     EDDAV:  cpu time    211.0882: real time    211.1989
       DOS:  cpu time      0.0025: real time      0.0025
    CHARGE:  cpu time     25.1753: real time     25.1999
    MIXING:  cpu time      0.0454: real time      0.0454
    --------------------------------------------
      LOOP:  cpu time    283.7929: real time    283.9810

 eigenvalue-minimisations  :  2136
 total energy-change (2. order) :-0.2171441E-03  (-0.2964034E-02)
 number of electron     384.9999999 magnetization 
 augmentation part      -21.0220554 magnetization 

 Broyden mixing:
  rms(total) = 0.30442E-01    rms(broyden)= 0.30442E-01
  rms(prec ) = 0.32835E-01
  weight for this iteration     100.00

 eigenvalues of (default mixing * dielectric matrix)
  average eigenvalue GAMMA=   1.1258
  2.4442  1.9215  0.7681  0.7681  0.3257  0.5270

 Free energy of the ion-electron system (eV)
  ---------------------------------------------------
  alpha Z        PSCENC =        51.12021061
  Ewald energy   TEWEN  =     63063.90322920
  -Hartree energ DENC   =    -71754.41110173
  -exchange      EXHF   =         0.00000000
  -V(xc)+E(xc)   XCENC  =      -433.50483553
  PAW double counting   =     55564.02548441   -54626.80370070
  entropy T*S    EENTRO =        -0.19809953
  eigenvalues    EBANDS =     -2579.93810647
  atomic energy  EATOM  =      9800.67782177
  Solvation  Ediel_sol  =         0.00000000
  ---------------------------------------------------
  free energy    TOTEN  =      -915.12909797 eV

  energy without entropy =     -914.93099844  energy(sigma->0) =     -915.03004821


--------------------------------------------------------------------------------------------------------




--------------------------------------- Iteration      1(   8)  ---------------------------------------


    POTLOK:  cpu time      2.2757: real time      2.2768
    SETDIJ:  cpu time      1.7775: real time      1.7784
    EDDIAG:  cpu time     43.4937: real time     43.5195
     EDDAV:  cpu time    209.9778: real time    210.0920
       DOS:  cpu time      0.0022: real time      0.0022
    CHARGE:  cpu time     25.1841: real time     25.2070
    MIXING:  cpu time      0.0460: real time      0.0465
    --------------------------------------------
      LOOP:  cpu time    282.7570: real time    282.9225

 eigenvalue-minimisations  :  2120
 total energy-change (2. order) :-0.2446997E-03  (-0.1140240E-02)
 number of electron     384.9999999 magnetization 
 augmentation part      -21.0200521 magnetization 

 Broyden mixing:
  rms(total) = 0.14977E-01    rms(broyden)= 0.14977E-01
  rms(prec ) = 0.15888E-01
  weight for this iteration     100.00

 eigenvalues of (default mixing * dielectric matrix)
  average eigenvalue GAMMA=   1.2064
  2.5689  2.5689  1.0095  0.7285  0.7285  0.3263  0.5145

 Free energy of the ion-electron system (eV)
  ---------------------------------------------------
  alpha Z        PSCENC =        51.12021061
  Ewald energy   TEWEN  =     63063.90322920
  -Hartree energ DENC   =    -71753.85561447
  -exchange      EXHF   =         0.00000000
  -V(xc)+E(xc)   XCENC  =      -433.29641715
  PAW double counting   =     55556.47830292   -54619.23715958
  entropy T*S    EENTRO =        -0.19753204
  eigenvalues    EBANDS =     -2580.72218393
  atomic energy  EATOM  =      9800.67782177
  Solvation  Ediel_sol  =         0.00000000
  ---------------------------------------------------
  free energy    TOTEN  =      -915.12934267 eV

  energy without entropy =     -914.93181064  energy(sigma->0) =     -915.03057666


--------------------------------------------------------------------------------------------------------




--------------------------------------- Iteration      1(   9)  ---------------------------------------


    POTLOK:  cpu time      2.2534: real time      2.2798
    SETDIJ:  cpu time      1.8168: real time      1.8178
    EDDIAG:  cpu time     43.4632: real time     43.4901
     EDDAV:  cpu time    221.9649: real time    222.0975
       DOS:  cpu time      0.0021: real time      0.0021
    CHARGE:  cpu time     25.1845: real time     25.2082
    MIXING:  cpu time      0.0480: real time      0.0480
    --------------------------------------------
      LOOP:  cpu time    294.7330: real time    294.9437

 eigenvalue-minimisations  :  2328
 total energy-change (2. order) :-0.1090184E-02  (-0.3347697E-03)
 number of electron     384.9999999 magnetization 
 augmentation part      -21.0188901 magnetization 

 Broyden mixing:
  rms(total) = 0.51840E-02    rms(broyden)= 0.51840E-02
  rms(prec ) = 0.60240E-02
  weight for this iteration     100.00

 eigenvalues of (default mixing * dielectric matrix)
  average eigenvalue GAMMA=   1.1861
  2.5909  2.5909  1.2273  0.7768  0.7768  0.6821  0.3263  0.5178

 Free energy of the ion-electron system (eV)
  ---------------------------------------------------
  alpha Z        PSCENC =        51.12021061
  Ewald energy   TEWEN  =     63063.90322920
  -Hartree energ DENC   =    -71754.07136421
  -exchange      EXHF   =         0.00000000
  -V(xc)+E(xc)   XCENC  =      -433.12590910
  PAW double counting   =     55592.50835292   -54655.25136492
  entropy T*S    EENTRO =        -0.19778980
  eigenvalues    EBANDS =     -2580.69361933
  atomic energy  EATOM  =      9800.67782177
  Solvation  Ediel_sol  =         0.00000000
  ---------------------------------------------------
  free energy    TOTEN  =      -915.13043286 eV

  energy without entropy =     -914.93264306  energy(sigma->0) =     -915.03153796


--------------------------------------------------------------------------------------------------------




--------------------------------------- Iteration      1(  10)  ---------------------------------------


    POTLOK:  cpu time      2.2809: real time      2.2827
    SETDIJ:  cpu time      1.7779: real time      1.7791
    EDDIAG:  cpu time     43.4951: real time     43.5233
     EDDAV:  cpu time    218.7636: real time    218.8890
       DOS:  cpu time      0.0136: real time      0.0138
    CHARGE:  cpu time     25.1729: real time     25.1957
    MIXING:  cpu time      0.0637: real time      0.0643
    --------------------------------------------
      LOOP:  cpu time    291.5680: real time    291.7481

 eigenvalue-minimisations  :  2272
 total energy-change (2. order) :-0.2386610E-03  (-0.6503013E-04)
 number of electron     384.9999999 magnetization 
 augmentation part      -21.0192390 magnetization 

 Broyden mixing:
  rms(total) = 0.32277E-02    rms(broyden)= 0.32277E-02
  rms(prec ) = 0.37737E-02
  weight for this iteration     100.00

 eigenvalues of (default mixing * dielectric matrix)
  average eigenvalue GAMMA=   1.1687
  2.5898  2.5898  1.5251  0.9686  0.7305  0.7305  0.3263  0.5290  0.5290

 Free energy of the ion-electron system (eV)
  ---------------------------------------------------
  alpha Z        PSCENC =        51.12021061
  Ewald energy   TEWEN  =     63063.90322920
  -Hartree energ DENC   =    -71754.30473087
  -exchange      EXHF   =         0.00000000
  -V(xc)+E(xc)   XCENC  =      -433.15160865
  PAW double counting   =     55596.70314066   -54659.44244636
  entropy T*S    EENTRO =        -0.19778210
  eigenvalues    EBANDS =     -2580.43850577
  atomic energy  EATOM  =      9800.67782177
  Solvation  Ediel_sol  =         0.00000000
  ---------------------------------------------------
  free energy    TOTEN  =      -915.13067152 eV

  energy without entropy =     -914.93288942  energy(sigma->0) =     -915.03178047


--------------------------------------------------------------------------------------------------------




--------------------------------------- Iteration      1(  11)  ---------------------------------------


    POTLOK:  cpu time      2.2605: real time      2.2808
    SETDIJ:  cpu time      1.7970: real time      1.7987
    EDDIAG:  cpu time     43.4713: real time     43.4977
     EDDAV:  cpu time    208.3246: real time    208.4355
       DOS:  cpu time      0.0058: real time      0.0058
    CHARGE:  cpu time     25.1946: real time     25.2163
    MIXING:  cpu time      0.0501: real time      0.0501
    --------------------------------------------
      LOOP:  cpu time    281.1037: real time    281.2848

 eigenvalue-minimisations  :  2096
 total energy-change (2. order) :-0.1379261E-03  (-0.3625181E-04)
 number of electron     384.9999999 magnetization 
 augmentation part      -21.0192382 magnetization 

 Broyden mixing:
  rms(total) = 0.16295E-02    rms(broyden)= 0.16295E-02
  rms(prec ) = 0.19016E-02
  weight for this iteration     100.00

 eigenvalues of (default mixing * dielectric matrix)
  average eigenvalue GAMMA=   1.2081
  2.7408  2.7408  1.8152  1.0158  0.8904  0.7472  0.7472  0.3263  0.5286  0.5286

 Free energy of the ion-electron system (eV)
  ---------------------------------------------------
  alpha Z        PSCENC =        51.12021061
  Ewald energy   TEWEN  =     63063.90322920
  -Hartree energ DENC   =    -71754.40843824
  -exchange      EXHF   =         0.00000000
  -V(xc)+E(xc)   XCENC  =      -433.16812283
  PAW double counting   =     55586.71911516   -54649.45699398
  entropy T*S    EENTRO =        -0.19783058
  eigenvalues    EBANDS =     -2580.31980054
  atomic energy  EATOM  =      9800.67782177
  Solvation  Ediel_sol  =         0.00000000
  ---------------------------------------------------
  free energy    TOTEN  =      -915.13080945 eV

  energy without entropy =     -914.93297887  energy(sigma->0) =     -915.03189416


--------------------------------------------------------------------------------------------------------




--------------------------------------- Iteration      1(  12)  ---------------------------------------


    POTLOK:  cpu time      2.2810: real time      2.2828
    SETDIJ:  cpu time      1.7813: real time      1.7822
    EDDIAG:  cpu time     43.4452: real time     43.4696
     EDDAV:  cpu time    209.5007: real time    209.6163
       DOS:  cpu time      0.0041: real time      0.0041
    CHARGE:  cpu time     25.2031: real time     25.2261
    MIXING:  cpu time      0.0492: real time      0.0492
    --------------------------------------------
      LOOP:  cpu time    282.2645: real time    282.4304

 eigenvalue-minimisations  :  2112
 total energy-change (2. order) :-0.2118823E-03  (-0.2219317E-04)
 number of electron     384.9999999 magnetization 
 augmentation part      -21.0192505 magnetization 

 Broyden mixing:
  rms(total) = 0.92019E-03    rms(broyden)= 0.92019E-03
  rms(prec ) = 0.12170E-02
  weight for this iteration     100.00

 eigenvalues of (default mixing * dielectric matrix)
  average eigenvalue GAMMA=   1.2015
  2.8404  2.8404  2.0156  1.1720  0.3263  0.7572  0.7572  0.8044  0.6405  0.5310
  0.5310

 Free energy of the ion-electron system (eV)
  ---------------------------------------------------
  alpha Z        PSCENC =        51.12021061
  Ewald energy   TEWEN  =     63063.90322920
  -Hartree energ DENC   =    -71754.41242476
  -exchange      EXHF   =         0.00000000
  -V(xc)+E(xc)   XCENC  =      -433.16942599
  PAW double counting   =     55580.72636025   -54643.46273497
  entropy T*S    EENTRO =        -0.19777899
  eigenvalues    EBANDS =     -2580.31627845
  atomic energy  EATOM  =      9800.67782177
  Solvation  Ediel_sol  =         0.00000000
  ---------------------------------------------------
  free energy    TOTEN  =      -915.13102133 eV

  energy without entropy =     -914.93324234  energy(sigma->0) =     -915.03213183


--------------------------------------------------------------------------------------------------------




--------------------------------------- Iteration      1(  13)  ---------------------------------------


    POTLOK:  cpu time      2.2524: real time      2.2789
    SETDIJ:  cpu time      1.7774: real time      1.7787
    EDDIAG:  cpu time     43.4576: real time     43.4832
     EDDAV:  cpu time    205.9614: real time    206.0687
       DOS:  cpu time      0.0055: real time      0.0055
    CHARGE:  cpu time     25.1928: real time     25.2149
    MIXING:  cpu time      0.0504: real time      0.0504
    --------------------------------------------
      LOOP:  cpu time    278.6976: real time    278.8803

 eigenvalue-minimisations  :  2048
 total energy-change (2. order) :-0.1889729E-03  (-0.1439215E-04)
 number of electron     384.9999999 magnetization 
 augmentation part      -21.0192856 magnetization 

 Broyden mixing:
  rms(total) = 0.50478E-03    rms(broyden)= 0.50478E-03
  rms(prec ) = 0.76299E-03
  weight for this iteration     100.00

 eigenvalues of (default mixing * dielectric matrix)
  average eigenvalue GAMMA=   1.2060
  2.8827  2.8827  2.0813  1.3907  0.9038  0.9038  0.7448  0.7448  0.3263  0.5729
  0.5190  0.5190

 Free energy of the ion-electron system (eV)
  ---------------------------------------------------
  alpha Z        PSCENC =        51.12021061
  Ewald energy   TEWEN  =     63063.90322920
  -Hartree energ DENC   =    -71754.43238612
  -exchange      EXHF   =         0.00000000
  -V(xc)+E(xc)   XCENC  =      -433.17567121
  PAW double counting   =     55577.84776603   -54640.58370527
  entropy T*S    EENTRO =        -0.19779522
  eigenvalues    EBANDS =     -2580.29068008
  atomic energy  EATOM  =      9800.67782177
  Solvation  Ediel_sol  =         0.00000000
  ---------------------------------------------------
  free energy    TOTEN  =      -915.13121030 eV

  energy without entropy =     -914.93341508  energy(sigma->0) =     -915.03231269


--------------------------------------------------------------------------------------------------------




--------------------------------------- Iteration      1(  14)  ---------------------------------------


    POTLOK:  cpu time      2.2712: real time      2.2727
    SETDIJ:  cpu time      1.7892: real time      1.7904
    EDDIAG:  cpu time     43.4481: real time     43.4731
     EDDAV:  cpu time    205.7674: real time    205.8746
       DOS:  cpu time      0.0123: real time      0.0126
    CHARGE:  cpu time     25.1776: real time     25.1988
    MIXING:  cpu time      0.0663: real time      0.0670
    --------------------------------------------
      LOOP:  cpu time    278.5321: real time    278.6892

 eigenvalue-minimisations  :  2048
 total energy-change (2. order) :-0.1838286E-03  (-0.1639404E-04)
 number of electron     384.9999999 magnetization 
 augmentation part      -21.0193285 magnetization 

 Broyden mixing:
  rms(total) = 0.34071E-03    rms(broyden)= 0.34071E-03
  rms(prec ) = 0.56105E-03
  weight for this iteration     100.00

 eigenvalues of (default mixing * dielectric matrix)
  average eigenvalue GAMMA=   1.2223
  2.9385  2.9385  2.1567  1.6878  0.9846  0.9846  0.8254  0.7307  0.7307  0.3263
  0.5512  0.5175  0.5175

 Free energy of the ion-electron system (eV)
  ---------------------------------------------------
  alpha Z        PSCENC =        51.12021061
  Ewald energy   TEWEN  =     63063.90322920
  -Hartree energ DENC   =    -71754.45272879
  -exchange      EXHF   =         0.00000000
  -V(xc)+E(xc)   XCENC  =      -433.18027372
  PAW double counting   =     55577.59236787   -54640.32837043
  entropy T*S    EENTRO =        -0.19780635
  eigenvalues    EBANDS =     -2580.26584429
  atomic energy  EATOM  =      9800.67782177
  Solvation  Ediel_sol  =         0.00000000
  ---------------------------------------------------
  free energy    TOTEN  =      -915.13139413 eV

  energy without entropy =     -914.93358778  energy(sigma->0) =     -915.03249095


--------------------------------------------------------------------------------------------------------




--------------------------------------- Iteration      1(  15)  ---------------------------------------


    POTLOK:  cpu time      2.2800: real time      2.2882
    SETDIJ:  cpu time      1.7920: real time      1.7931
    EDDIAG:  cpu time     43.4624: real time     43.4880
     EDDAV:  cpu time    205.8675: real time    205.9804
       DOS:  cpu time      0.0029: real time      0.0029
    CHARGE:  cpu time     25.2024: real time     25.2261
    MIXING:  cpu time      0.0519: real time      0.0519
    --------------------------------------------
      LOOP:  cpu time    278.6590: real time    278.8304

 eigenvalue-minimisations  :  2048
 total energy-change (2. order) :-0.1820433E-03  (-0.1506025E-04)
 number of electron     384.9999999 magnetization 
 augmentation part      -21.0193572 magnetization 

[...]
   -.596E+01 -.287E+02 0.409E+03   0.583E+01 0.284E+02 -.411E+03   0.292E+00 0.492E-01 0.134E+01   -.555E-05 0.759E-05 -.749E-05
   -.156E+02 0.209E+02 -.232E+03   0.153E+02 -.187E+02 0.232E+03   0.312E+00 -.177E+01 -.417E+00   -.727E-05 -.512E-05 0.145E-04
   0.319E+02 -.847E+01 0.106E+03   -.307E+02 0.712E+01 -.107E+03   -.116E+01 0.123E+01 0.924E+00   0.827E-05 0.118E-04 -.335E-05
   0.155E+02 0.130E+01 -.380E+03   -.127E+02 -.125E+01 0.381E+03   -.228E+01 0.656E-01 -.238E-02   0.303E-04 0.923E-05 0.638E-05
   0.124E+02 -.904E+01 0.216E+03   -.128E+02 0.878E+01 -.212E+03   0.536E+00 0.393E+00 -.352E+01   0.453E-05 -.891E-05 -.117E-04
   0.303E+02 -.127E+02 0.309E+03   -.291E+02 0.132E+02 -.305E+03   -.107E+01 -.389E+00 -.345E+01   0.749E-05 -.507E-05 -.121E-04
   0.217E+02 -.131E+02 -.303E+03   -.222E+02 0.118E+02 0.304E+03   0.396E+00 0.896E+00 -.392E+00   0.113E-04 0.336E-05 0.713E-05
   0.178E+02 -.108E+02 -.254E+03   -.170E+02 0.881E+01 0.250E+03   -.569E+00 0.202E+01 0.364E+01   0.239E-05 -.656E-05 -.808E-05
   -.529E+01 0.182E+02 -.584E+01   0.622E+01 -.177E+02 0.541E+01   -.857E+00 -.698E+00 0.419E+00   -.112E-04 -.422E-05 -.133E-04
   -.665E+00 0.780E+01 -.218E+03   0.354E+00 -.999E+01 0.217E+03   0.102E+00 0.210E+01 0.962E+00   0.528E-05 0.926E-05 0.285E-07
   0.928E+01 0.308E+02 -.102E+03   -.692E+01 -.287E+02 0.103E+03   -.229E+01 -.204E+01 -.575E+00   0.299E-05 -.654E-05 -.626E-05
   0.105E+02 0.310E+01 0.303E+03   -.102E+02 -.297E+01 -.305E+03   0.226E+00 0.376E+00 0.139E+01   -.171E-06 0.911E-05 0.159E-06
   0.166E+02 -.711E+01 -.219E+03   -.164E+02 0.732E+01 0.218E+03   -.183E+00 0.830E-01 0.501E+00   0.224E-04 0.794E-05 0.363E-04
   0.383E+02 0.135E+02 -.290E+03   -.361E+02 -.114E+02 0.289E+03   -.225E+01 -.179E+01 0.129E+01   0.125E-04 -.132E-04 0.213E-06
   -.279E+02 0.978E+01 0.291E+03   0.281E+02 -.808E+01 -.289E+03   -.737E-01 -.153E+01 -.232E+01   -.632E-05 -.128E-04 -.143E-04
   -.442E+02 -.339E+02 -.228E+03   0.421E+02 0.329E+02 0.225E+03   0.218E+01 0.102E+01 0.254E+01   -.211E-04 -.121E-04 0.397E-04
   0.175E+02 -.139E+02 0.383E+03   -.148E+02 0.169E+02 -.384E+03   -.242E+01 -.262E+01 0.169E+00   -.889E-05 -.477E-05 0.137E-05
   0.110E+02 -.194E+01 -.302E+03   -.114E+02 0.117E+01 0.300E+03   0.993E-01 0.597E+00 0.265E+01   0.159E-04 -.270E-05 0.466E-06
   0.232E+02 0.578E+01 -.160E+03   -.232E+02 -.563E+01 0.162E+03   0.281E-01 -.234E-01 -.151E+01   0.775E-05 0.138E-04 0.130E-04
   -.997E+01 0.296E+01 0.374E+02   0.961E+01 -.158E+01 -.378E+02   0.214E+00 -.119E+01 0.405E+00   -.103E-04 0.755E-05 0.338E-05
   -.253E+02 0.213E+02 0.241E+03   0.261E+02 -.216E+02 -.240E+03   -.534E+00 0.547E+00 -.775E+00   0.131E-04 -.162E-04 0.822E-05
   -.137E+02 -.119E+02 0.175E+03   0.127E+02 0.106E+02 -.175E+03   0.986E+00 0.124E+01 0.176E-01   -.299E-05 0.800E-05 0.173E-05
   -.349E+01 -.298E+02 -.314E+02   0.300E+01 0.281E+02 0.322E+02   0.740E+00 0.161E+01 -.896E+00   -.738E-05 0.198E-04 0.559E-05
   0.195E+02 -.173E+01 -.331E+03   -.178E+02 0.218E+01 0.329E+03   -.175E+01 -.584E+00 0.114E+01   -.373E-05 0.172E-04 0.158E-04
   -.178E+02 0.286E+02 0.104E+03   0.154E+02 -.255E+02 -.105E+03   0.237E+01 -.289E+01 0.185E+00   0.687E-05 -.912E-05 -.856E-05
   0.116E+02 -.108E+01 -.299E+03   -.119E+02 -.167E+01 0.298E+03   0.331E+00 0.244E+01 0.930E+00   -.848E-05 -.832E-05 -.282E-05
   -.111E+02 0.116E+02 0.201E+03   0.109E+02 -.114E+02 -.201E+03   0.397E+00 -.209E+00 0.820E-01   0.470E-05 -.254E-05 0.443E-05
   -.174E+02 -.153E+02 0.335E+03   0.171E+02 0.160E+02 -.335E+03   0.267E+00 -.609E+00 0.934E-01   0.238E-06 -.199E-05 -.422E-05
   0.626E+01 0.281E+02 -.163E+03   -.427E+01 -.267E+02 0.161E+03   -.209E+01 -.156E+01 0.179E+01   -.754E-06 -.951E-06 0.591E-06
   0.377E+02 0.189E+02 0.235E+03   -.358E+02 -.181E+02 -.233E+03   -.178E+01 -.550E+00 -.163E+01   -.120E-04 -.207E-05 0.555E-05
   -.680E+01 0.376E+01 0.230E+03   0.334E+01 -.182E+01 -.229E+03   0.292E+01 -.175E+01 -.119E+01   0.854E-05 -.126E-05 -.120E-04
   -.391E+02 -.273E+02 -.371E+03   0.401E+02 0.278E+02 0.371E+03   -.821E+00 -.348E+00 0.136E+00   0.154E-04 -.106E-04 -.117E-04
 -----------------------------------------------------------------------------------------------
   -.196E+02 -.770E+01 -.199E+02   -.995E-13 -.206E-12 0.568E-12   0.196E+02 0.771E+01 0.199E+02   0.103E-03 0.106E-04 0.198E-03


 POSITION                                       TOTAL-FORCE (eV/Angst)
 -----------------------------------------------------------------------------------
      5.48923      1.50107     14.45142         0.015911      0.110082     -0.150162
     10.11420      5.05640     18.85355         0.079471      0.093294      0.201650
      3.54029      7.48646     13.77246        -0.172093      0.085439     -0.155644
      2.84876      7.97996     10.41639        -0.233182     -0.095950      0.061298
      3.51215      7.74735     12.97416         0.052859     -0.147076      0.573242
      9.69768      2.39213     11.09488         0.065358      0.117807     -0.231592
      0.34970     14.43041     13.54608         0.396804      0.103920      0.101448
     13.71436      6.01698      9.51294        -0.161234     -0.041296     -0.099166
     12.96562      2.26544     16.18453        -0.041559      0.134327     -0.062033
      2.88806      7.28997     16.72141        -0.088385     -0.256537     -0.219436
     11.36123      8.56561     11.08757         0.191815      0.189561      0.091409
      0.90644      5.00629     18.87991         0.338135     -0.021810     -0.505891
      0.44999      7.96290     13.99037         0.131050     -0.004705     -0.229582
      3.69830     14.05229     13.47307         0.182169      0.096425      0.134509
      6.72865      7.99023     13.16110         0.034327      0.097944      0.313556
     10.18612      2.18461     17.47924        -0.259496      0.055805      0.291595
     13.61014      8.89225     10.87732        -0.160283     -0.522459      0.271049
     12.82317     12.89900     18.16264         0.220343      0.124226     -0.305418
      8.23080     12.59417     15.47566         0.106747      0.057697     -0.155194
     14.22939      5.16802     15.75022         0.177915      0.246165      0.069154
      4.41673      2.48976     18.97272        -0.325533      0.009948     -0.731556
     14.06974      2.52562     13.13528         0.248692      0.288399     -0.240074
      5.90144     10.98149     18.29108        -0.282244     -0.459364      0.028725
      2.07729      5.23208     15.48708         0.176123      0.035320     -0.046257
      2.38050     12.87356     18.82283        -0.140206     -0.128137      0.366523
      0.45755      0.34638     16.66757        -0.034360     -0.436854      0.036944
      2.62985     10.51395     12.43231        -0.094473     -0.346437      0.057575
      2.14681      3.12704     19.12175        -0.131761      0.216440      0.164985
     14.07919      8.18243     18.08288        -0.082659      0.066008      0.062711
     13.94551     11.47031     13.86562        -0.001959     -0.156317      0.067501
      8.18447      0.43120     14.98407         0.164858     -0.108299      0.517776
      6.23878      5.35742     16.01606         0.093820     -0.259958      0.057667
      6.96677      2.39385     11.63603        -0.220455      0.212193      0.110185
     11.23534     13.54582     12.72849         0.278443      0.227860      0.014651
      3.23652      3.13776     15.77294        -0.058868     -0.004981     -0.011659
     11.49185      7.67652     16.34345         0.069190     -0.275182     -0.049176
      3.65700     12.77318     15.42135         0.007032      0.136805     -0.222810
      5.23359      7.24145     16.97247         0.013364      0.019052     -0.163367
      6.16432      5.73557     13.66094        -0.256481      0.234593     -0.128430
      4.35315      5.07246     12.36706         0.136944     -0.070297      0.173070
      0.32263      6.16785     12.50783         0.333365      0.043636     -0.000603
      6.19424      1.36480     15.76123        -0.089634     -0.231849     -0.125130
      3.74604      0.26664     18.29002         0.196550     -0.325231      0.126952
      3.72739     10.53409     14.55111         0.086996      0.092267      0.250809
      8.60272      5.17472     16.01683        -0.072590      0.188761      0.076027
      2.99974      2.25237     10.52143        -0.329892     -0.264989     -0.263224
      5.82251     13.47668     12.70032        -0.092958      0.007486      0.024657
      9.35874      7.33192     15.61796         0.091972     -0.125075      0.017609
     12.98230     13.88991     11.19433        -0.094142     -0.513672     -0.649513
     13.62802      1.25874     15.03441        -0.090481     -0.083085     -0.080454
     10.24161      6.67958     11.87660         0.070377     -0.250744     -0.304978
      5.98278      8.47077     11.00190         0.010802      0.037490      0.001429
      7.14075     12.86260     17.51331        -0.090965      0.025768      0.040272
      5.25888     14.00272     16.72598        -0.114302      0.197923     -0.050346
      2.19974      4.98383     13.14394        -0.114076     -0.195068      0.195501
      9.22030      4.20551     18.02065        -0.132358     -0.069324     -0.107934
     12.24657      6.64817     18.34384        -0.094748     -0.073568     -0.208508
      6.38713     10.75047     10.92743        -0.315615     -0.027817      0.338554
      6.99268     11.68131     13.73905        -0.255672      0.128504     -0.088019
      8.14708      6.07581     10.95263        -0.008430     -0.036428     -0.021076
      0.37307     10.96536     16.02717         0.054021      0.157824     -0.077432
     11.04797      3.04619     11.13846         0.369762     -0.143066      0.367798
      0.03725      6.88995     10.34642        -0.160762      0.103362      0.137622
      3.34748      1.84205     13.76904        -0.043916     -0.032219     -0.164112
      7.64926      0.41669     12.65901        -0.230752     -0.051521     -0.613954
     10.14612      9.96358     12.48115         0.025990     -0.033175     -0.089072
      9.07683      8.04781     13.39493        -0.130472      0.298053      0.201491
     13.73355      7.44958     15.85175         0.106580      0.157331      0.146157
     12.69634      1.56985     11.57405        -0.583042     -0.094970      0.272768
      3.63156     11.14051     17.81941         0.212665      0.390089      0.308826
     11.56918      0.24210     14.74782        -0.141554     -0.041824      0.073422
      4.11926      4.32790     10.18998         0.167368     -0.450889      0.197722
      6.50970      9.24428     16.87704         0.032883      0.338566      0.160430
     13.37530      4.69474     13.59465        -0.001084     -0.073687      0.002799
     13.76781      0.44367     18.64520         0.255442      0.071249      0.552879
      0.35654      9.78941     12.63426         0.076318      0.129503     -0.107180
      2.55524     12.80774     11.84231         0.141112      0.020746      0.236319
     12.52491      2.33334     17.81805        -0.015575     -0.308808     -0.135329
     10.97412      9.82224     17.05025         0.184497      0.118893     -0.197235
      5.96598      9.73954     14.59121         0.037005     -0.169535      0.012751
     11.09589     13.49874     16.74079        -0.220817     -0.006827      0.071745
     10.36271     11.59430     15.67165        -0.040124      0.022221     -0.102266
      3.69322      8.68172     11.41705         0.450415      0.491647     -0.582771
      2.20358      1.72791     17.29637         0.093239      0.312312      0.209421
     13.39382      4.56465     17.86437        -0.148483      0.243343      0.382357
      8.42329     11.47212     11.87894         0.159011      0.078663     -0.137922
      5.33211      3.28727     16.80802         0.095820      0.078513      0.246167
      4.84947     12.54426     10.77880         0.169355      0.087848     -0.252748
     13.25254     10.51890     17.69665        -0.298734     -0.104802      0.180079
      1.60268     12.87743     16.60132         0.046463      0.128013     -0.058203
      9.45504      3.94992     14.17067        -0.145806      0.121017      0.032122
      4.74370      2.72205     12.08531         0.197347      0.363621     -0.074439
     11.17458      4.72412     12.79318        -0.028735     -0.026820      0.019106
      9.96006      1.88086     15.15948         0.254619     -0.030784     -0.118006
      9.13365     14.52360     17.63464        -0.036748     -0.206207     -0.592900
     11.54516     11.43237     13.68505         0.069544      0.047974     -0.062741
      8.78889      8.78750     17.32880         0.090920     -0.179816     -0.205077
      7.75457      4.36569     12.58354         0.176252     -0.018584     -0.071669
      9.22429     13.64990     11.56627        -0.014878      0.011316      0.048271
      2.44148      9.64035     16.27679        -0.171865     -0.246652      0.042347
      1.71366      2.78815     12.45899         0.031042      0.247736      0.123755
      0.26851     13.28790     12.55104        -0.386789      0.136515      0.018739
      1.58808      7.21320     18.71083        -0.027874     -0.084806      0.366163
 -----------------------------------------------------------------------------------
    total drift:                               -0.007445      0.007407     -0.000826


--------------------------------------------------------------------------------------------------------



  FREE ENERGIE OF THE ION-ELECTRON SYSTEM (eV)
  ---------------------------------------------------
  free  energy   TOTEN  =      -915.13205958 eV

  energy  without entropy=     -914.93425122  energy(sigma->0) =     -915.03315540



--------------------------------------------------------------------------------------------------------


    POTLOK:  cpu time      4.0485: real time      4.0509


--------------------------------------------------------------------------------------------------------


     LOOP+:  cpu time   6845.0511: real time   6849.5267
    4ORBIT:  cpu time      0.0000: real time      0.0000



 total charge

# of ion       s       p       d       tot
------------------------------------------
    1        0.572   0.019   0.000   0.591
    2        0.555   0.017   0.000   0.572
    3        0.520   0.024   0.000   0.544
    4        0.563   0.017   0.000   0.579
    5        0.580   0.028   0.000   0.608
    6        0.549   0.016   0.000   0.565
    7        0.562   0.016   0.000   0.577
    8        0.562   0.016   0.000   0.578
    9        0.569   0.017   0.000   0.585
   10        0.755   0.855   0.000   1.611
   11        0.778   0.884   0.000   1.662
   12        0.777   0.887   0.000   1.663
   13        0.798   0.884   0.000   1.682
   14        0.760   0.943   0.000   1.703
   15        0.752   0.926   0.000   1.678
   16        0.755   0.926   0.000   1.681
   17        0.772   0.894   0.000   1.666
   18        0.801   0.821   0.000   1.622
   19        0.759   0.920   0.000   1.679
   20        0.763   0.922   0.000   1.685
   21        0.814   0.780   0.000   1.594
   22        0.750   0.987   0.000   1.737
   23        0.789   0.874   0.000   1.663
   24        0.755   0.877   0.000   1.632
   25        0.820   0.823   0.000   1.642
   26        0.766   0.949   0.000   1.715
   27        0.756   0.924   0.000   1.680
   28        0.780   0.893   0.000   1.673
   29        0.764   0.879   0.000   1.643
   30        0.750   0.928   0.000   1.678
   31        0.759   0.934   0.000   1.693
   32        0.751   0.918   0.000   1.669
   33        0.792   0.882   0.000   1.673
   34        0.755   0.922   0.000   1.677
   35        0.764   0.916   0.000   1.680
   36        0.768   0.947   0.000   1.715
   37        0.753   0.920   0.000   1.672
   38        0.783   0.859   0.000   1.642
   39        0.763   0.922   0.000   1.684
   40        0.768   0.945   0.000   1.713
   41        0.754   0.959   0.000   1.713
   42        0.753   0.980   0.000   1.733
   43        0.763   0.915   0.000   1.677
   44        0.756   0.922   0.000   1.678
   45        0.753   0.951   0.000   1.704
   46        0.847   0.784   0.000   1.632
   47        0.757   0.943   0.000   1.700
   48        0.753   0.973   0.000   1.726
   49        0.800   0.884   0.000   1.684
   50        0.779   0.898   0.000   1.678
   51        0.759   0.930   0.000   1.689
   52        0.789   0.872   0.000   1.661
   53        0.761   0.882   0.000   1.644
   54        0.755   0.945   0.000   1.700
   55        0.764   0.957   0.000   1.720
   56        0.776   0.922   0.000   1.698
   57        0.811   0.810   0.000   1.620
   58        0.799   0.839   0.000   1.637
   59        0.762   0.933   0.000   1.695
   60        0.874   0.709   0.000   1.583
   61        0.757   0.888   0.000   1.644
   62        0.767   0.924   0.000   1.691
   63        0.773   0.928   0.000   1.701
   64        0.763   0.911   0.000   1.674
   65        0.769   0.919   0.000   1.688
   66        0.751   0.931   0.000   1.682
   67        0.759   0.927   0.000   1.685
   68        0.765   0.940   0.000   1.705
   69        0.781   0.910   0.000   1.692
   70        0.794   0.830   0.000   1.624
   71        0.763   0.929   0.000   1.692
   72        0.868   0.731   0.000   1.599
   73        0.752   0.912   0.000   1.664
   74        0.752   0.946   0.000   1.698
   75        0.812   0.835   0.000   1.647
   76        0.753   0.960   0.000   1.713
   77        0.762   0.872   0.000   1.634
   78        0.787   0.841   0.000   1.628
   79        0.761   0.893   0.000   1.655
   80        0.758   0.908   0.000   1.666
   81        0.757   0.945   0.000   1.702
   82        0.755   0.966   0.000   1.721
   83        0.775   0.898   0.000   1.673
   84        0.764   0.948   0.000   1.712
   85        0.754   0.910   0.000   1.664
   86        0.758   0.928   0.000   1.685
   87        0.754   0.903   0.000   1.658
   88        0.821   0.781   0.000   1.602
   89        0.762   0.833   0.000   1.595
   90        0.754   0.946   0.000   1.701
   91        0.753   0.936   0.000   1.689
   92        0.760   0.944   0.000   1.704
   93        0.750   0.930   0.000   1.680
   94        0.761   0.950   0.000   1.711
   95        0.805   0.773   0.000   1.578
   96        0.753   0.939   0.000   1.693
   97        0.806   0.827   0.000   1.633
   98        0.758   0.935   0.000   1.692
   99        0.800   0.874   0.000   1.673
  100        0.761   0.869   0.000   1.630
  101        0.763   0.954   0.000   1.717
  102        0.755   0.911   0.000   1.666
  103        0.797   0.856   0.000   1.652
--------------------------------------------------
tot         77.585  84.808   0.000 162.393


 total amount of memory used by VASP MPI-rank0   382338. kBytes
=======================================================================

   base                                    :      30000. kBytes
   nonl-proj                               :      78053. kBytes
   fftplans                                :     114276. kBytes
   grid                                    :      88184. kBytes
   one-center                              :         21. kBytes
   wavefun                                 :      71804. kBytes

  
  
 General timing and accounting informations for this job:
 ========================================================
  
                  Total CPU time used (sec):     7001.004
                            User time (sec):     6222.599
                          System time (sec):      778.405
                         Elapsed time (sec):     7007.492
  
                   Maximum memory used (kb):      648712.
                   Average memory used (kb):          N/A
  
                          Minor page faults:      7820649
                          Major page faults:         1163
                 Voluntary context switches:         2624
