LAMMPS data file via write_data, version 2 Apr 2025, timestep = 665000, units = metal

1000 atoms
1 atom types

-0.23919892529856135 27.12383084342565 xlo xhi
-0.23919892529856135 27.12383084342565 ylo yhi
-0.23919892529856135 27.12383084342565 zlo zhi

Atom Type Labels

1 Si

Masses

1 28.0855

Atoms # atomic

306 1 0.44593148068113764 3.852807614361696 0.6981887120665121 0 0 1
152 1 1.149732288999064 1.4452663120459306 3.3966044021838337 0 0 0
798 1 1.178386780740494 3.731930406765945 2.7389284577018134 0 0 1
450 1 0.9642094460028618 1.7817860086302058 5.577882051578165 0 0 1
286 1 10.558099387520729 10.092586462626679 5.3151762046027216 0 0 0
895 1 3.847035657924188 1.9823672106056782 -0.17873807989341386 0 1 1
186 1 4.7073214036257705 0.8048871966063995 3.3837077777252 0 0 0
594 1 5.27965275158332 1.153144929596167 5.639202258707665 0 0 0
207 1 4.994650021777611 2.6862689995182527 1.9297508907543803 0 0 1
319 1 7.387057871622636 2.922601583882903 1.9504072253214004 0 0 0
5 1 7.876702948220251 3.3856217409899654 4.160306606051617 0 0 0
567 1 7.476507816067108 1.3820047667045796 5.2948573142533055 0 0 0
122 1 8.954649134174474 1.3158588269505531 1.137491107140605 0 1 0
9 1 7.524894053129444 -0.1791089427628595 0.13262824136522305 1 0 0
250 1 11.705718205491861 0.39994907604787167 3.685753758623459 0 0 0
416 1 11.514928661762369 2.6192235195166846 3.612356716066547 0 1 0
281 1 10.01146673457275 3.956957383046783 4.719820098050043 0 1 0
912 1 11.426004987233334 3.9502688326880078 1.5875355029044202 0 0 0
80 1 10.409054290119634 2.5799028812949425 -0.010618979195257672 0 0 0
160 1 13.376261562679959 -0.08272174950799835 0.4426327867878582 0 1 1
30 1 -0.17384124179962868 10.529363946780059 5.674826772604572 0 0 0
313 1 0.3167556493452235 4.776625415408978 4.775036939039859 1 0 0
471 1 3.510463323102021 4.4319744842817705 2.672589167210785 0 1 1
466 1 2.832374456629832 8.256280954697285 1.5291756661798195 0 1 1
275 1 0.4385731891525172 8.06280539907244 0.845386474995458 0 0 0
129 1 4.076953986193445 6.282636842386449 1.1826274098096852 0 0 1
52 1 -0.06946814820400316 7.189887408996547 5.471280311353129 0 1 0
336 1 4.288647900177012 7.67318648369834 5.021780488311354 0 0 1
560 1 4.323792176946422 5.2551133574144515 4.7476980505392135 0 0 1
632 1 8.078982202022354 4.902004018236477 1.331358551914433 0 0 1
638 1 6.698262412371205 5.3188277971061755 4.394748918725875 1 0 0
852 1 7.879492722266727 6.904417906180318 5.5246995474075975 0 0 0
483 1 6.330346854382303 6.144385126129475 2.117154903847935 0 0 1
271 1 7.053011927688999 8.37661648206657 2.333623733475141 0 0 0
814 1 6.377095181824136 8.426617790170909 4.516059818743781 1 0 0
309 1 13.193425816536765 5.860510830816193 4.6520628504365025 0 0 1
882 1 12.826177370053163 5.192606174857303 0.4694692834456533 0 0 0
728 1 11.013855162235926 5.9861028892994765 4.41709112223426 0 1 1
712 1 9.962832751872275 5.633922964323885 2.1673102203300116 0 0 1
472 1 9.881660309209208 7.950376782789229 4.600299621386288 0 0 0
259 1 9.421542925527788 7.93769727705029 2.339107691898335 0 1 0
142 1 13.024742488144858 7.523990535022189 1.4200861398047786 0 1 0
292 1 11.075005080577032 8.706413258406819 1.055871372326135 0 0 0
861 1 2.9621509222948483 9.072167160605453 3.757542747969222 1 0 1
578 1 0.8023525240467959 8.989854426231377 4.316568810377731 0 1 0
884 1 0.525289943349916 12.648355083500903 1.1609379019737018 0 -1 1
311 1 1.887470669507842 12.519796054814407 3.193170187927785 0 0 1
65 1 3.8651783924868024 11.27581063648054 3.4685137273631352 0 0 0
707 1 0.3333043319316874 12.846789161679403 5.082959492594859 0 0 1
167 1 3.338817563860865 10.13803676113879 0.08292000377968523 1 1 1
730 1 10.904854761266225 11.115976153712067 1.45381649619363 0 0 1
752 1 8.709411088698245 11.285818344811071 0.649286540581174 0 0 0
855 1 4.474058280447498 11.396543180073065 5.886812132650607 0 0 0
693 1 6.660938562370602 10.152435328826526 0.8616526591702758 0 0 1
782 1 4.7726294194010235 11.4904796346526 1.255985494553798 0 0 0
377 1 6.424502738251223 10.204095416328247 5.991458497550898 0 0 1
486 1 8.46546916443711 13.120649961825563 3.9298873514034334 0 0 0
438 1 8.436105727718237 11.214056839803014 5.407764028633754 0 0 0
290 1 7.792822178859611 13.279041637021823 1.526152045273625 1 0 1
639 1 11.649773546878508 11.474018552901477 3.6484490564993 0 1 1
957 1 12.202544894001743 12.437606831525173 -0.08329294340494395 0 0 1
703 1 -0.05934409718936054 5.9036842571212205 -0.18359630798946824 1 0 1
407 1 1.087168630311815 1.7337675579650718 9.517097371690348 0 1 0
368 1 3.269621998157276 1.4180806866108318 9.15102072121038 0 1 0
163 1 0.488306119510176 2.1106498863145196 11.712746495276452 0 1 0
924 1 0.45619463970750107 3.891208802750346 8.569249571647477 1 0 0
222 1 1.3011845262114194 0.5030111527536011 12.96709766819992 1 1 0
698 1 4.214023852327746 1.898950800522662 11.219768273108228 0 0 0
383 1 3.4643454164820278 1.0674412227239152 13.142109031356009 0 1 0
253 1 4.713036296915514 2.5262802486635096 7.649993931803435 0 0 0
46 1 8.354477427204472 1.8002106804328712 7.497179054950417 0 0 0
303 1 6.790795363795927 3.023777011234664 8.82646312460011 0 1 0
169 1 6.4277398257150065 1.5520813732571241 10.649791241198823 1 1 0
260 1 7.064228582209265 2.407109419914104 12.829587053148 0 0 0
139 1 9.22567902303601 -0.14127680102517778 8.469184161989533 0 0 0
188 1 10.900698970126248 0.3581923755568063 10.057228211295167 0 0 0
908 1 11.658402804363687 3.677828317260367 7.839631159596578 0 1 0
609 1 11.444021653046441 2.6373704951505084 9.919485169382327 -1 0 0
793 1 10.402866686920898 4.2460357330903316 11.472373822856035 0 0 0
106 1 9.608843309354114 3.9587498683531397 6.978933988595776 0 0 0
228 1 9.281733165029488 3.13714429429663 13.253136074516496 0 0 0
274 1 3.9918666075332245 4.070156686404328 11.533076065851306 0 0 0
536 1 1.7772279294443094 4.245939247544257 12.113879624349241 0 1 0
189 1 3.688535061186239 4.356441922398222 6.777756814672654 0 0 0
758 1 1.4201703045600749 5.994853035603166 9.0067663159275 0 0 1
479 1 3.5628649694964483 6.213805123813624 8.26701884392416 0 0 1
610 1 0.9613526581251897 6.2797291165380384 11.339114802539072 0 0 0
866 1 1.4726356798919444 8.272088236483182 12.484396774467678 1 0 0
729 1 4.2540112034210855 8.144728525893672 7.255258130709342 0 0 0
294 1 4.753272247144914 5.703522969655881 10.157002888656557 0 0 0
966 1 6.993028937148506 5.269480245333438 9.490651558250887 0 0 0
191 1 7.936552561492199 6.827371283620197 7.790075834897463 0 0 0
630 1 4.948489762545452 7.605957725101123 11.826943343153564 0 0 0
364 1 7.12921301882116 8.647922508923289 11.7628614904821 0 0 0
917 1 8.865571964726973 7.225438156536976 12.40038142567012 0 0 0
360 1 8.963324286331192 5.762441305500799 10.66773449810264 0 0 0
298 1 12.033927471942079 5.839234124956032 8.638404885857328 0 0 0
520 1 12.172111373089866 5.443588818129142 12.566403322256289 0 0 0
47 1 9.944768581986597 6.958902096586236 8.806001785529121 1 0 0
366 1 12.99915966415381 6.474327064312671 10.546510136018279 0 0 0
709 1 12.362215468381004 8.76714013618407 10.927964789333748 0 0 0
951 1 13.350570750382367 6.7695938171750285 6.856573830443228 0 1 0
540 1 10.617919068277809 8.899251885196396 12.706343968818556 1 0 0
716 1 3.1663086313910083 10.242249459374607 7.688121992061497 0 0 1
615 1 3.3790406387166274 9.445643564236423 11.58467526396567 1 0 0
262 1 0.8342422269168821 10.331131513595999 7.808109028765649 1 0 1
461 1 2.541417290949006 12.451312685225943 10.886710691260461 0 0 0
967 1 0.23161791810949428 12.641589680261763 10.739966229528145 1 0 0
878 1 3.684323495789541 10.812512908247479 9.866283050189647 1 0 0
178 1 3.533097441579419 11.580269572809677 12.85311994304893 1 0 0
514 1 6.540865859590428 8.768439744366667 7.7889154449703835 1 0 0
770 1 7.351579963019397 10.310133860595771 13.326250955864175 0 1 0
844 1 5.806620712957476 11.788049098672499 10.564584422607695 0 0 0
493 1 5.861960231725007 12.004689204770145 12.937394141105187 0 0 0
637 1 7.210800753582257 10.035535470088549 9.769588862055711 0 0 0
439 1 9.480530212585979 11.09225025570601 12.694065847001333 0 0 0
433 1 12.430957281964806 12.88347158829446 10.071816433803578 0 0 0
148 1 10.945961258824877 9.194906564175177 8.932294468725178 0 0 0
980 1 12.529921236825327 12.621433331428797 7.729755229383602 0 -1 0
35 1 10.231981946867688 12.201540363974987 10.766441309224092 0 0 0
921 1 8.747728980317376 12.458558213726626 7.374075298409964 1 0 0
820 1 9.272440458442302 10.794029779775045 9.171220931484518 0 0 0
653 1 12.053607946652136 10.41718790376539 7.185163188602467 0 0 0
565 1 13.341329816303787 0.4265346711339878 7.045828229668589 0 0 0
623 1 -0.097464990149426 12.295803411919593 8.478630700107585 0 0 0
575 1 13.376916806476162 2.644243600867388 6.6517716124173605 0 1 0
233 1 -0.21929191602760767 -0.006273808533629882 8.784377377819332 0 1 0
355 1 1.4212169848336185 3.7570007217238626 6.604207599000754 1 1 0
674 1 1.687807416613369 0.5054988967201623 18.61811018630125 0 0 -1
185 1 0.5470485298694097 0.13199470795459434 15.08587099000181 1 1 0
209 1 3.47242499055073 2.6328709707028852 14.932135232384422 0 1 0
414 1 0.02879364309211324 2.165841848452989 18.54215349182592 1 0 0
901 1 2.5083109513730784 0.38814228702046905 16.338914858613506 1 0 0
140 1 4.078084593387723 3.463929389791174 17.196338565380316 0 0 0
300 1 -0.2105853463834721 4.180701864488507 15.46504509358691 1 0 0
270 1 6.61195732289843 0.5120233763258649 18.402181399017323 0 1 -1
848 1 5.0581770246735065 2.1783553995304157 18.87822765212202 0 1 0
213 1 7.880471050935469 3.485796147395019 16.81256263906139 0 0 0
528 1 7.676219205603454 1.1430129655349797 16.477465558124962 0 1 0
339 1 6.686606520396044 0.7678912453002151 14.420200117992543 0 1 0
283 1 6.361353225973322 3.9255792843345434 19.814400128793253 0 0 0
847 1 8.354181240182076 0.08640435932615176 19.89116860448656 0 1 0
153 1 8.685728980366825 3.892317960435788 19.042175987719098 0 1 0
741 1 5.109511538504806 3.85786080895429 13.574978465698187 0 0 0
986 1 10.090745848824373 9.489665666931247 19.204281229068556 0 0 0
332 1 12.605814779995098 1.6161476978925602 17.892395229804322 1 1 0
244 1 12.621053731944727 2.0897714683741113 14.364953276337125 1 0 0
120 1 12.878917642520399 3.3403196758951172 16.48882637872711 0 0 0
836 1 10.480464903794735 1.0755659135558053 13.697811779800816 0 0 0
134 1 11.799556168570806 2.017185811809389 20.079474764126417 0 1 0
216 1 2.4437517765384458 4.541302921735507 18.639110636567167 1 0 0
971 1 0.2871525223546053 4.423238539823823 17.781180731340932 0 1 0
988 1 1.9829255256880964 4.3571670281290595 14.469384143818417 0 1 0
862 1 2.109538504960521 6.68463676266174 14.457075216807969 0 0 0
904 1 3.566917915376411 6.470215891995435 18.85376870921072 0 1 0
343 1 2.6300995768636235 8.309059101314888 17.716622301384838 1 0 0
934 1 1.0306919999062398 8.130070945152799 15.997914294683634 1 0 0
521 1 4.435512992495733 7.273886066319348 14.194815206065762 1 0 1
162 1 5.90090764748969 4.869282511760877 17.007238982235677 0 1 0
840 1 5.730686394742266 6.011360348945459 18.963896912917 0 0 -1
15 1 5.951051990339997 5.735919313067297 14.842073998440306 0 0 0
893 1 6.7581905371905 8.084606222306654 18.90939922720073 0 0 -1
53 1 8.149608654867098 6.28029147212332 14.533568718894463 0 0 0
354 1 13.404596551190838 7.792359346475736 19.600594530780626 1 1 0
523 1 9.261831124346493 4.325269716206946 15.1567326718601 0 0 0
509 1 9.154765575486943 8.166318356457294 15.909944199047585 -1 0 0
688 1 8.979215542120633 7.70844152214562 18.247994009071512 0 0 -1
661 1 10.124944639729623 5.640487782774902 18.489702981413153 0 1 0
333 1 11.229127386762315 5.03738989365338 16.46064491349854 0 1 0
415 1 12.430081332780029 6.405008312145132 14.583605607570387 0 0 0
877 1 11.198362261577167 8.498926077402643 14.842762029704087 0 0 0
4 1 12.112320124875936 5.824677576336888 19.93589570949181 -1 1 -1
268 1 0.2834711632969781 13.044200627523093 14.278855246165692 0 0 0
802 1 1.0187155147526419 13.011138096381847 18.04160203808904 1 0 0
925 1 2.3407396376652616 12.115434991994878 14.741906755518261 1 0 0
3 1 1.9394915836671927 10.3114279853968 15.93138892643851 0 0 0
760 1 1.7560718833799243 10.84505569679313 18.297414427673424 1 0 0
394 1 3.6145157182711882 11.086588489812709 19.686620457580382 0 0 0
856 1 0.19433066650501502 9.829205876426348 19.659575929656796 1 0 0
448 1 4.012401406489716 9.005278797434343 15.849752871386306 1 0 -1
885 1 12.343893745687193 9.603330358721134 18.607943472430563 0 0 0
973 1 5.954296228981499 9.585982421365541 17.130141800543207 0 0 0
63 1 5.461008001305517 11.445652064068167 18.33756112749505 0 0 0
229 1 7.697572908144206 9.921727778462095 15.653304146526764 0 0 0
117 1 8.441253579868937 11.93662308985692 16.159503320939322 0 0 0
749 1 7.187881328420942 11.644685338738062 19.797936691914792 0 0 0
497 1 9.081578349704204 11.585966061730067 18.386388382435 0 0 0
128 1 12.024154574769739 13.152537412606618 17.638069154407845 0 0 0
166 1 12.25039675264833 12.194696065347197 15.542701503994948 0 0 0
315 1 10.208349196883983 12.218760282011573 14.60218314871697 0 0 0
470 1 12.591849909531229 9.962185476602986 16.161036036983013 0 0 0
417 1 12.92139701309963 11.794813888728825 19.415380450645053 0 0 -1
579 1 3.2619880802653336 1.4496274818038284 20.27055117990016 0 1 0
795 1 9.489090863544252 2.1464354795194898 20.256552632929903 0 1 0
936 1 1.6522625612559423 3.4973846279287923 24.399393994166658 0 0 0
91 1 1.5071243809621089 1.2553182009594839 23.770677394885873 0 0 0
254 1 3.4793034222445285 0.8306731515906316 22.47065325706221 0 0 0
975 1 2.195032735233962 3.520046225334577 20.72501171396835 1 1 0
314 1 2.424342729849414 3.543189011227415 26.669156220549937 1 0 0
593 1 0.07772172557785889 2.81364445195983 20.842415989309814 1 0 0
870 1 3.3198975357534595 -0.23088418740219435 26.95854623207564 0 0 0
775 1 -0.1264851341779618 9.367982218066464 26.30833128562616 1 0 0
50 1 3.0527635651347005 4.275640694263827 22.77355745307372 1 0 -1
562 1 9.117895256268977 11.75173058748442 25.661669245417713 0 0 -1
386 1 4.724329787439196 2.612102977991559 23.239923890602725 1 1 0
694 1 6.515566010029887 3.5977659331383314 22.131864013561533 0 0 -1
175 1 5.282739666790891 2.473693168841406 25.538604971545823 0 1 -1
685 1 6.852938426129461 0.5725853284669397 25.484782143324665 0 1 0
665 1 8.503676319142537 0.2958529390825816 23.855130849915085 0 0 0
379 1 8.532192603153288 2.283647198034349 22.483898568582795 0 1 0
581 1 -0.11685171015108153 4.920538326516195 24.84274162306575 1 0 0
200 1 12.952432000094667 3.8174033260245155 21.045809764267766 0 1 0
723 1 11.88437874946531 1.0676268897066326 26.384814283828987 0 0 -1
204 1 12.45094827623661 3.4205652457666114 23.229751842672023 0 0 0
826 1 10.020752319599353 3.7168109121115083 23.4229608202277 0 0 0
321 1 12.937149695662644 0.24287733596931838 21.256323364058233 0 1 0
756 1 11.396380406007609 11.687076431569167 25.16421334460071 -1 0 -1
224 1 0.8052996669405186 7.7945743576118325 20.59031102046488 1 0 0
556 1 3.1064879386089688 7.58358100827581 20.91880284508234 0 0 0
276 1 3.112694623260258 7.337493551542578 24.93405480582016 0 0 0
619 1 3.7323119212365747 5.518317154064523 26.37130746647886 0 0 -1
923 1 3.9282002418307282 6.255160285803197 22.85446507131273 0 1 0
488 1 0.9553181140909686 8.438296541090278 24.283242019437587 1 0 0
296 1 11.885588749632065 8.91573324588645 22.548943230471167 0 1 0
312 1 7.883917110597736 5.506228520281577 26.415459608128458 0 1 0
159 1 5.837493836807998 4.693272220785251 25.575914887976154 0 0 0
445 1 6.128703691446184 5.724224673759117 23.27305007939416 1 0 0
293 1 8.124637063702194 7.22401842968499 23.34412921688724 0 0 0
853 1 8.29511739083014 7.531339868607267 25.778235532113037 0 0 0
585 1 9.673996231285997 4.0678631474973885 25.724571736695736 0 0 0
929 1 9.299906659353779 5.616496962377401 22.25123678039745 0 0 0
462 1 10.570439838380484 8.013013205589404 26.208241481947617 0 0 0
111 1 11.343329956409915 5.74656753728577 25.976864851840624 0 0 0
338 1 11.261413936355876 6.6446451270517475 22.19986285400666 0 0 0
669 1 12.427808842231578 5.582963607801725 23.96167300339463 0 0 0
819 1 0.37347249368272406 11.244764643688105 21.669916958806006 1 0 0
211 1 1.6326700579731268 10.533060984365559 23.560322346196017 0 0 0
880 1 1.2793500264391666 12.376726120930298 25.03478550129016 0 0 0
948 1 4.117142239303084 10.396850785681728 23.385374334983368 0 0 -1
151 1 3.5068820473190963 13.073704871327314 20.82272965658234 0 0 -1
931 1 4.455405725931317 9.516369138344313 21.26425173066348 0 0 0
597 1 4.3083127925002405 9.234963352736731 25.505210721849032 0 0 0
195 1 4.4032221183526605 12.703086189803532 22.982277677271256 1 1 -1
864 1 6.746076912013294 9.534053080500694 20.7559556881763 0 0 -1
626 1 6.613944837626587 9.239166302100793 25.919467107017503 0 0 0
217 1 6.753083667386115 12.685080391487828 23.289639478377737 0 0 0
206 1 7.562217929179163 10.676452151923122 24.279080226142966 0 0 0
909 1 8.279638370373247 9.370427371548615 22.53999784773591 0 0 -1
78 1 12.000616027531613 9.472408747932237 24.803787365357685 0 0 -1
547 1 12.077269081337057 12.991195749695695 23.367194970188002 0 0 0
604 1 11.335036459867865 12.3498684155634 21.261866118161066 0 0 0
308 1 10.142612118313144 10.049529280537282 21.41570565827437 0 0 0
550 1 1.318752567466332 11.09328306966746 26.883320767085277 0 0 0
920 1 2.4627553510496174 14.670210874000437 2.5339278884255707 0 0 0
221 1 1.8027527130997365 16.64835996431534 3.721865083561364 1 0 0
146 1 1.28633370622653 14.679097314518271 0.5288134823933618 0 1 0
978 1 3.1207168243807075 17.636650184158682 5.484846380615393 1 0 1
317 1 0.11573743395430425 16.48157897416177 -0.14699540829188185 0 0 0
778 1 4.725641562569772 15.157403599127093 2.588219908434735 0 0 0
613 1 5.462962134498852 17.267705413904395 5.349931386332544 1 0 0
627 1 5.471067461087891 15.055504296981368 4.8307860548444985 0 0 0
237 1 7.715922383033017 15.177255117595026 4.670060979222344 0 0 0
640 1 8.261693661760077 16.93776587637865 3.069202992497903 0 0 1
51 1 4.853446090811396 17.452598004076187 2.1039460985219978 0 -1 0
530 1 8.422908547085402 17.094701684825736 0.6789072476184685 1 0 1
914 1 5.523049760054216 13.676939992680802 0.9910268009322076 1 0 1
745 1 6.240740567078272 17.749742168716608 0.21078417741278077 0 0 1
322 1 4.86470571477239 13.562149300193608 6.560278392743 0 0 0
57 1 9.223122737112945 14.945372835829906 0.23989367821779228 1 0 1
965 1 11.429155810424806 14.725765832134943 0.7065575232165558 1 0 0
910 1 11.65510232582546 15.548642226341277 3.071798679206914 0 0 0
345 1 10.537923599803726 17.582024512067058 3.1993268138909503 0 0 0
714 1 11.494704030724588 17.920358364423883 6.563724855974343 0 -1 0
282 1 12.196655759149564 16.838267339384963 -0.1420537652687211 0 0 1
541 1 10.743411738889671 13.77592624997948 4.299261074049532 0 0 1
145 1 2.6477593657912606 18.23601709165719 2.18624709840594 0 0 1
811 1 1.137659389249022 18.62908881903911 0.47916685150362526 0 0 1
7 1 2.950416486571672 19.946499560871544 5.208885313268697 0 0 0
584 1 2.938571511721336 20.429936820035728 2.910569106178216 1 -1 0
475 1 1.5873213068339298 22.344280612707642 3.257701066951334 1 0 0
590 1 2.790879831180577 22.026784996726022 -0.12196453682316298 0 -1 1
628 1 4.459049677418352 21.03183444842191 1.278176300720842 0 0 1
427 1 6.4722997731474115 18.269534899615472 3.494716729904763 0 -1 0
255 1 6.876783509928752 20.324668282156594 4.467917833120271 0 0 0
842 1 4.988682350858997 21.02308665144821 5.763375137977377 0 0 1
95 1 7.575061203574358 22.03932749734286 2.9949487144651723 0 -1 1
375 1 8.171867148486504 21.387552370609917 0.7394163389840833 0 0 1
507 1 8.73205467811229 19.63485065376819 6.0554001890626905 1 0 1
903 1 6.401470338004375 19.969530805786405 0.11277392639115852 0 -1 0
651 1 10.54365825986135 18.203489040355926 0.8585001450416527 0 0 0
721 1 10.594467379807462 20.428684587917232 0.3726878030702092 0 -1 0
928 1 10.642092729168704 19.33356847622322 4.749962585525493 0 -1 0
671 1 10.986160452608111 21.714262551988085 4.081113737391219 0 0 0
689 1 11.923774589432568 21.756395170206325 1.8242068290698845 0 0 0
288 1 1.7390207902446742 23.53800608165796 1.218722090905612 1 0 0
766 1 2.554569143642437 26.073230038442887 5.3878309519055545 0 -1 1
506 1 2.962517490884508 25.638880662304295 1.4211082003241113 1 0 1
45 1 2.357160211359019 23.748748635239785 5.00101135881173 1 0 0
682 1 0.5861039352069396 27.11937797258753 6.453480602073905 1 0 0
658 1 9.966922250804217 27.014321085775542 2.493630565612626 0 -1 0
126 1 2.600140423663049 27.051762685523485 3.2422998490629737 0 -1 0
807 1 4.749916893812198 26.411175914354317 6.500148035700106 0 0 1
754 1 8.072455217474955 26.914124700716165 3.8071705417177366 0 -1 0
73 1 6.299974856612176 26.709278453721033 2.1922364909974688 1 -1 1
874 1 4.782024161926521 23.161034317600404 5.011452975995565 0 -1 1
310 1 8.346363313060907 25.080767229483975 5.204707137943803 0 0 0
102 1 5.335739712880295 22.81281490533906 2.675692039830281 0 0 1
508 1 5.113156918920278 24.948040447846225 1.6381655352902396 0 0 1
430 1 6.241008639596841 24.560788122402194 6.081396747516633 0 0 0
346 1 8.725124232642607 25.16148677526126 -0.17070945625720288 0 0 1
24 1 12.205456294366483 22.654537534897962 5.832918154563638 0 0 0
982 1 9.184868618013581 23.375709741189056 3.725024000976456 0 0 0
783 1 12.143965444016606 24.0273059444 1.440507175803196 0 0 0
369 1 9.858736169987422 24.683154396671604 1.8126986314872267 0 0 0
677 1 11.92733903547468 26.484733972820855 5.676897208236061 0 -1 0
513 1 2.9922146820012734 14.556169350956234 9.95010503631785 0 0 1
174 1 2.3840409490046 16.700292021535326 7.501140153540947 1 0 0
478 1 0.9478155142690439 14.887329365146467 10.959085164994168 0 0 0
118 1 3.108745189341007 14.517342441717897 7.636803507193517 0 0 0
1 1 0.1051478860821557 16.00113883525767 7.574096434919224 0 0 0
687 1 0.936121317147665 13.908214133290121 7.100100273200312 0 0 0
358 1 0.9821495443845432 15.16602112765136 13.210604964360726 0 0 0
554 1 5.1403320755766995 15.760424036679431 13.118227299466163 0 0 0
425 1 7.031505868309661 13.864474909841732 7.661954520109414 0 0 1
16 1 5.019974716295881 15.465511816153427 10.862102353879507 1 0 0
256 1 8.176700612789645 17.09360954048544 12.618967009622091 0 0 0
919 1 8.398817422451781 14.729646748842397 12.744648847948746 0 0 0
860 1 6.699665048217799 14.0033498562074 9.835662068180287 0 0 0
423 1 4.801515634803445 17.7458349920878 10.076192167456362 0 0 0
813 1 6.102178873869181 17.86401175927331 13.099784586885628 1 0 0
894 1 8.134433736118345 15.914113704433424 6.686491196479148 0 0 0
833 1 7.040284148287192 18.010494435303364 6.9205402293084335 0 0 1
611 1 8.7994427893299 14.07497210071432 10.624753945945152 0 0 0
484 1 10.244446226524028 15.9543529458046 7.636743100302013 0 0 1
363 1 10.197624700086234 15.778163911130092 9.960299898266243 0 0 0
285 1 12.31236667936271 15.144296395970866 10.712932255968507 0 0 0
334 1 9.53020393451366 17.84330048846153 10.880275434808683 0 0 0
119 1 12.488595045388863 14.941971984482851 13.172620482012727 0 0 0
738 1 10.674817412907647 13.822981024060054 6.713576267822225 0 1 0
32 1 2.609554295641993 18.184518117009674 9.212860033610871 1 0 0
883 1 0.5829353163317648 18.40075269363416 10.33715921645612 0 0 0
822 1 0.8053100614613193 18.736907411873318 12.661581021417819 0 0 0
718 1 2.9263156233531507 20.380541144833053 8.560474582697468 1 -1 0
602 1 1.657030168092428 21.825643051477662 10.059078992078904 1 0 0
881 1 -0.15876175647240248 20.50012046826329 10.299645073074068 1 -1 0
143 1 -0.07266559311220111 20.918283716215775 12.623470982788904 1 0 0
683 1 2.8513727618214237 22.31291556257967 12.020561216040198 1 -1 0
400 1 1.517174530295328 20.70300357402604 6.870329539304695 0 0 0
633 1 5.087501445094362 21.673343980337933 11.708375494294483 0 0 0
835 1 4.681953099713899 19.312527409718612 11.882125662108761 1 -1 0
447 1 5.130669758408441 21.02965725929164 8.128445451519081 1 0 0
124 1 6.213408028560434 19.15209489754151 8.92928804255613 1 0 0
679 1 8.307341786929818 19.56193283581691 9.855294340332758 0 0 0
29 1 12.224108888681515 25.48073580614303 12.557412898598797 0 0 0
251 1 9.091919800668931 20.93081495098292 11.680864610443082 0 0 0
727 1 12.737652200073134 18.869969738904544 10.189970120383459 0 0 0
171 1 11.878179936305619 19.56439717545868 8.143196094305079 0 0 0
327 1 9.592323857534312 20.450555155035467 8.128618053871753 0 -1 0
863 1 11.065430519098605 19.333010206510473 11.70894250787737 0 0 0
720 1 0.04924921651463454 25.232943397995264 9.83089094004109 0 0 0
984 1 1.4775540342668805 23.817255921025968 8.772444650015006 1 0 0
342 1 1.0779811400099708 25.746081527853384 11.821494079763323 0 -1 0
559 1 3.1352174180684305 24.560063754540394 11.771066429943271 0 -1 0
952 1 3.6591012479836658 24.38805376307355 9.521192823163133 0 -1 0
272 1 4.277253666841809 26.55900709748971 8.840443140380918 1 0 0
127 1 5.428122974762148 22.87771478520355 9.494342385798259 0 -1 0
289 1 5.950246148796808 26.808640622053773 10.373668184729176 0 0 0
320 1 7.279620320629088 23.762816077929784 8.19312787547081 0 0 0
654 1 5.228173817482393 25.51942410801999 12.30123324488906 1 0 -1
459 1 7.94471732591567 25.663403518883 9.580544752961336 1 0 0
697 1 7.165276155133543 24.581430640807966 13.334938800115127 0 0 0
39 1 8.802726823270612 24.979702185105864 11.619602088308145 0 0 0
442 1 12.152761127145075 23.696826866296455 11.173394675284348 0 0 0
636 1 11.085772667589682 23.82284167259767 7.578061640822238 0 0 0
422 1 12.814193265737334 26.875597156740575 9.203485645167953 0 0 0
871 1 10.422250350674453 26.75053560417151 12.028430836159327 0 0 0
381 1 9.414670924559783 22.763917432814303 8.566932819232456 0 0 0
582 1 12.700823877841835 24.590197585708715 9.153899628180643 0 -1 0
737 1 9.955006244042373 22.85454656528521 10.931973577600496 0 0 0
906 1 2.9134246454735524 18.862209691767028 13.346924832823085 1 0 0
441 1 -0.16202527032948352 24.311765201564533 13.219179473094618 1 -1 0
287 1 1.005399113079321 22.96447127724162 6.662327511904427 0 -1 0
629 1 10.077269644690974 25.741847734206814 6.726097683784746 0 0 0
8 1 1.4969095811338098 17.26427983766802 16.68544109062261 1 0 0
542 1 3.4125484575149816 16.016759389811696 16.024048010913212 0 0 0
329 1 1.0390207466377919 16.607043499051223 18.875250792264637 0 0 1
388 1 3.3035539381978762 16.502620525433308 19.646230030633653 0 0 0
69 1 0.515861505558974 14.492088338148546 19.7576130874346 0 0 0
467 1 3.038733443640904 16.405304783636012 13.889166504819308 0 -1 0
888 1 2.824074340924155 13.697480004210767 16.550198817643455 1 0 0
201 1 4.500569829472776 14.710833240182602 19.285751057979134 0 0 0
428 1 7.1711081163506964 16.66687198845098 18.481708855677887 0 -1 -1
291 1 5.413267830371706 17.20649031938303 16.96235350332418 0 -1 0
570 1 8.427670515243413 15.184943045613753 17.336145995876976 0 0 0
432 1 6.977512082841964 13.76214459292595 16.1135128380743 0 0 0
238 1 6.485807572947018 13.98318289258993 13.958977627053264 0 0 0
838 1 13.32013962524205 14.916632126784473 17.578536029501187 0 1 0
867 1 9.902324273269608 15.952152565211923 15.726060191088534 0 0 0
406 1 12.252711712558174 16.520872813215256 16.323845902498114 0 0 0
264 1 10.383761414218142 14.429970386776997 13.960414127687951 0 0 0
267 1 13.214155411324638 17.048820629825578 14.255434734458104 1 0 0
548 1 13.225150461116371 15.995714436880275 19.72364830711502 0 0 0
831 1 9.911376435074192 13.768271092214682 18.572736420031035 1 0 0
592 1 9.347164635935702 17.848656540370698 14.532995476300346 0 0 -1
307 1 12.368757150777093 17.681579571875723 18.329665040484194 0 0 0
956 1 10.402581328837684 18.043217604012703 19.622832722841885 1 0 0
787 1 2.5534113470360853 19.412240458055557 16.945792287162895 1 0 0
750 1 1.3314404692446344 21.147802317561116 17.752338176915345 1 -1 0
635 1 3.988115095956288 20.015982058920045 15.287897110767481 0 -1 0
26 1 0.5522932552728324 20.497900822578153 19.756551849889426 1 0 -1
963 1 4.099133979581923 18.493045021667925 18.615147535242762 0 0 0
854 1 1.262483794288983 22.438369061407286 13.865681487951854 1 0 0
713 1 -0.03635286452967362 22.042431195975894 15.882935740902111 1 -1 0
344 1 4.97936561813343 13.504956637434265 17.38805968431486 0 0 0
113 1 4.699363399912853 22.24258463719636 15.24177350279981 1 0 0
656 1 5.813026349482388 18.64215449857135 15.259424476834873 0 0 0
246 1 8.038985882268442 19.636922316703277 15.326551114776684 0 0 0
328 1 6.31786092203421 22.07546053614609 17.13754121685932 1 0 0
395 1 8.168333847142497 20.48377548989074 17.44762247314803 0 -1 0
361 1 8.229496887343586 18.630422341519917 19.08797736858896 1 0 0
503 1 8.44931420356465 21.44275735275005 13.891374494309638 1 -1 0
123 1 5.283000064441967 22.245735657813945 19.262841901545805 0 0 0
527 1 4.263922336433132 20.265941540346034 20.010658646066346 0 -1 0
93 1 10.836061692640923 21.81435585813597 20.24745853891597 0 -1 0
618 1 13.130570804449274 21.990610243482294 14.250959139269213 0 -1 0
138 1 11.465839217510322 18.558359495883565 13.99164089713895 0 0 0
958 1 9.578901345347367 22.017641124182227 18.271707246677565 0 0 0
970 1 12.162827082560218 20.207037288352424 15.425882308034108 0 0 0
284 1 10.974487966297993 21.943334996071478 16.436419004179463 0 0 0
767 1 2.0518483056661685 23.169804454132596 17.830855214035722 1 0 0
71 1 2.966228734995582 23.584627897783243 15.730282498996717 1 0 0
1000 1 3.8634307835590063 25.82437160123245 16.075168380156867 0 0 -1
112 1 0.7424524142147743 25.92888836539519 19.795919633900027 0 0 0
799 1 2.4714120924180394 24.19068965840618 19.965006182757797 1 -1 0
859 1 -0.021061856907944654 23.908068421153963 17.167955784210136 1 -1 0
555 1 9.385771322352591 27.09246425315151 15.63573817282207 0 -1 0
757 1 4.832074990879479 24.53303954540548 19.76928562404857 0 -1 0
489 1 8.163405148663875 25.010036555988435 15.333936696351515 1 -1 0