 vasp.6.5.0 16Dec24 (build Jan 20 2025 08:32:48) complex                         
 executed on        HPECrayEX_GCC date 2025.07.29  02:04:26
 running  128 mpi-ranks, with    1 threads/rank, on    1 nodes
 distrk:  each k-point on  128 cores,    1 groups
 distr:  one band on NCORE=  16 cores,    8 groups


--------------------------------------------------------------------------------------------------------


 INCAR:
   SYSTEM = a-Si SPC
   NCORE = 16
   ISTART = 1
   ICHARG = 1
   ISPIN = 1
   ISYM = 1
   EDIFF = 1E-6
   NELM = 150
   EDIFFG = -0.01
   NSW = 0
   ISIF = 2
   IBRION = -1
   PREC = Accurate
   ENCUT = 1200
   KSPACING = 0.23
   KGAMMA = .TRUE.
   METAGGA = SCAN
   LASPH = .TRUE.
   LDIAG = .FALSE.
   LMIXTAU = .TRUE.
   ADDGRID = .TRUE.
   ALGO = Normal
   ISMEAR = 0
   SIGMA = 0.1
   LORBIT = 11
   NEDOS = 2000
   LWAVE = .FALSE.
   LCHARG = .FALSE.

 POTCAR:    PAW_PBE H 15Jun2001                   
 POTCAR:    PAW_PBE Si 05Jan2001                  
 POTCAR:    PAW_PBE H 15Jun2001                   
   SHA256 =  030f79b5d3ab3cf0e668861823c8fb652ff669f3e15e46930bd03bfd63a607b6 H/POTCAR              
   COPYR  = (c) Copyright 15Jun2001 Georg Kresse                                                    
   COPYR  = This file is part of the software VASP. Any use, copying, and all other rights are regul
   COPYR  = If you do not have a valid VASP license, you may not use, copy or distribute this file. 
   VRHFIN =H: ultrasoft test                                                                        
   LEXCH  = PE                                                                                      
   EATOM  =    12.4884 eV,    0.9179 Ry                                                             
                                                                                                    
   TITEL  = PAW_PBE H 15Jun2001                                                                     
   LULTRA =        F    use ultrasoft PP ?                                                          
   IUNSCR =        0    unscreen: 0-lin 1-nonlin 2-no                                               
   RPACOR =    0.000    partial core radius                                                         
   POMASS =    1.000; ZVAL   =    1.000    mass and valenz                                          
   RCORE  =    1.100    outmost cutoff radius                                                       
   RWIGS  =    0.700; RWIGS  =    0.370    wigner-seitz radius (au A)                               
   ENMAX  =  250.000; ENMIN  =  200.000 eV                                                          
   RCLOC  =    0.701    cutoff for local pot                                                        
   LCOR   =        T    correct aug charges                                                         
   LPAW   =        T    paw PP                                                                      
   EAUG   =  400.000                                                                                
   RMAX   =    1.123    core radius for proj-oper                                                   
   RAUG   =    1.200    factor for augmentation sphere                                              
   RDEP   =    1.112    radius for radial grids                                                     
   RDEPT  =    0.926    core radius for aug-charge                                                  
                                                                                                    
   Atomic configuration                                                                             
    2 entries                                                                                       
     n  l   j            E        occ.                                                              
     1  0  0.50        -6.4927   1.0000                                                             
     2  1  0.50        -3.4015   0.0000                                                             
   Description                                                                                      
     l       E           TYP  RCUT    TYP  RCUT                                                     
     0     -6.4927494     23  1.100                                                                 
     0      6.8029130     23  1.100                                                                 
     1     -4.0817478     23  1.100                                                                 
  local pseudopotential read in
  atomic valenz-charges read in
  non local Contribution for L=           0  read in
    real space projection operators read in
  non local Contribution for L=           0  read in
    real space projection operators read in
  non local Contribution for L=           1  read in
    real space projection operators read in
    PAW grid and wavefunctions read in

   number of l-projection  operators is LMAX  =           3
   number of lm-projection operators is LMMAX =           5

 POTCAR:    PAW_PBE Si 05Jan2001                  
   SHA256 =  79d9987ad8750f624c4d6acb2a16d13abf6a777132adc04dc6c8399be72b42bb Si/POTCAR             
   COPYR  = (c) Copyright 05Jan2001 Georg Kresse                                                    
   COPYR  = This file is part of the software VASP. Any use, copying, and all other rights are regul
   COPYR  = If you do not have a valid VASP license, you may not use, copy or distribute this file. 
   VRHFIN =Si: s2p2                                                                                 
   LEXCH  = PE                                                                                      
   EATOM  =   103.0669 eV,    7.5752 Ry                                                             
                                                                                                    
   TITEL  = PAW_PBE Si 05Jan2001                                                                    
   LULTRA =        F    use ultrasoft PP ?                                                          
   IUNSCR =        1    unscreen: 0-lin 1-nonlin 2-no                                               
   RPACOR =    1.500    partial core radius                                                         
   POMASS =   28.085; ZVAL   =    4.000    mass and valenz                                          
   RCORE  =    1.900    outmost cutoff radius                                                       
   RWIGS  =    2.480; RWIGS  =    1.312    wigner-seitz radius (au A)                               
   ENMAX  =  245.345; ENMIN  =  184.009 eV                                                          
   ICORE  =        2    local potential                                                             
   LCOR   =        T    correct aug charges                                                         
   LPAW   =        T    paw PP                                                                      
   EAUG   =  322.069                                                                                
   DEXC   =    0.000                                                                                
   RMAX   =    1.950    core radius for proj-oper                                                   
   RAUG   =    1.300    factor for augmentation sphere                                              
   RDEP   =    1.993    radius for radial grids                                                     
   RDEPT  =    1.837    core radius for aug-charge                                                  
                                                                                                    
   Atomic configuration                                                                             
    6 entries                                                                                       
     n  l   j            E        occ.                                                              
     1  0  0.50     -1785.8828   2.0000                                                             
     2  0  0.50      -139.4969   2.0000                                                             
     2  1  1.50       -95.5546   6.0000                                                             
     3  0  0.50       -10.8127   2.0000                                                             
     3  1  0.50        -4.0811   2.0000                                                             
     3  2  1.50        -4.0817   0.0000                                                             
   Description                                                                                      
     l       E           TYP  RCUT    TYP  RCUT                                                     
     0    -10.8127223     23  1.900                                                                 
     0     -7.6451159     23  1.900                                                                 
     1     -4.0811372     23  1.900                                                                 
     1      2.4879257     23  1.900                                                                 
     2     -4.0817478      7  1.900                                                                 
  local pseudopotential read in
  partial core-charges read in
  partial kinetic energy density read in
  atomic valenz-charges read in
  non local Contribution for L=           0  read in
    real space projection operators read in
  non local Contribution for L=           0  read in
    real space projection operators read in
  non local Contribution for L=           1  read in
    real space projection operators read in
  non local Contribution for L=           1  read in
    real space projection operators read in
    PAW grid and wavefunctions read in

   number of l-projection  operators is LMAX  =           4
   number of lm-projection operators is LMMAX =           8

 -----------------------------------------------------------------------------
|                                                                             |
|               ----> ADVICE to this user running VASP <----                  |
|                                                                             |
|     You have a (more or less) 'large supercell' and for larger cells it     |
|     might be more efficient to use real-space projection operators.         |
|     Therefore, try LREAL= Auto in the INCAR file.                           |
|     Mind: For very accurate calculation, you might also keep the            |
|     reciprocal projection scheme (i.e. LREAL=.FALSE.).                      |
|                                                                             |
 -----------------------------------------------------------------------------

 -----------------------------------------------------------------------------
|                                                                             |
|               ----> ADVICE to this user running VASP <----                  |
|                                                                             |
|     You enforced a specific xc type in the INCAR file but a different       |
|     type was found in the POTCAR file.                                      |
|     I HOPE YOU KNOW WHAT YOU ARE DOING!                                     |
|                                                                             |
 -----------------------------------------------------------------------------

  PAW_PBE H 15Jun2001                   :
 energy of atom  1       EATOM=  -12.4884
 kinetic energy error for atom=    0.0000 (will be added to EATOM!!)
  PAW_PBE Si 05Jan2001                  :
 energy of atom  2       EATOM= -103.0669
 kinetic energy error for atom=    0.0001 (will be added to EATOM!!)


 POSCAR:  H Si
  positions in cartesian coordinates
  No initial velocities read in


 exchange-correlation table for SCAN
   RHO(1)=    0.500       N(1)  =     2000
   RHO(2)=  100.500       N(2)  =     4000



--------------------------------------------------------------------------------------------------------


 ion  position               nearest neighbor table
   1  0.134  0.054  0.475-  11 1.50
   2  0.948  0.266  0.519-  63 1.50
   3  0.425  0.608  0.612-  90 2.33  57 2.33  22 2.33  56 2.41
   4  0.760  0.850  0.636-  61 2.33  26 2.35   5 2.36
   5  0.652  0.945  0.598-  43 2.34   4 2.36  30 2.38  84 2.47
   6  0.278  0.457  0.460-  86 2.31  36 2.31  91 2.34  39 2.40  55 3.10
   7  0.091  0.245  0.623-  21 2.28  37 2.29  24 2.31
   8  0.788  0.191  0.594-  60 2.40  76 2.42  84 2.43  42 2.49  85 2.67
   9  0.564  0.795  0.449-  75 2.33  81 2.34  67 2.35  34 2.42
  10  0.568  0.149  0.364-  66 2.29  79 2.30  27 2.31
  11  0.162  0.014  0.428-   1 1.50  83 2.36  77 2.43  48 2.49
  12  0.836  0.878  0.398-  15 2.31  28 2.32  78 2.52  34 2.53  82 2.61
  13  0.591  0.359  0.423-  73 2.33  66 2.39  19 2.40  32 2.42
  14  0.062  0.653  0.427-  55 2.35  47 2.36  46 2.38  78 2.50
  15  0.701  0.957  0.385-  12 2.31  81 2.36  79 2.36  34 2.47
  16  0.299  0.395  0.588-  37 2.27  22 2.39  86 2.44  23 2.44
  17  0.178  0.036  0.579-  58 2.29  44 2.34  24 2.35  40 2.42
  18  0.521  0.209  0.603-  20 2.33  84 2.37  65 2.39  53 2.52
  19  0.639  0.516  0.423-  51 2.37  94 2.39  13 2.40  59 2.41
  20  0.545  0.191  0.522-  60 2.29  18 2.33  73 2.35  93 2.38
  21  0.013  0.379  0.612-   7 2.28  23 2.40  42 2.58
  22  0.422  0.454  0.635-   3 2.33  16 2.39  53 2.39
  23  0.144  0.457  0.580-  49 2.29  39 2.31  21 2.40  16 2.44
  24  0.042  0.121  0.578-   7 2.31  76 2.34  17 2.35  63 2.35
  25  0.559  0.453  0.541-  59 2.31  73 2.31  53 2.33  90 2.40
  26  0.709  0.703  0.616-  69 2.34   4 2.35  56 2.40  50 2.41
  27  0.452  0.065  0.399-  10 2.31  93 2.35  80 2.37  35 2.38
  28  0.922  0.948  0.457-  77 2.27  12 2.32  88 2.32  72 2.33  85 3.10
  29  0.106  0.300  0.391-  38 2.31  87 2.39  48 2.47  36 2.56
  30  0.529  0.839  0.589-  56 2.32  64 2.33   5 2.38  67 2.44
  31  0.920  0.608  0.538-  52 2.35  33 2.35  47 2.45  69 2.53
  32  0.729  0.287  0.454-  60 2.34  68 2.36  62 2.36  13 2.42
  33  0.833  0.715  0.494-  50 2.30  72 2.32  31 2.35  82 2.35
  34  0.688  0.789  0.391-  82 2.39   9 2.42  15 2.47  12 2.53  81 3.11
  35  0.393  0.916  0.382-  83 2.33  27 2.38  75 2.42
  36  0.218  0.435  0.385-   6 2.31  55 2.39  29 2.56
  37  0.246  0.259  0.616-  16 2.27  65 2.28   7 2.29  44 3.07
  38  0.128  0.283  0.472-  29 2.31  63 2.33  70 2.37  39 2.38
  39  0.132  0.439  0.498-  23 2.31  38 2.38  47 2.39   6 2.40
  40  0.306  0.013  0.633-  65 2.35  64 2.41  17 2.42  44 2.97
  41  0.253  0.787  0.483-  92 2.31  46 2.31  89 2.35  83 2.36  58 3.15
  42  0.850  0.348  0.580-  71 2.37  62 2.47   8 2.49  21 2.58
  43  0.718  0.946  0.522-  81 2.30  72 2.30  85 2.31   5 2.34
  44  0.297  0.114  0.541-  74 2.31  70 2.33  17 2.34  65 2.36  40 2.97  37 3.07
  45  0.032  0.828  0.614-  58 2.29  61 2.32  52 2.34
  46  0.095  0.770  0.484-  41 2.31  77 2.36  14 2.38  52 2.46  58 2.93
  47  0.004  0.531  0.474-  54 2.32  14 2.36  39 2.39  31 2.45
  48  0.194  0.157  0.382-  80 2.40  29 2.47  11 2.49
  49  0.162  0.613  0.581-  57 2.25  23 2.29  52 2.31
  50  0.703  0.664  0.532-  33 2.30  67 2.34  59 2.37  26 2.41  69 2.59
  51  0.789  0.545  0.394-  82 2.37  19 2.37  54 2.39
  52  0.040  0.707  0.560-  49 2.31  45 2.34  31 2.35  46 2.46  58 3.01
  53  0.561  0.376  0.614-  25 2.33  22 2.39  18 2.52  71 2.56
  54  0.895  0.445  0.433-  47 2.32  87 2.36  62 2.36  51 2.39
  55  0.195  0.598  0.389-  14 2.35  36 2.39  92 2.42   6 3.10
  56  0.549  0.709  0.635-  30 2.32  26 2.40   3 2.41  67 3.11
  57  0.282  0.679  0.618-  49 2.25  89 2.29   3 2.33
  58  0.144  0.885  0.565-  45 2.29  17 2.29  89 2.34  46 2.93  52 3.01  41 3.15
  59  0.688  0.511  0.505-  25 2.31  62 2.36  50 2.37  19 2.41  69 3.11
  60  0.702  0.198  0.521-  20 2.29  85 2.29  32 2.34   8 2.40  84 3.04
  61  0.894  0.899  0.598-  45 2.32   4 2.33  72 2.35  76 2.39
  62  0.805  0.399  0.499-  59 2.36  54 2.36  32 2.36  42 2.47
  63  0.012  0.191  0.504-   2 1.50  38 2.33  24 2.35  88 2.36
  64  0.387  0.911  0.580-  89 2.29  74 2.33  30 2.33  40 2.41
  65  0.366  0.158  0.614-  37 2.28  40 2.35  44 2.36  18 2.39
  66  0.483  0.280  0.374-  10 2.29  13 2.39  80 2.49
  67  0.557  0.730  0.525-  50 2.34   9 2.35  90 2.39  30 2.44  56 3.11
  68  0.828  0.202  0.404-  88 2.35  32 2.36  87 2.39  79 2.43
  69  0.793  0.571  0.596-  26 2.34  71 2.38  31 2.53  50 2.59  59 3.11
  70  0.278  0.221  0.480-  86 2.30  44 2.33  38 2.37  80 2.40
  71  0.729  0.427  0.619-  42 2.37  69 2.38  53 2.56
  72  0.854  0.866  0.518-  43 2.30  33 2.32  28 2.33  61 2.35
  73  0.505  0.337  0.492-  25 2.31  86 2.33  13 2.33  20 2.35
  74  0.380  0.993  0.509-  93 2.30  44 2.31  64 2.33  83 2.34
  75  0.446  0.761  0.396-   9 2.33  92 2.36  35 2.42  94 2.50
  76  0.894  0.062  0.590-  24 2.34  85 2.37  61 2.39   8 2.42
  77  0.055  0.886  0.430-  28 2.27  46 2.36  11 2.43  78 2.48
  78  0.968  0.769  0.384-  77 2.48  82 2.48  14 2.50  12 2.52
  79  0.721  0.110  0.358-  10 2.30  15 2.36  68 2.43
  80  0.349  0.191  0.404-  27 2.37  70 2.40  48 2.40  66 2.49
  81  0.619  0.946  0.458-  43 2.30  93 2.34   9 2.34  15 2.36  34 3.11
  82  0.821  0.701  0.411-  33 2.35  51 2.37  34 2.39  78 2.48  12 2.61
  83  0.294  0.928  0.447-  35 2.33  74 2.34  41 2.36  11 2.36
  84  0.648  0.111  0.616-  18 2.37   8 2.43   5 2.47  60 3.04
  85  0.805  0.079  0.519-  60 2.29  88 2.31  43 2.31  76 2.37   8 2.67  28 3.10
  86  0.349  0.351  0.508-  70 2.30   6 2.31  73 2.33  16 2.44
  87  0.943  0.316  0.390-  54 2.36  68 2.39  29 2.39
  88  0.907  0.107  0.458-  85 2.31  28 2.32  68 2.35  63 2.36
  89  0.280  0.799  0.565-  64 2.29  57 2.29  58 2.34  41 2.35
  90  0.471  0.591  0.533-   3 2.33  91 2.35  67 2.39  25 2.40
  91  0.392  0.571  0.461-  92 2.28   6 2.34  90 2.35  94 2.37
  92  0.314  0.688  0.426-  91 2.28  41 2.31  75 2.36  55 2.42  94 3.13
  93  0.510  0.057  0.477-  74 2.30  81 2.34  27 2.35  20 2.38
  94  0.503  0.599  0.402-  91 2.37  19 2.39  75 2.50  92 3.13

  LATTYP: Found a simple tetragonal cell.
 ALAT       =    14.5722492107
 C/A-ratio  =     1.9250904712
  
  Lattice vectors:
  
 A1 = (  14.5722492107,   0.0000000000,   0.0000000000)
 A2 = (   0.0000000000,  14.5722492107,   0.0000000000)
 A3 = (   0.0000000000,   0.0000000000,  28.0528981000)


Analysis of symmetry for initial positions (statically):
=====================================================================
 Subroutine PRICEL returns:
 Original cell was already a primitive cell.
 

 Routine SETGRP: Setting up the symmetry group for a 
 simple tetragonal supercell.


 Subroutine GETGRP returns: Found  1 space group operations
 (whereof  1 operations were pure point group operations)
 out of a pool of 16 trial point group operations.


The static configuration has the point symmetry C_1 .


Analysis of symmetry for dynamics (positions and initial velocities):
=====================================================================
 Subroutine PRICEL returns:
 Original cell was already a primitive cell.
 

 Routine SETGRP: Setting up the symmetry group for a 
 simple tetragonal supercell.


 Subroutine GETGRP returns: Found  1 space group operations
 (whereof  1 operations were pure point group operations)
 out of a pool of 16 trial point group operations.


The dynamic configuration has the point symmetry C_1 .


 Subroutine INISYM returns: Found  1 space group operations
 (whereof  1 operations are pure point group operations),
 and found     1 'primitive' translations


----------------------------------------------------------------------------------------

                                     Primitive cell                                     

  volume of cell :    5957.0455

  direct lattice vectors                    reciprocal lattice vectors
    14.572249211  0.000000000  0.000000000     0.068623586  0.000000000  0.000000000
     0.000000000 14.572249211  0.000000000     0.000000000  0.068623586  0.000000000
     0.000000000  0.000000000 28.052898100     0.000000000  0.000000000  0.035646941

  length of vectors
    14.572249211 14.572249211 28.052898100     0.068623586  0.068623586  0.035646941

  position of ions in fractional coordinates (direct lattice)
     0.134189148  0.053601165  0.475412765
     0.947679760  0.266405646  0.518527004
     0.425181471  0.608127406  0.612277805
     0.760398139  0.850065111  0.636067552
     0.652222588  0.944996278  0.597582556
     0.277996005  0.457281520  0.459910955
     0.090506089  0.244624922  0.622681601
     0.788498337  0.190762998  0.594068345
     0.564273113  0.795371198  0.448680377
     0.568385723  0.149265804  0.363651029
     0.162214551  0.014193981  0.428108549
     0.835822473  0.877915092  0.397830324
     0.591209020  0.359045728  0.423053230
     0.062484493  0.652682202  0.426898981
     0.700855185  0.957435452  0.385390236
     0.299124034  0.394827103  0.587974982
     0.178271690  0.035953990  0.578859071
     0.520750523  0.209130298  0.603493049
     0.638713048  0.516391436  0.422527516
     0.545042785  0.191467734  0.521901331
     0.013157849  0.378748373  0.612016500
     0.422216494  0.454099201  0.635101970
     0.144398242  0.456983120  0.579650251
     0.041678476  0.121112178  0.578053806
     0.558753702  0.453185375  0.541416535
     0.708541141  0.702774398  0.615571271
     0.452227978  0.064819786  0.398768960
     0.922276242  0.948302088  0.456734012
     0.105905861  0.299981329  0.391236823
     0.529134459  0.839264843  0.589076461
     0.920158218  0.608011079  0.538018019
     0.728654627  0.286799327  0.453536550
     0.833244589  0.714650612  0.494477863
     0.687648803  0.788654141  0.391225130
     0.393039791  0.916050480  0.382128557
     0.217781006  0.434965266  0.384560594
     0.246159560  0.258772898  0.616056911
     0.128218940  0.283113606  0.472244902
     0.131744234  0.439044044  0.497992591
     0.306260677  0.013385630  0.632685590
     0.252711872  0.786968054  0.482562511
     0.849561677  0.348080666  0.580267776
     0.717831350  0.945926236  0.521640995
     0.297499438  0.114346203  0.540833109
     0.032437996  0.828001771  0.614413695
     0.095161579  0.769585601  0.483836088
     0.004090752  0.531298397  0.473763488
     0.194026776  0.156607545  0.381836688
     0.161646297  0.612815387  0.580990434
     0.703045214  0.663538753  0.532301647
     0.789174220  0.545019889  0.394076941
     0.040107979  0.706748100  0.560027789
     0.560903251  0.375834218  0.614124468
     0.894828244  0.445284201  0.433453234
     0.195349302  0.597544083  0.388745939
     0.548698796  0.708571363  0.635484577
     0.282139323  0.678873010  0.617749005
     0.144420197  0.884701647  0.565340684
     0.688205662  0.510983461  0.504508183
     0.702023975  0.197626032  0.521305427
     0.893582450  0.898913422  0.597540515
     0.805190644  0.399341663  0.499390345
     0.012209031  0.191210158  0.504052439
     0.387477677  0.910850794  0.580014742
     0.366196838  0.158357500  0.613596158
     0.482996141  0.279834029  0.373994992
     0.557497172  0.729693969  0.525162772
     0.828209109  0.201868131  0.404092537
     0.792642033  0.571023979  0.596032108
     0.277685287  0.220941420  0.479966939
     0.728576081  0.427345879  0.619217277
     0.853799413  0.865833261  0.518208041
     0.505374636  0.337329197  0.492275000
     0.379789471  0.993344459  0.509157270
     0.445687425  0.760612021  0.395833396
     0.893641597  0.062413378  0.589584511
     0.054857336  0.886230279  0.429562373
     0.967994921  0.769417844  0.383968099
     0.720879377  0.109551545  0.358129154
     0.349397652  0.190602731  0.404466892
     0.619222085  0.945559626  0.457691222
     0.821052123  0.700993878  0.411190210
     0.294349751  0.927638322  0.447159722
     0.648351333  0.110508676  0.615668168
     0.804561400  0.078536754  0.519229529
     0.349144466  0.350622814  0.508177173
     0.942568688  0.315909904  0.389639499
     0.906544415  0.106886874  0.457983980
     0.280425940  0.799155454  0.564990749
     0.471064616  0.591439808  0.533193001
     0.391543694  0.570606073  0.461285919
     0.313587490  0.688397537  0.426478467
     0.509627957  0.057350594  0.476909341
     0.503304417  0.599492963  0.401520192

  ion indices of the primitive-cell ions
   primitive index   ion index
                 1           1
                 2           2
                 3           3
                 4           4
                 5           5
                 6           6
                 7           7
                 8           8
                 9           9
                10          10
                11          11
                12          12
                13          13
                14          14
                15          15
                16          16
                17          17
                18          18
                19          19
                20          20
                21          21
                22          22
                23          23
                24          24
                25          25
                26          26
                27          27
                28          28
                29          29
                30          30
                31          31
                32          32
                33          33
                34          34
                35          35
                36          36
                37          37
                38          38
                39          39
                40          40
                41          41
                42          42
                43          43
                44          44
                45          45
                46          46
                47          47
                48          48
                49          49
                50          50
                51          51
                52          52
                53          53
                54          54
                55          55
                56          56
                57          57
                58          58
                59          59
                60          60
                61          61
                62          62
                63          63
                64          64
                65          65
                66          66
                67          67
                68          68
                69          69
                70          70
                71          71
                72          72
                73          73
                74          74
                75          75
                76          76
                77          77
                78          78
                79          79
                80          80
                81          81
                82          82
                83          83
                84          84
                85          85
                86          86
                87          87
                88          88
                89          89
                90          90
                91          91
                92          92
                93          93
                94          94

----------------------------------------------------------------------------------------


 -----------------------------------------------------------------------------
|                                                                             |
|           W    W    AA    RRRRR   N    N  II  N    N   GGGG   !!!           |
|           W    W   A  A   R    R  NN   N  II  NN   N  G    G  !!!           |
|           W    W  A    A  R    R  N N  N  II  N N  N  G       !!!           |
|           W WW W  AAAAAA  RRRRR   N  N N  II  N  N N  G  GGG   !            |
|           WW  WW  A    A  R   R   N   NN  II  N   NN  G    G                |
|           W    W  A    A  R    R  N    N  II  N    N   GGGG   !!!           |
|                                                                             |
|     The requested file  could not be found or opened for reading            |
|     k-point information. Automatic k-point generation is used as a          |
|     fallback, which may lead to unwanted results.                           |
|                                                                             |
 -----------------------------------------------------------------------------



Automatic generation of k-mesh.
 Grid dimensions derived from KSPACING:
 generate k-points for:    2    2    1

 Generating k-lattice:

  Cartesian coordinates                     Fractional coordinates (reciprocal lattice)
     0.034311793  0.000000000  0.000000000     0.500000000  0.000000000  0.000000000
     0.000000000  0.034311793  0.000000000     0.000000000  0.500000000  0.000000000
     0.000000000  0.000000000  0.035646941     0.000000000  0.000000000  1.000000000

  Length of vectors
     0.034311793  0.034311793  0.035646941

  Shift w.r.t. Gamma in fractional coordinates (k-lattice)
     0.000000000  0.000000000  0.000000000

 
 Subroutine IBZKPT returns following result:
 ===========================================
 
 Found      4 irreducible k-points:
 
 Following reciprocal coordinates:
            Coordinates               Weight
  0.000000  0.000000  0.000000      1.000000
  0.500000  0.000000  0.000000      1.000000
  0.000000  0.500000  0.000000      1.000000
  0.500000  0.500000  0.000000      1.000000
 
 Following cartesian coordinates:
            Coordinates               Weight
  0.000000  0.000000  0.000000      1.000000
  0.034312  0.000000  0.000000      1.000000
  0.000000  0.034312  0.000000      1.000000
  0.034312  0.034312  0.000000      1.000000
 


--------------------------------------------------------------------------------------------------------




 Dimension of arrays:
   k-points           NKPTS =      4   k-points in BZ     NKDIM =      4   number of bands    NBANDS=    240
   number of dos      NEDOS =   2000   number of ions     NIONS =     94
   non local maximal  LDIM  =      4   non local SUM 2l+1 LMDIM =      8
   total plane-waves  NPLWV = ******
   max r-space proj   IRMAX =      1   max aug-charges    IRDMAX= 405687
   dimension x,y,z NGX =   168 NGY =  168 NGZ =  320
   dimension x,y,z NGXF=   336 NGYF=  336 NGZF=  640
   support grid    NGXF=   672 NGYF=  672 NGZF= 1280
   ions per type =               2  92
   NGX,Y,Z   is equivalent  to a cutoff of  19.17, 19.17, 18.96 a.u.
   NGXF,Y,Z  is equivalent  to a cutoff of  38.33, 38.33, 37.93 a.u.

 SYSTEM =  a-Si SPC                                
 POSCAR =   H Si                                   

 Startparameter for this run:
   NWRITE =      2    write-flag & timer
   PREC   = accura    normal or accurate (medium, high low for compatibility)
   ISTART =      1    job   : 0-new  1-cont  2-samecut
   ICHARG =      1    charge: 1-file 2-atom 10-const
   ISPIN  =      1    spin polarized calculation?
   LNONCOLLINEAR =      F non collinear calculations
   LSORBIT =      F    spin-orbit coupling
   INIWAV =      1    electr: 0-lowe 1-rand  2-diag
   LASPH  =      T    aspherical Exc in radial PAW
 Electronic Relaxation 1
   ENCUT  = 1200.0 eV  88.20 Ry    9.39 a.u.  41.16 41.16 79.24*2*pi/ulx,y,z
   ENINI  = 1200.0     initial cutoff
   ENAUG  =  400.0 eV  augmentation charge cutoff
   NELM   =    150;   NELMIN=  2; NELMDL=  0     # of ELM steps 
   EDIFF  = 0.1E-05   stopping-criterion for ELM
   LREAL  =      F    real-space projection
   NLSPLINE    = F    spline interpolate recip. space projectors
   LCOMPAT=      F    compatible to vasp.4.4
   GGA_COMPAT  = T    GGA compatible to vasp.4.4-vasp.4.6
   LMAXPAW     = -100 max onsite density
   LMAXMIX     =    2 max onsite mixed and CHGCAR
   VOSKOWN=      0    Vosko Wilk Nusair interpolation
   ROPT   =    0.00000   0.00000
 Ionic relaxation
   EDIFFG = -.1E-01   stopping-criterion for IOM
   NSW    =      0    number of steps for IOM
   NBLOCK =      1;   KBLOCK =      1    inner block; outer block 
   IBRION =     -1    ionic relax: 0-MD 1-quasi-New 2-CG
   NFREE  =      0    steps in history (QN), initial steepest desc. (CG)
   ISIF   =      2    stress and relaxation
   IWAVPR =     10    prediction:  0-non 1-charg 2-wave 3-comb
   ISYM   =      1    0-nonsym 1-usesym 2-fastsym
   LCORR  =      T    Harris-Foulkes like correction to forces

   POTIM  = 0.5000    time-step for ionic-motion
   TEIN   =    0.0    initial temperature
   TEBEG  =    0.0;   TEEND  =   0.0 temperature during run
   SMASS  =  -3.00    Nose mass-parameter (am)
   estimated Nose-frequenzy (Omega)   =  0.10E-29 period in steps = 0.13E+47 mass=  -0.485E-26a.u.
   SCALEE = 1.0000    scale energy and forces
   NPACO  =    256;   APACO  = 10.0  distance and # of slots for P.C.
   PSTRESS=    0.0 pullay stress

  Mass of Ions in am
   POMASS =   1.00 28.09
  Ionic Valenz
   ZVAL   =   1.00  4.00
  Atomic Wigner-Seitz radii
   RWIGS  =  -1.00 -1.00
  virtual crystal weights 
   VCA    =   1.00  1.00
   NELECT =     370.0000    total number of electrons
   NUPDOWN=      -1.0000    fix difference up-down

 DOS related values:
   EMIN   =  10.00;   EMAX   =-10.00  energy-range for DOS
   EFERMI =   0.00;   METHOD = LEGACY      
   ISMEAR =     0;   SIGMA  =   0.10  broadening in eV -4-tet -1-fermi 0-gaus
   EFERMI_NEDOS =   21; number of points for ismear=-14 and -15

 Electronic relaxation 2 (details)
   IALGO  =     38    algorithm
   LDIAG  =      F    sub-space diagonalisation (order eigenvalues)
   LSUBROT=      F    optimize rotation matrix (better conditioning)
   TURBO    =      0    0=normal 1=particle mesh
   IRESTART =      0    0=no restart 2=restart with 2 vectors
   NREBOOT  =      0    no. of reboots
   NMIN     =      0    reboot dimension
   EREF     =   0.00    reference energy to select bands
   IMIX   =      4    mixing-type and parameters
     AMIX     =   0.40;   BMIX     =  1.00
     AMIX_MAG =   1.60;   BMIX_MAG =  1.00
     AMIN     =   0.10
     WC   =   100.;   INIMIX=   1;  MIXPRE=   1;  MAXMIX= -45

 Intra band minimization:
   WEIMIN = 0.0000     energy-eigenvalue tresh-hold
   EBREAK =  0.10E-08  absolut break condition
   DEPER  =   0.30     relativ break condition  

   TIME   =   0.40     timestep for ELM

  volume/ion in A,a.u.               =      63.37       427.66
  Fermi-wavevector in a.u.,A,eV,Ry     =   0.648333  1.225173  5.719022  0.420336
  Thomas-Fermi vector in A             =   1.716932

 Write flags
   LWAVE        =      F    write WAVECAR
   LDOWNSAMPLE  =      F    k-point downsampling of WAVECAR
   LCHARG       =      F    write CHGCAR
   LVTOT        =      F    write LOCPOT, total local potential
   LVHAR        =      F    write LOCPOT, Hartree potential only
   WRT_POTENTIAL= false  ! write potential to hdf5 file
   LELF         =      F    write electronic localiz. function (ELF)
   LORBIT       =     11    0 simple, 1 ext, 2 COOP (PROOUT), +10 PAW based schemes


 Python interface
   PLUGINS active      =      F    recompile with -DPLUGINS to activate

 Dipole corrections
   LMONO      =      F    monopole corrections only (constant potential shift)
   LDIPOL     =      F    correct potential (dipole corrections)
   IDIPOL     =      0    1-x, 2-y, 3-z, 4-all directions 
   EPSILON    =  1.0000000 bulk dielectric constant
   LVACPOTAV  =      F  vacuum potentials using an averaging scheme for the charge density
   VACPOTFLAT =  0.1000000 required flatness to determine vacuum potential

Coulomb truncation method
  LTRUNCATE          =      F  Coulomb kernel truncation to be used
  IDIMENSIONALITY    =      3  Dimensionality of cutoff (0 molecules / 2 surfaces)
  ISURFACE           =     -1  Direction of surface normal
  LCOARSEN           =      F  Coarsen the charge grid before padding, preferred


 Exchange correlation treatment:
   METAGGA = SCAN    functional components
   XC_C    = 1    coefficients multiplying the functional components
   LIBXC   =     F    Libxc                    
   VOSKOWN =     0    Vosko Wilk Nusair interpolation
   LHFCALC =     F    Hartree Fock is set to
   LHFONE  =     F    Hartree Fock one center treatment
   AEXX    =    0.0000 exact exchange contribution

 Parameters of functionals:
   SCAN:
     P1 =  0.000000E+00
     P2 =  0.000000E+00
     P3 =  0.000000E+00

 Accuracy and mixing parameters for tau-dependent meta-GGA functionals:
   LMAXTAU = 6
   LMIXTAU = T

 Van der Waals corrections
   IVDW    =     0    specifies the selected vdW correction

 Linear response parameters
   LEPSILON=     F    determine dielectric tensor
   LRPA    =     F    only Hartree local field effects (RPA)
   LNABLA  =     F    use nabla operator in PAW spheres
   LVEL    =     F    velocity operator in full k-point grid
   CSHIFT  =0.1000    complex shift for real part using Kramers Kronig
   OMEGAMAX=  -1.0    maximum frequency
   DEG_THRESHOLD= 0.2000000E-02 threshold for treating states as degnerate
   RTIME   =   -0.100 relaxation time in fs
  (WPLASMAI=    0.000 imaginary part of plasma frequency in eV, 0.658/RTIME)
   DFIELD  = 0.0000000 0.0000000 0.0000000 field for delta impulse in time

  Optional k-point grid parameters
   LKPOINTS_OPT  =     F    use optional k-point grid
   KPOINTS_OPT_MODE=     1    mode for optional k-point grid

 Orbital magnetization related:
   ORBITALMAG=     F  switch on orbital magnetization
   LCHIMAG   =     F  perturbation theory with respect to B field
   DQ        =  0.001000  dq finite difference perturbation B field
   LLRAUG    =     F  two centre corrections for induced B field
   LBONE     =     F  B-component reconstruction in AE one-centre
   LVGVCALC  =     T  calculate vGv susceptibility
   LVGVAPPL  =     F  apply vGv susceptibility instead of pGv for G=0

 Random number generation:
   RANDOM_GENERATOR = DEFAULT
   PCG_SEED         = not used


--------------------------------------------------------------------------------------------------------


 Static calculation
 charge density and potential will be updated during run
 non-spin polarized calculation
 Variant of blocked Davidson
 perform Loewdin sub-space diagonalisation
    ordering is kept fixed
    before iterative eigenvector-optimisation
 modified Broyden-mixing scheme, WC =      100.0
 initial mixing is a Kerker type mixing with AMIX =  0.4000 and BMIX =      1.0000
 Hartree-type preconditioning will be used
 using additional bands           55
 reciprocal scheme for non local part
 use partial core corrections
 calculate Harris-corrections to forces   (improved forces if not selfconsistent)
 use gradient corrections 
 use of overlap-Matrix (Vanderbilt PP)
 Gauss-broadening in eV      SIGMA  =   0.10


--------------------------------------------------------------------------------------------------------


  energy-cutoff  :     1200.00
  volume of cell :     5957.05
      direct lattice vectors                 reciprocal lattice vectors
    14.572249211  0.000000000  0.000000000     0.068623586  0.000000000  0.000000000
     0.000000000 14.572249211  0.000000000     0.000000000  0.068623586  0.000000000
     0.000000000  0.000000000 28.052898100     0.000000000  0.000000000  0.035646941

  length of vectors
    14.572249211 14.572249211 28.052898100     0.068623586  0.068623586  0.035646941



 old parameters found on file WAVECAR:
  energy-cutoff  :     1200.00
  volume of cell :     5957.05
      direct lattice vectors                 reciprocal lattice vectors
    14.572249211  0.000000000  0.000000000     0.068623586  0.000000000  0.000000000
     0.000000000 14.572249211  0.000000000     0.000000000  0.068623586  0.000000000
     0.000000000  0.000000000 28.052898100     0.000000000  0.000000000  0.035646941

  length of vectors


 k-points in units of 2pi/SCALE and weight: read from INCAR                         
   0.00000000  0.00000000  0.00000000       0.250
   0.03431179  0.00000000  0.00000000       0.250
   0.00000000  0.03431179  0.00000000       0.250
   0.03431179  0.03431179  0.00000000       0.250

 k-points in reciprocal lattice and weights: read from INCAR                         
   0.00000000  0.00000000  0.00000000       0.250
   0.50000000  0.00000000  0.00000000       0.250
   0.00000000  0.50000000  0.00000000       0.250
   0.50000000  0.50000000  0.00000000       0.250

 position of ions in fractional coordinates (direct lattice) 
   0.13418915  0.05360116  0.47541277
   0.94767976  0.26640565  0.51852700
   0.42518147  0.60812741  0.61227780
   0.76039814  0.85006511  0.63606755
   0.65222259  0.94499628  0.59758256
   0.27799601  0.45728152  0.45991095
   0.09050609  0.24462492  0.62268160
   0.78849834  0.19076300  0.59406834
   0.56427311  0.79537120  0.44868038
   0.56838572  0.14926580  0.36365103
   0.16221455  0.01419398  0.42810855
   0.83582247  0.87791509  0.39783032
   0.59120902  0.35904573  0.42305323
   0.06248449  0.65268220  0.42689898
   0.70085519  0.95743545  0.38539024
   0.29912403  0.39482710  0.58797498
   0.17827169  0.03595399  0.57885907
   0.52075052  0.20913030  0.60349305
   0.63871305  0.51639144  0.42252752
   0.54504279  0.19146773  0.52190133
   0.01315785  0.37874837  0.61201650
   0.42221649  0.45409920  0.63510197
   0.14439824  0.45698312  0.57965025
   0.04167848  0.12111218  0.57805381
   0.55875370  0.45318537  0.54141654
   0.70854114  0.70277440  0.61557127
   0.45222798  0.06481979  0.39876896
   0.92227624  0.94830209  0.45673401
   0.10590586  0.29998133  0.39123682
   0.52913446  0.83926484  0.58907646
   0.92015822  0.60801108  0.53801802
   0.72865463  0.28679933  0.45353655
   0.83324459  0.71465061  0.49447786
   0.68764880  0.78865414  0.39122513
   0.39303979  0.91605048  0.38212856
   0.21778101  0.43496527  0.38456059
   0.24615956  0.25877290  0.61605691
   0.12821894  0.28311361  0.47224490
   0.13174423  0.43904404  0.49799259
   0.30626068  0.01338563  0.63268559
   0.25271187  0.78696805  0.48256251
   0.84956168  0.34808067  0.58026778
   0.71783135  0.94592624  0.52164100
   0.29749944  0.11434620  0.54083311
   0.03243800  0.82800177  0.61441369
   0.09516158  0.76958560  0.48383609
   0.00409075  0.53129840  0.47376349
   0.19402678  0.15660755  0.38183669
   0.16164630  0.61281539  0.58099043
   0.70304521  0.66353875  0.53230165
   0.78917422  0.54501989  0.39407694
   0.04010798  0.70674810  0.56002779
   0.56090325  0.37583422  0.61412447
   0.89482824  0.44528420  0.43345323
   0.19534930  0.59754408  0.38874594
   0.54869880  0.70857136  0.63548458
   0.28213932  0.67887301  0.61774901
   0.14442020  0.88470165  0.56534068
   0.68820566  0.51098346  0.50450818
   0.70202397  0.19762603  0.52130543
   0.89358245  0.89891342  0.59754051
   0.80519064  0.39934166  0.49939035
   0.01220903  0.19121016  0.50405244
   0.38747768  0.91085079  0.58001474
   0.36619684  0.15835750  0.61359616
   0.48299614  0.27983403  0.37399499
   0.55749717  0.72969397  0.52516277
   0.82820911  0.20186813  0.40409254
   0.79264203  0.57102398  0.59603211
   0.27768529  0.22094142  0.47996694
   0.72857608  0.42734588  0.61921728
   0.85379941  0.86583326  0.51820804
   0.50537464  0.33732920  0.49227500
   0.37978947  0.99334446  0.50915727
   0.44568742  0.76061202  0.39583340
   0.89364160  0.06241338  0.58958451
   0.05485734  0.88623028  0.42956237
   0.96799492  0.76941784  0.38396810
   0.72087938  0.10955154  0.35812915
   0.34939765  0.19060273  0.40446689
   0.61922209  0.94555963  0.45769122
   0.82105212  0.70099388  0.41119021
   0.29434975  0.92763832  0.44715972
   0.64835133  0.11050868  0.61566817
   0.80456140  0.07853675  0.51922953
   0.34914447  0.35062281  0.50817717
   0.94256869  0.31590990  0.38963950
   0.90654441  0.10688687  0.45798398
   0.28042594  0.79915545  0.56499075
   0.47106462  0.59143981  0.53319300
   0.39154369  0.57060607  0.46128592
   0.31358749  0.68839754  0.42647847
   0.50962796  0.05735059  0.47690934
   0.50330442  0.59949296  0.40152019

 position of ions in cartesian coordinates  (Angst):
   1.95543771  0.78108953 13.33670586
  13.80982563  3.88212946 14.54618521
   6.19585036  8.86178411 17.17616687
  11.08071118 12.38736065 17.84353821
   9.50435009 13.77072126 16.76392256
   4.05102707  6.66362027 12.90183515
   1.31887728  3.56473533 17.46802351
  11.49019427  2.77984594 16.66533874
   8.22272843 11.59034731 12.58678489
   8.28265841  2.17513850 10.20146525
   2.36383086  0.20683823 12.00968550
  12.17981337 12.79319751 11.16029355
   8.61524517  5.23210382 11.86786915
   0.91053960  9.51104771 11.97575361
  10.21303642 13.95198801 10.81131303
   4.35890997  5.75351894 16.49440226
   2.59781949  0.52393050 16.23867453
   7.58850640  3.04749882 16.92972902
   9.30748571  7.52498469 11.85312136
   7.94249930  2.79011553 14.64084485
   0.19173946  5.51921568 17.16883652
   6.15264397  6.61724672 17.81645086
   2.10420717  6.65927191 16.26086942
   0.60734914  1.76487684 16.21608453
   8.14229820  6.60393022 15.18830290
  10.32503808 10.24100366 17.26855813
   6.58997879  0.94457008 11.18662501
  13.43963924 13.81889436 12.81271269
   1.54328660  4.37140268 10.97532672
   7.71067920 12.22997645 16.52530194
  13.40877486  8.86008896 15.09296467
  10.61813681  4.17931127 12.72301463
  12.14224780 10.41406681 13.87153709
  10.02058973 11.49246468 10.97499870
   5.72747379 13.34891589 10.71981346
   3.17355909  6.33842226 10.78803917
   3.58709845  3.77090316 17.28218174
   1.86843835  4.12560202 13.24783812
   1.91980981  6.39785922 13.97013542
   4.46290691  0.19505874 17.74866438
   3.68258038 11.46789460 13.53727695
  12.38002447  5.07231821 16.27819279
  10.46041732 13.78427284 14.63354168
   4.33523595  1.66628137 15.17193610
   0.47269456 12.06584816 17.23608477
   1.38671825 11.21459316 13.57300447
   0.05961146  7.74221265 13.29043884
   2.82740653  2.28212418 10.71162570
   2.35555013  8.93009854 16.29846544
  10.24495007  9.66925207 14.93260387
  11.50004340  7.94216565 11.05500026
   0.58446346 10.29890944 15.71040251
   8.17362196  5.47674988 17.22797112
  13.03966017  6.48879235 12.15961940
   2.84667871  8.70756129 10.90545020
   7.99577560 10.32547849 17.82718407
   4.11140452  9.89270669 17.32964989
   2.10452710 12.89209287 15.85944461
  10.02870441  7.44617834 14.15291665
  10.23006831  2.87985579 14.62412801
  13.02150615 13.09919041 16.76274317
  11.73343872  5.81930623 14.00934647
   0.17791304  2.78636208 14.14013170
   5.64642127 13.27314477 16.27109444
   5.33631158  2.30762495 17.21315050
   7.03834013  4.07781121 10.49164340
   8.12398772 10.63328237 14.73233774
  12.06886954  2.94167271 11.33596676
  11.55057724  8.32110372 16.72042799
   4.04649921  3.21961343 13.46446363
  10.61699222  6.22739065 17.37083918
  12.44177782 12.61713805 14.53723736
   7.36444514  4.91564513 13.80974042
   5.53438682 14.47526301 14.28333702
   6.49466822 11.08382792 11.10427393
  13.02236806  0.90950330 16.53955420
   0.79939477 12.91436849 12.05046947
  14.10586323 11.21214857 10.77141796
  10.50483393  1.59641241 10.04656067
   5.09150966  2.77751050 11.34646850
   9.02345854 13.77893051 12.83956521
  11.96457615 10.21505748 11.53507705
   4.28933793 13.51777680 12.54412611
   9.44793720  1.61035996 17.27127638
  11.72426923  1.14445715 14.56589308
   5.08782017  5.10936302 14.25584246
  13.73534582  4.60351785 10.93051715
  13.21039113  1.55758217 12.84777791
   4.08643669 11.64549244 15.84962790
   6.86447098  8.61860828 14.95760893
   5.70567229  8.31501390 12.94040688
   4.56967505 10.03150046 11.96395697
   7.42642559  0.83572715 13.37868916
   7.33427740  8.73596086 11.26380502



--------------------------------------------------------------------------------------------------------


 k-point     1 :   0.0000 0.0000 0.0000  plane waves:  562271
 k-point     2 :   0.5000 0.0000 0.0000  plane waves:  562462
 k-point     3 :   0.0000 0.5000 0.0000  plane waves:  562462
 k-point     4 :   0.5000 0.5000 0.0000  plane waves:  562356

 maximum and minimum number of plane-waves per node :     35205    35082

 maximum number of plane-waves:    562462
 maximum index in each direction: 
   IXMAX=   41   IYMAX=   41   IZMAX=   79
   IXMIN=  -41   IYMIN=  -41   IZMIN=  -79


 parallel 3D FFT for wavefunctions:
    minimum data exchange during FFTs selected (reduces bandwidth)
 parallel 3D FFT for charge:
    minimum data exchange during FFTs selected (reduces bandwidth)


 total amount of memory used by VASP MPI-rank0   361480. kBytes
=======================================================================

   base                                    :      30000. kBytes
   nonl-proj                               :      70947. kBytes
   fftplans                                :     108864. kBytes
   grid                                    :      83991. kBytes
   one-center                              :         18. kBytes
   wavefun                                 :      67660. kBytes

     INWAV:  cpu time     20.2244: real time     20.2364
 Broyden mixing: mesh for mixing (old mesh)
   NGX = 83   NGY = 83   NGZ =159
  (NGX  =336   NGY  =336   NGZ  =640)
  gives a total of ****** points

 initial charge density was supplied:
 number of electron     369.9999999 magnetization 
 keeping initial charge density in first step


--------------------------------------------------------------------------------------------------------


 Maximum index for augmentation-charges        11176 (set IRDMAX)


--------------------------------------------------------------------------------------------------------


 First call to EWALD:  gamma=   0.098
 Maximum number of real-space cells   3x   3x   2
 Maximum number of reciprocal cells   2x   2x   4

    FEWALD:  cpu time      0.0136: real time      0.0136


--------------------------------------- Ionic step        1  -------------------------------------------




--------------------------------------- Iteration      1(   1)  ---------------------------------------


    POTLOK:  cpu time      2.1692: real time      2.1703
    SETDIJ:  cpu time      1.6454: real time      1.6465
    EDDIAG:  cpu time     40.0668: real time     40.0889
     EDDAV:  cpu time    183.8569: real time    183.9457
       DOS:  cpu time      0.0071: real time      0.0073
    CHARGE:  cpu time     23.2515: real time     23.2714
    MIXING:  cpu time      0.0491: real time      0.0499
    --------------------------------------------
      LOOP:  cpu time    251.0460: real time    251.1801

 eigenvalue-minimisations  :  1920
 total energy-change (2. order) :-0.9356556E+03  (-0.1023234E+01)
 number of electron     369.9999999 magnetization 
 augmentation part      -20.8363995 magnetization 

 Broyden mixing:
  rms(total) = 0.11796E+01    rms(broyden)= 0.27190E+02
  rms(prec ) = 0.12117E+01
  weight for this iteration     100.00
  WARNING: grid for Broyden might be to small

 Free energy of the ion-electron system (eV)
  ---------------------------------------------------
  alpha Z        PSCENC =        48.39244712
  Ewald energy   TEWEN  =     58109.43273517
  -Hartree energ DENC   =    -66553.03551601
  -exchange      EXHF   =         0.00000000
  -V(xc)+E(xc)   XCENC  =      -448.18966805
  PAW double counting   =     34016.47201572   -33099.02576877
  entropy T*S    EENTRO =        -0.20245915
  eigenvalues    EBANDS =     -2516.62497282
  atomic energy  EATOM  =      9507.12561560
  Solvation  Ediel_sol  =         0.00000000
  ---------------------------------------------------
  free energy    TOTEN  =      -935.65557119 eV

  energy without entropy =     -935.45311205  energy(sigma->0) =     -935.55434162


--------------------------------------------------------------------------------------------------------




--------------------------------------- Iteration      1(   2)  ---------------------------------------


    POTLOK:  cpu time      2.1337: real time      2.1526
    SETDIJ:  cpu time      1.6376: real time      1.6383
    EDDIAG:  cpu time     40.0991: real time     40.1215
     EDDAV:  cpu time    185.5205: real time    185.6134
       DOS:  cpu time      0.0041: real time      0.0041
    CHARGE:  cpu time     23.1641: real time     23.1829
    MIXING:  cpu time      0.0428: real time      0.0428
    --------------------------------------------
      LOOP:  cpu time    252.6019: real time    252.7555

 eigenvalue-minimisations  :  1952
 total energy-change (2. order) : 0.6533061E+02  (-0.9788980E+00)
 number of electron     369.9999999 magnetization 
 augmentation part      -20.7401173 magnetization 

 Broyden mixing:
  rms(total) = 0.79976E+00    rms(broyden)= 0.15700E+02
  rms(prec ) = 0.81610E+00
  weight for this iteration     100.00
  WARNING: grid for Broyden might be to small

 eigenvalues of (default mixing * dielectric matrix)
  average eigenvalue GAMMA=   0.6340
  0.6340

 Free energy of the ion-electron system (eV)
  ---------------------------------------------------
  alpha Z        PSCENC =        48.39244712
  Ewald energy   TEWEN  =     58109.43273517
  -Hartree energ DENC   =    -66540.22177019
  -exchange      EXHF   =         0.00000000
  -V(xc)+E(xc)   XCENC  =      -438.23241666
  PAW double counting   =     40684.43685821   -39766.77126767
  entropy T*S    EENTRO =        -0.19468463
  eigenvalues    EBANDS =     -2474.29247785
  atomic energy  EATOM  =      9507.12561560
  Solvation  Ediel_sol  =         0.00000000
  ---------------------------------------------------
  free energy    TOTEN  =      -870.32496092 eV

  energy without entropy =     -870.13027629  energy(sigma->0) =     -870.22761861


--------------------------------------------------------------------------------------------------------




--------------------------------------- Iteration      1(   3)  ---------------------------------------


    POTLOK:  cpu time      2.1355: real time      2.1514
    SETDIJ:  cpu time      1.6394: real time      1.6407
    EDDIAG:  cpu time     40.0675: real time     40.0926
     EDDAV:  cpu time    184.7067: real time    184.7998
       DOS:  cpu time      0.0025: real time      0.0025
    CHARGE:  cpu time     23.1673: real time     23.1872
    MIXING:  cpu time      0.0412: real time      0.0412
    --------------------------------------------
      LOOP:  cpu time    251.7602: real time    251.9155

 eigenvalue-minimisations  :  1936
 total energy-change (2. order) :-0.3749805E+01  (-0.8041077E+00)
 number of electron     369.9999999 magnetization 
 augmentation part      -20.6685266 magnetization 

 Broyden mixing:
  rms(total) = 0.31376E+00    rms(broyden)= 0.24653E+02
  rms(prec ) = 0.40139E+00
  weight for this iteration     100.00
  WARNING: grid for Broyden might be to small

 eigenvalues of (default mixing * dielectric matrix)
  average eigenvalue GAMMA=   0.7897
  0.9532  0.6262

 Free energy of the ion-electron system (eV)
  ---------------------------------------------------
  alpha Z        PSCENC =        48.39244712
  Ewald energy   TEWEN  =     58109.43273517
  -Hartree energ DENC   =    -66541.08430601
  -exchange      EXHF   =         0.00000000
  -V(xc)+E(xc)   XCENC  =      -442.22042945
  PAW double counting   =     48861.92028860   -47944.39526891
  entropy T*S    EENTRO =        -0.19215086
  eigenvalues    EBANDS =     -2473.05369758
  atomic energy  EATOM  =      9507.12561560
  Solvation  Ediel_sol  =         0.00000000
  ---------------------------------------------------
  free energy    TOTEN  =      -874.07476632 eV

  energy without entropy =     -873.88261545  energy(sigma->0) =     -873.97869088


--------------------------------------------------------------------------------------------------------




--------------------------------------- Iteration      1(   4)  ---------------------------------------


    POTLOK:  cpu time      2.1450: real time      2.1643
    SETDIJ:  cpu time      1.6407: real time      1.6418
    EDDIAG:  cpu time     40.0960: real time     40.1195
     EDDAV:  cpu time    185.6515: real time    185.7469
       DOS:  cpu time      0.0028: real time      0.0028
    CHARGE:  cpu time     23.1689: real time     23.1870
    MIXING:  cpu time      0.0415: real time      0.0415
    --------------------------------------------
      LOOP:  cpu time    252.7463: real time    252.9037

 eigenvalue-minimisations  :  1952
 total energy-change (2. order) : 0.4591390E+00  (-0.8284799E-01)
 number of electron     369.9999999 magnetization 
 augmentation part      -20.6613414 magnetization 

 Broyden mixing:
  rms(total) = 0.65119E-01    rms(broyden)= 0.24369E+01
  rms(prec ) = 0.81755E-01
  weight for this iteration     100.00
  WARNING: grid for Broyden might be to small

 eigenvalues of (default mixing * dielectric matrix)
  average eigenvalue GAMMA=   0.9612
  1.6008  0.6768  0.6060

 Free energy of the ion-electron system (eV)
  ---------------------------------------------------
  alpha Z        PSCENC =        48.39244712
  Ewald energy   TEWEN  =     58109.43273517
  -Hartree energ DENC   =    -66541.65035098
  -exchange      EXHF   =         0.00000000
  -V(xc)+E(xc)   XCENC  =      -443.26252014
  PAW double counting   =     54689.00681975   -53771.51878927
  entropy T*S    EENTRO =        -0.19780103
  eigenvalues    EBANDS =     -2470.94378355
  atomic energy  EATOM  =      9507.12561560
  Solvation  Ediel_sol  =         0.00000000
  ---------------------------------------------------
  free energy    TOTEN  =      -873.61562733 eV

  energy without entropy =     -873.41782630  energy(sigma->0) =     -873.51672682


--------------------------------------------------------------------------------------------------------




--------------------------------------- Iteration      1(   5)  ---------------------------------------


    POTLOK:  cpu time      2.1288: real time      2.1470
    SETDIJ:  cpu time      1.6304: real time      1.6316
    EDDIAG:  cpu time     40.1407: real time     40.1608
     EDDAV:  cpu time    208.7037: real time    208.8056
       DOS:  cpu time      0.0022: real time      0.0022
    CHARGE:  cpu time     23.1418: real time     23.1617
    MIXING:  cpu time      0.0417: real time      0.0418
    --------------------------------------------
      LOOP:  cpu time    275.7894: real time    275.9505

 eigenvalue-minimisations  :  2376
 total energy-change (2. order) :-0.4104376E-01  (-0.1258560E-01)
 number of electron     369.9999999 magnetization 
 augmentation part      -20.6631554 magnetization 

 Broyden mixing:
  rms(total) = 0.53304E-01    rms(broyden)= 0.57145E+00
  rms(prec ) = 0.71787E-01
  weight for this iteration     100.00
  WARNING: grid for Broyden might be to small

 eigenvalues of (default mixing * dielectric matrix)
  average eigenvalue GAMMA=   1.0773
  2.3867  0.8163  0.6263  0.4800

 Free energy of the ion-electron system (eV)
  ---------------------------------------------------
  alpha Z        PSCENC =        48.39244712
  Ewald energy   TEWEN  =     58109.43273517
  -Hartree energ DENC   =    -66542.08672154
  -exchange      EXHF   =         0.00000000
  -V(xc)+E(xc)   XCENC  =      -444.43513357
  PAW double counting   =     54130.16758648   -53212.64538730
  entropy T*S    EENTRO =        -0.19408601
  eigenvalues    EBANDS =     -2469.41372704
  atomic energy  EATOM  =      9507.12561560
  Solvation  Ediel_sol  =         0.00000000
  ---------------------------------------------------
  free energy    TOTEN  =      -873.65667110 eV

  energy without entropy =     -873.46258509  energy(sigma->0) =     -873.55962810


--------------------------------------------------------------------------------------------------------




--------------------------------------- Iteration      1(   6)  ---------------------------------------


    POTLOK:  cpu time      2.1282: real time      2.1476
    SETDIJ:  cpu time      1.6475: real time      1.6486
    EDDIAG:  cpu time     40.1112: real time     40.1355
     EDDAV:  cpu time    197.5962: real time    197.6971
       DOS:  cpu time      0.0036: real time      0.0036
    CHARGE:  cpu time     23.1606: real time     23.1796
    MIXING:  cpu time      0.0423: real time      0.0423
    --------------------------------------------
      LOOP:  cpu time    264.6897: real time    264.8544

 eigenvalue-minimisations  :  2176
 total energy-change (2. order) : 0.1818541E-02  (-0.4666983E-02)
 number of electron     369.9999999 magnetization 
 augmentation part      -20.6626180 magnetization 

 Broyden mixing:
  rms(total) = 0.29764E-01    rms(broyden)= 0.22946E+00
  rms(prec ) = 0.35165E-01
  weight for this iteration     100.00
  WARNING: grid for Broyden might be to small

 eigenvalues of (default mixing * dielectric matrix)
  average eigenvalue GAMMA=   1.0258
  2.4983  0.9412  0.6455  0.6173  0.4270

 Free energy of the ion-electron system (eV)
  ---------------------------------------------------
  alpha Z        PSCENC =        48.39244712
  Ewald energy   TEWEN  =     58109.43273517
  -Hartree energ DENC   =    -66541.79568195
  -exchange      EXHF   =         0.00000000
  -V(xc)+E(xc)   XCENC  =      -444.69292068
  PAW double counting   =     53961.64270057   -53044.10424355
  entropy T*S    EENTRO =        -0.19551417
  eigenvalues    EBANDS =     -2469.45999068
  atomic energy  EATOM  =      9507.12561560
  Solvation  Ediel_sol  =         0.00000000
  ---------------------------------------------------
  free energy    TOTEN  =      -873.65485256 eV

  energy without entropy =     -873.45933839  energy(sigma->0) =     -873.55709547


--------------------------------------------------------------------------------------------------------




--------------------------------------- Iteration      1(   7)  ---------------------------------------


    POTLOK:  cpu time      2.1313: real time      2.1503
    SETDIJ:  cpu time      1.6351: real time      1.6357
    EDDIAG:  cpu time     40.1397: real time     40.1615
     EDDAV:  cpu time    188.7369: real time    188.8341
       DOS:  cpu time      0.0020: real time      0.0020
    CHARGE:  cpu time     23.1569: real time     23.1764
    MIXING:  cpu time      0.0429: real time      0.0430
    --------------------------------------------
      LOOP:  cpu time    255.8450: real time    256.0030

 eigenvalue-minimisations  :  2016
 total energy-change (2. order) :-0.7060563E-03  (-0.1727145E-02)
 number of electron     369.9999999 magnetization 
 augmentation part      -20.6619415 magnetization 

 Broyden mixing:
  rms(total) = 0.20424E-01    rms(broyden)= 0.16772E+00
  rms(prec ) = 0.23586E-01
  weight for this iteration     100.00
  WARNING: grid for Broyden might be to small

 eigenvalues of (default mixing * dielectric matrix)
  average eigenvalue GAMMA=   0.9573
  2.5428  1.0949  0.7188  0.6244  0.4570  0.3060

 Free energy of the ion-electron system (eV)
  ---------------------------------------------------
  alpha Z        PSCENC =        48.39244712
  Ewald energy   TEWEN  =     58109.43273517
  -Hartree energ DENC   =    -66541.62547739
  -exchange      EXHF   =         0.00000000
  -V(xc)+E(xc)   XCENC  =      -444.63604912
  PAW double counting   =     53937.30870047   -53019.75679319
  entropy T*S    EENTRO =        -0.19803864
  eigenvalues    EBANDS =     -2469.69869862
  atomic energy  EATOM  =      9507.12561560
  Solvation  Ediel_sol  =         0.00000000
  ---------------------------------------------------
  free energy    TOTEN  =      -873.65555861 eV

  energy without entropy =     -873.45751997  energy(sigma->0) =     -873.55653929


--------------------------------------------------------------------------------------------------------




--------------------------------------- Iteration      1(   8)  ---------------------------------------


    POTLOK:  cpu time      2.1498: real time      2.1655
    SETDIJ:  cpu time      1.6399: real time      1.6406
    EDDIAG:  cpu time     40.1511: real time     40.1750
     EDDAV:  cpu time    187.6128: real time    187.7058
       DOS:  cpu time      0.0023: real time      0.0024
    CHARGE:  cpu time     23.1602: real time     23.1805
    MIXING:  cpu time      0.0437: real time      0.0437
    --------------------------------------------
      LOOP:  cpu time    254.7598: real time    254.9135

 eigenvalue-minimisations  :  1992
 total energy-change (2. order) :-0.9915707E-03  (-0.8745881E-03)
 number of electron     369.9999999 magnetization 
 augmentation part      -20.6593696 magnetization 

 Broyden mixing:
  rms(total) = 0.76813E-02    rms(broyden)= 0.11060E+00
  rms(prec ) = 0.95993E-02
  weight for this iteration     100.00
  WARNING: grid for Broyden might be to small

 eigenvalues of (default mixing * dielectric matrix)
  average eigenvalue GAMMA=   0.9760
  2.5499  1.3510  0.8696  0.6509  0.6297  0.4621  0.3188

 Free energy of the ion-electron system (eV)
  ---------------------------------------------------
  alpha Z        PSCENC =        48.39244712
  Ewald energy   TEWEN  =     58109.43273517
  -Hartree energ DENC   =    -66541.28173754
  -exchange      EXHF   =         0.00000000
  -V(xc)+E(xc)   XCENC  =      -444.40410236
  PAW double counting   =     53956.21461960   -53038.64327151
  entropy T*S    EENTRO =        -0.19665443
  eigenvalues    EBANDS =     -2470.29620183
  atomic energy  EATOM  =      9507.12561560
  Solvation  Ediel_sol  =         0.00000000
  ---------------------------------------------------
  free energy    TOTEN  =      -873.65655018 eV

  energy without entropy =     -873.45989576  energy(sigma->0) =     -873.55822297


--------------------------------------------------------------------------------------------------------




--------------------------------------- Iteration      1(   9)  ---------------------------------------


    POTLOK:  cpu time      2.1502: real time      2.1514
    SETDIJ:  cpu time      1.6387: real time      1.6396
    EDDIAG:  cpu time     40.1234: real time     40.1474
     EDDAV:  cpu time    190.8963: real time    190.9962
       DOS:  cpu time      0.0021: real time      0.0021
    CHARGE:  cpu time     23.1617: real time     23.1828
    MIXING:  cpu time      0.0443: real time      0.0443
    --------------------------------------------
      LOOP:  cpu time    258.0167: real time    258.1638

 eigenvalue-minimisations  :  2048
 total energy-change (2. order) :-0.3127690E-04  (-0.1986603E-03)
 number of electron     369.9999999 magnetization 
 augmentation part      -20.6596792 magnetization 

 Broyden mixing:
  rms(total) = 0.32133E-02    rms(broyden)= 0.38773E-01
  rms(prec ) = 0.37542E-02
  weight for this iteration     100.00
  WARNING: grid for Broyden might be to small

 eigenvalues of (default mixing * dielectric matrix)
  average eigenvalue GAMMA=   1.0261
  2.5475  1.8543  1.0128  0.7369  0.6221  0.6221  0.4759  0.3375

 Free energy of the ion-electron system (eV)
  ---------------------------------------------------
  alpha Z        PSCENC =        48.39244712
  Ewald energy   TEWEN  =     58109.43273517
  -Hartree energ DENC   =    -66540.93584282
  -exchange      EXHF   =         0.00000000
  -V(xc)+E(xc)   XCENC  =      -444.42290010
  PAW double counting   =     53985.21186757   -53067.63606566
  entropy T*S    EENTRO =        -0.19667880
  eigenvalues    EBANDS =     -2470.62775955
  atomic energy  EATOM  =      9507.12561560
  Solvation  Ediel_sol  =         0.00000000
  ---------------------------------------------------
  free energy    TOTEN  =      -873.65658146 eV

  energy without entropy =     -873.45990267  energy(sigma->0) =     -873.55824206


--------------------------------------------------------------------------------------------------------




--------------------------------------- Iteration      1(  10)  ---------------------------------------


    POTLOK:  cpu time      2.1273: real time      2.1475
    SETDIJ:  cpu time      1.6374: real time      1.6382
    EDDIAG:  cpu time     40.1092: real time     40.1330
     EDDAV:  cpu time    190.9953: real time    191.0909
       DOS:  cpu time      0.0020: real time      0.0020
    CHARGE:  cpu time     23.1399: real time     23.1585
    MIXING:  cpu time      0.0451: real time      0.0451
    --------------------------------------------
      LOOP:  cpu time    258.0561: real time    258.2149

 eigenvalue-minimisations  :  2056
 total energy-change (2. order) : 0.1107261E-03  (-0.8463034E-04)
 number of electron     369.9999999 magnetization 
 augmentation part      -20.6599249 magnetization 

 Broyden mixing:
  rms(total) = 0.19365E-02    rms(broyden)= 0.20390E-01
  rms(prec ) = 0.22327E-02
  weight for this iteration     100.00
  WARNING: grid for Broyden might be to small

 eigenvalues of (default mixing * dielectric matrix)
  average eigenvalue GAMMA=   1.0491
  2.5286  2.3635  1.0842  0.8694  0.6654  0.6299  0.3581  0.4715  0.4715

 Free energy of the ion-electron system (eV)
  ---------------------------------------------------
  alpha Z        PSCENC =        48.39244712
  Ewald energy   TEWEN  =     58109.43273517
  -Hartree energ DENC   =    -66540.66499997
  -exchange      EXHF   =         0.00000000
  -V(xc)+E(xc)   XCENC  =      -444.45446920
  PAW double counting   =     53994.47566916   -53076.89885385
  entropy T*S    EENTRO =        -0.19690378
  eigenvalues    EBANDS =     -2470.86771099
  atomic energy  EATOM  =      9507.12561560
  Solvation  Ediel_sol  =         0.00000000
  ---------------------------------------------------
  free energy    TOTEN  =      -873.65647074 eV

  energy without entropy =     -873.45956696  energy(sigma->0) =     -873.55801885


--------------------------------------------------------------------------------------------------------




--------------------------------------- Iteration      1(  11)  ---------------------------------------


    POTLOK:  cpu time      2.1282: real time      2.1491
    SETDIJ:  cpu time      1.6300: real time      1.6311
    EDDIAG:  cpu time     40.1432: real time     40.1660
     EDDAV:  cpu time    194.7733: real time    194.8736
       DOS:  cpu time      0.0057: real time      0.0057
    CHARGE:  cpu time     23.1417: real time     23.1588
    MIXING:  cpu time      0.0463: real time      0.0463
    --------------------------------------------
      LOOP:  cpu time    261.8684: real time    262.0306

 eigenvalue-minimisations  :  2128
 total energy-change (2. order) :-0.9263308E-04  (-0.2350798E-04)
 number of electron     369.9999999 magnetization 
 augmentation part      -20.6600019 magnetization 

 Broyden mixing:
  rms(total) = 0.10499E-02    rms(broyden)= 0.13481E-01
  rms(prec ) = 0.12547E-02
  weight for this iteration     100.00
  WARNING: grid for Broyden might be to small

 eigenvalues of (default mixing * dielectric matrix)
  average eigenvalue GAMMA=   1.0901
  2.6545  2.6545  1.2532  0.9556  0.3560  0.7033  0.7033  0.6313  0.4599  0.5290

 Free energy of the ion-electron system (eV)
  ---------------------------------------------------
  alpha Z        PSCENC =        48.39244712
  Ewald energy   TEWEN  =     58109.43273517
  -Hartree energ DENC   =    -66540.33385612
  -exchange      EXHF   =         0.00000000
  -V(xc)+E(xc)   XCENC  =      -444.46204522
  PAW double counting   =     53991.21723794   -53073.63892442
  entropy T*S    EENTRO =        -0.19686116
  eigenvalues    EBANDS =     -2471.19291229
  atomic energy  EATOM  =      9507.12561560
  Solvation  Ediel_sol  =         0.00000000
  ---------------------------------------------------
  free energy    TOTEN  =      -873.65656337 eV

  energy without entropy =     -873.45970221  energy(sigma->0) =     -873.55813279


--------------------------------------------------------------------------------------------------------




--------------------------------------- Iteration      1(  12)  ---------------------------------------


    POTLOK:  cpu time      2.1322: real time      2.1495
    SETDIJ:  cpu time      1.6409: real time      1.6419
    EDDIAG:  cpu time     40.0936: real time     40.1132
     EDDAV:  cpu time    187.2211: real time    187.3086
       DOS:  cpu time      0.0045: real time      0.0045
    CHARGE:  cpu time     23.1469: real time     23.1669
    MIXING:  cpu time      0.0468: real time      0.0468
    --------------------------------------------
      LOOP:  cpu time    254.2859: real time    254.4314

 eigenvalue-minimisations  :  1984
 total energy-change (2. order) :-0.1252729E-03  (-0.1845368E-04)
 number of electron     369.9999999 magnetization 
 augmentation part      -20.6600902 magnetization 

 Broyden mixing:
  rms(total) = 0.51036E-03    rms(broyden)= 0.95571E-02
  rms(prec ) = 0.71727E-03
  weight for this iteration     100.00
  WARNING: grid for Broyden might be to small

 eigenvalues of (default mixing * dielectric matrix)
  average eigenvalue GAMMA=   1.1241
  2.7702  2.7702  1.5057  1.0902  0.8975  0.3553  0.4618  0.6960  0.6352  0.6032
  0.5800

 Free energy of the ion-electron system (eV)
  ---------------------------------------------------
  alpha Z        PSCENC =        48.39244712
  Ewald energy   TEWEN  =     58109.43273517
  -Hartree energ DENC   =    -66539.96322348
  -exchange      EXHF   =         0.00000000
  -V(xc)+E(xc)   XCENC  =      -444.47168036
  PAW double counting   =     53985.78638871   -53068.20704475
  entropy T*S    EENTRO =        -0.19688710
  eigenvalues    EBANDS =     -2471.55503954
  atomic energy  EATOM  =      9507.12561560
  Solvation  Ediel_sol  =         0.00000000
  ---------------------------------------------------
  free energy    TOTEN  =      -873.65668864 eV

  energy without entropy =     -873.45980154  energy(sigma->0) =     -873.55824509


--------------------------------------------------------------------------------------------------------




--------------------------------------- Iteration      1(  13)  ---------------------------------------


    POTLOK:  cpu time      2.1356: real time      2.1505
    SETDIJ:  cpu time      1.6310: real time      1.6317
    EDDIAG:  cpu time     40.1465: real time     40.1698
     EDDAV:  cpu time    187.1323: real time    187.2389
       DOS:  cpu time      0.0078: real time      0.0080
    CHARGE:  cpu time     23.1588: real time     23.1770
    MIXING:  cpu time      0.0619: real time      0.0621
    --------------------------------------------
      LOOP:  cpu time    254.2739: real time    254.4381

 eigenvalue-minimisations  :  1984
 total energy-change (2. order) :-0.1136953E-03  (-0.1418536E-04)
 number of electron     369.9999999 magnetization 
 augmentation part      -20.6601538 magnetization 

 Broyden mixing:
  rms(total) = 0.32975E-03    rms(broyden)= 0.42029E-02
  rms(prec ) = 0.49962E-03
  weight for this iteration     100.00
  WARNING: grid for Broyden might be to small

 eigenvalues of (default mixing * dielectric matrix)
  average eigenvalue GAMMA=   1.1222
  2.8171  2.8171  1.6634  1.1729  0.9407  0.3553  0.7127  0.7127  0.4626  0.6251
  0.6251  0.5618

 Free energy of the ion-electron system (eV)
  ---------------------------------------------------
  alpha Z        PSCENC =        48.39244712
  Ewald energy   TEWEN  =     58109.43273517
  -Hartree energ DENC   =    -66539.71080093
  -exchange      EXHF   =         0.00000000
  -V(xc)+E(xc)   XCENC  =      -444.48025128
  PAW double counting   =     53985.62375846   -53068.04449301
  entropy T*S    EENTRO =        -0.19688632
  eigenvalues    EBANDS =     -2471.79892714
  atomic energy  EATOM  =      9507.12561560
  Solvation  Ediel_sol  =         0.00000000
  ---------------------------------------------------
  free energy    TOTEN  =      -873.65680234 eV

  energy without entropy =     -873.45991602  energy(sigma->0) =     -873.55835918


--------------------------------------------------------------------------------------------------------




--------------------------------------- Iteration      1(  14)  ---------------------------------------


    POTLOK:  cpu time      2.1501: real time      2.1529
    SETDIJ:  cpu time      1.6520: real time      1.6543
    EDDIAG:  cpu time     40.1277: real time     40.1520
     EDDAV:  cpu time    187.3489: real time    187.4430
       DOS:  cpu time      0.0027: real time      0.0027
    CHARGE:  cpu time     23.1493: real time     23.1705
    MIXING:  cpu time      0.0486: real time      0.0486
    --------------------------------------------
      LOOP:  cpu time    254.4792: real time    254.6238

 eigenvalue-minimisations  :  1984
 total energy-change (2. order) :-0.1299271E-03  (-0.1401536E-04)
 number of electron     369.9999999 magnetization 
 augmentation part      -20.6602231 magnetization 

 Broyden mixing:
  rms(total) = 0.22259E-03    rms(broyden)= 0.11441E-02
  rms(prec ) = 0.36458E-03
  weight for this iteration     100.00
  WARNING: grid for Broyden might be to small

 eigenvalues of (default mixing * dielectric matrix)
  average eigenvalue GAMMA=   1.1782
  3.1377  2.7113  2.1767  1.4027  1.0526  0.9016  0.3553  0.7194  0.4631  0.6363
  0.6169  0.5717  0.5717

 Free energy of the ion-electron system (eV)
  ---------------------------------------------------
  alpha Z        PSCENC =        48.39244712
  Ewald energy   TEWEN  =     58109.43273517
  -Hartree energ DENC   =    -66539.47700902
  -exchange      EXHF   =         0.00000000
  -V(xc)+E(xc)   XCENC  =      -444.48743314
  PAW double counting   =     53986.83315575   -53069.25436520
  entropy T*S    EENTRO =        -0.19689327
  eigenvalues    EBANDS =     -2472.02518526
  atomic energy  EATOM  =      9507.12561560
  Solvation  Ediel_sol  =         0.00000000
  ---------------------------------------------------
  free energy    TOTEN  =      -873.65693226 eV

  energy without entropy =     -873.46003899  energy(sigma->0) =     -873.55848563


--------------------------------------------------------------------------------------------------------




--------------------------------------- Iteration      1(  15)  ---------------------------------------


    POTLOK:  cpu time      2.1301: real time      2.1481
    SETDIJ:  cpu time      1.6323: real time      1.6329
    EDDIAG:  cpu time     40.1463: real time     40.1707
     EDDAV:  cpu time    188.9995: real time    189.0936
       DOS:  cpu time      0.0043: real time      0.0043
    CHARGE:  cpu time     23.1739: real time     23.1930
    MIXING:  cpu time      0.0492: real time      0.0493
    --------------------------------------------
      LOOP:  cpu time    256.1356: real time    256.2918

 eigenvalue-minimisations  :  2016
 total energy-change (2. order) :-0.1211572E-03  (-0.1363321E-04)
 number of electron     369.9999999 magnetization 
 augmentation part      -20.6602582 magnetization 

 Broyden mixing:
  rms(total) = 0.15898E-03    rms(broyden)= 0.15397E-02
  rms(prec ) = 0.25455E-03
  weight for this iteration     100.00
  WARNING: grid for Broyden might be to small

 eigenvalues of (default mixing * dielectric matrix)
  average eigenvalue GAMMA=   1.1972
  3.3230  2.6873  2.4604  1.4613  1.0508  0.9369  0.8708  0.3553  0.7697  0.4633
  0.6285  0.6285  0.5623  0.5623

 Free energy of the ion-electron system (eV)
  ---------------------------------------------------
  alpha Z        PSCENC =        48.39244712
  Ewald energy   TEWEN  =     58109.43273517
  -Hartree energ DENC   =    -66539.24545682
  -exchange      EXHF   =         0.00000000
  -V(xc)+E(xc)   XCENC  =      -444.49046861
  PAW double counting   =     53986.59238584   -53069.01389459
  entropy T*S    EENTRO =        -0.19687342
  eigenvalues    EBANDS =     -2472.25354370
  atomic energy  EATOM  =      9507.12561560
  Solvation  Ediel_sol  =         0.00000000
[...]
   -.175E+02 -.194E+00 0.216E+03   0.174E+02 0.739E+00 -.213E+03   0.128E+00 -.577E+00 -.224E+01   0.834E-04 -.969E-04 -.318E-04
   0.400E+01 -.956E+01 0.335E+03   -.537E+01 0.926E+01 -.333E+03   0.111E+01 0.196E+00 -.163E+01   0.481E-04 -.333E-04 -.315E-04
   0.860E+01 0.818E+01 -.367E+03   -.926E+01 -.584E+01 0.368E+03   0.615E+00 -.236E+01 -.590E+00   -.843E-05 -.887E-05 -.793E-05
   0.151E+02 -.205E+00 -.333E+03   -.173E+02 0.108E+01 0.331E+03   0.171E+01 -.849E+00 0.159E+01   -.258E-04 -.151E-04 -.783E-05
   0.164E+02 -.673E+01 -.167E+03   -.166E+02 0.726E+01 0.170E+03   -.384E-01 -.601E+00 -.288E+01   -.351E-05 0.242E-04 -.402E-04
   -.127E+02 -.271E+01 0.268E+01   0.105E+02 0.169E+01 -.233E+01   0.247E+01 0.106E+01 -.302E+00   -.145E-04 -.181E-04 0.224E-04
   0.115E+01 -.133E+02 -.478E+02   -.181E+01 0.124E+02 0.456E+02   0.639E+00 0.108E+01 0.203E+01   0.167E-04 0.482E-06 -.102E-03
   -.273E+02 0.108E+01 -.281E+03   0.268E+02 -.323E+01 0.279E+03   0.358E+00 0.211E+01 0.115E+01   0.383E-04 0.558E-05 0.684E-05
   -.295E+02 0.118E+01 -.336E+01   0.283E+02 -.193E-01 0.314E+00   0.107E+01 -.105E+01 0.282E+01   0.153E-04 -.386E-04 0.169E-05
   -.146E+02 0.409E+01 0.105E+02   0.130E+02 -.162E+01 -.916E+01   0.170E+01 -.228E+01 -.142E+01   0.888E-04 -.257E-05 -.887E-04
   -.159E+02 0.552E+01 -.230E+03   0.140E+02 -.633E+01 0.228E+03   0.176E+01 0.812E+00 0.228E+01   -.150E-04 -.471E-05 -.559E-04
   -.266E+02 -.468E+01 -.317E+03   0.228E+02 0.249E+01 0.316E+03   0.367E+01 0.189E+01 0.151E+01   -.473E-04 0.339E-04 -.269E-04
   0.222E+02 -.493E+02 0.343E+03   -.205E+02 0.488E+02 -.346E+03   -.153E+01 0.591E+00 0.227E+01   -.869E-04 -.644E-04 -.578E-04
   0.203E+02 -.990E+01 -.485E+02   -.201E+02 0.881E+01 0.468E+02   -.416E+00 0.917E+00 0.150E+01   -.389E-04 0.578E-05 -.535E-04
   -.181E+02 -.176E+01 0.295E+03   0.178E+02 0.278E+01 -.291E+03   0.203E+00 -.102E+01 -.344E+01   0.233E-04 -.319E-04 -.887E-04
   -.461E+02 0.141E+02 -.283E+03   0.443E+02 -.136E+02 0.284E+03   0.150E+01 -.287E+00 -.926E+00   0.119E-04 -.575E-04 0.477E-04
   0.929E+01 0.820E+01 0.756E+02   -.851E+01 -.681E+01 -.729E+02   -.801E+00 -.132E+01 -.261E+01   -.547E-04 -.274E-04 -.192E-03
   -.714E+01 0.467E+01 -.333E+03   0.108E+02 -.456E+01 0.336E+03   -.359E+01 -.415E-01 -.238E+01   0.520E-04 0.131E-04 0.484E-04
   -.257E+02 0.155E+02 -.470E+02   0.241E+02 -.148E+02 0.477E+02   0.163E+01 -.828E+00 -.547E+00   0.318E-04 0.430E-04 -.127E-04
   0.125E+02 -.179E+01 0.491E+02   -.120E+02 0.270E+01 -.482E+02   -.655E+00 -.902E+00 -.713E+00   -.829E-04 -.326E-04 -.889E-04
   -.629E+01 0.150E+02 -.117E+02   0.540E+01 -.137E+02 0.127E+02   0.902E+00 -.133E+01 -.814E+00   -.409E-04 0.459E-04 -.124E-03
   0.588E+01 0.552E+01 0.321E+03   -.794E+01 -.566E+01 -.317E+03   0.172E+01 -.597E-01 -.382E+01   -.426E-04 0.534E-04 -.550E-04
   -.220E+02 -.151E+01 -.276E+03   0.228E+02 0.140E+01 0.275E+03   -.829E+00 0.108E+00 0.120E+01   0.596E-04 -.661E-06 -.184E-04
   -.294E+02 -.166E+02 0.237E+03   0.265E+02 0.155E+02 -.235E+03   0.281E+01 0.100E+01 -.258E+01   0.100E-03 0.122E-03 -.640E-04
   -.286E+02 0.946E+01 0.352E+03   0.296E+02 -.972E+01 -.354E+03   -.111E+01 0.254E+00 0.162E+01   0.619E-04 0.693E-04 -.399E-04
   -.316E+02 -.116E+02 0.364E+03   0.307E+02 0.114E+02 -.366E+03   0.809E+00 0.674E-01 0.138E+01   -.158E-04 -.376E-05 -.590E-04
   0.136E+02 -.194E+02 0.279E+03   -.128E+02 0.173E+02 -.278E+03   -.585E+00 0.189E+01 -.129E+01   -.197E-03 -.574E-04 -.960E-04
   0.109E+02 -.609E+01 0.124E+03   -.108E+02 0.526E+01 -.123E+03   -.236E+00 0.105E+01 -.627E+00   -.522E-04 0.328E-04 -.111E-03
   -.689E+01 0.270E+02 0.271E+03   0.714E+01 -.288E+02 -.269E+03   -.177E-01 0.174E+01 -.190E+01   -.280E-04 0.762E-04 -.437E-04
   0.190E+02 0.728E+01 0.174E+03   -.181E+02 -.789E+01 -.173E+03   -.917E+00 0.499E+00 -.736E+00   -.164E-04 0.998E-04 -.138E-03
   0.504E+01 0.726E+01 -.330E+03   -.444E+01 -.651E+01 0.333E+03   -.593E+00 -.698E+00 -.214E+01   -.443E-05 0.356E-05 -.207E-04
   -.876E+01 -.495E+01 -.340E+02   0.814E+01 0.456E+01 0.329E+02   0.718E+00 0.104E+00 0.720E+00   0.362E-04 0.424E-05 -.808E-04
   -.416E+01 -.990E+01 -.161E+02   0.235E+01 0.928E+01 0.132E+02   0.176E+01 0.553E+00 0.285E+01   -.829E-04 -.545E-04 -.812E-04
   -.638E+01 -.354E+01 0.325E+03   0.548E+01 0.457E+01 -.325E+03   0.102E+01 -.931E+00 -.771E+00   0.928E-04 -.891E-04 -.572E-04
   -.330E+02 -.501E+01 0.161E+03   0.316E+02 0.468E+01 -.159E+03   0.149E+01 0.336E+00 -.230E+01   0.608E-04 0.158E-04 -.864E-04
   -.500E+01 0.204E+02 -.175E+03   0.495E+01 -.184E+02 0.176E+03   0.391E-01 -.177E+01 -.975E+00   -.131E-04 -.337E-05 -.380E-04
   0.232E+02 -.420E+01 -.707E+02   -.236E+02 0.424E+01 0.713E+02   0.328E+00 0.189E+00 -.723E+00   -.395E-04 -.265E-06 -.457E-04
   0.588E+01 0.121E+02 0.117E+03   -.688E+01 -.104E+02 -.118E+03   0.101E+01 -.184E+01 0.100E+01   -.391E-04 -.220E-04 -.616E-04
   0.204E+02 -.380E+01 0.234E+03   -.189E+02 0.362E+01 -.230E+03   -.169E+01 0.335E+00 -.374E+01   0.126E-04 0.204E-04 -.593E-04
   -.965E+01 -.717E+01 0.611E+02   0.784E+01 0.431E+01 -.621E+02   0.187E+01 0.285E+01 0.855E+00   -.651E-04 0.849E-05 -.132E-03
   -.263E+01 0.150E+02 0.311E+03   0.889E+00 -.173E+02 -.312E+03   0.166E+01 0.202E+01 0.789E+00   -.753E-04 -.802E-06 -.634E-04
 -----------------------------------------------------------------------------------------------
   -.910E+01 0.351E+01 0.188E+02   0.121E-12 -.568E-13 0.114E-11   0.910E+01 -.351E+01 -.188E+02   -.264E-03 0.372E-05 -.426E-02


 POSITION                                       TOTAL-FORCE (eV/Angst)
 -----------------------------------------------------------------------------------
      1.95544      0.78109     13.33671        -0.141296     -0.056866     -0.020654
     13.80983      3.88213     14.54619        -0.105592     -0.003768      0.093127
      6.19585      8.86178     17.17617         0.210288     -0.069938      0.160439
     11.08071     12.38736     17.84354        -0.105742     -0.063736      0.213063
      9.50435     13.77072     16.76392         0.005756     -0.008943     -0.089969
      4.05103      6.66362     12.90184        -0.073462      0.054349      0.151505
      1.31888      3.56474     17.46802        -0.145983      0.221680     -0.077679
     11.49019      2.77985     16.66534        -0.051082     -0.073954      0.035197
      8.22273     11.59035     12.58678         0.365068      0.069842      0.076406
      8.28266      2.17514     10.20147         0.037099      0.231040      0.550134
      2.36383      0.20684     12.00969         0.244245      0.238178     -0.062747
     12.17981     12.79320     11.16029         0.422293      0.058886     -0.123285
      8.61525      5.23210     11.86787        -0.154546     -0.211193     -0.254552
      0.91054      9.51105     11.97575         0.171154      0.008629     -0.231902
     10.21304     13.95199     10.81131        -0.207407      0.206120      0.122486
      4.35891      5.75352     16.49440        -0.004546      0.198823     -0.168205
      2.59782      0.52393     16.23867         0.028512     -0.143209     -0.219702
      7.58851      3.04750     16.92973        -0.118537      0.242810      0.055641
      9.30749      7.52498     11.85312        -0.103150      0.300272     -0.241252
      7.94250      2.79012     14.64084        -0.051503     -0.256197     -0.124237
      0.19174      5.51922     17.16884         0.034663      0.017964     -0.072582
      6.15264      6.61725     17.81645         0.025242     -0.090153      0.141437
      2.10421      6.65927     16.26087         0.123155      0.021745      0.175300
      0.60735      1.76488     16.21608         0.104932      0.019656      0.132685
      8.14230      6.60393     15.18830         0.143604      0.281583     -0.117395
     10.32504     10.24100     17.26856         0.179318     -0.030335      0.326013
      6.58998      0.94457     11.18663         0.028956     -0.174317     -0.203505
     13.43964     13.81889     12.81271        -0.012009      0.201592     -0.138106
      1.54329      4.37140     10.97533        -0.076203      0.187032     -0.258073
      7.71068     12.22998     16.52530        -0.003962      0.172303     -0.066903
     13.40877      8.86009     15.09296         0.168296      0.022773     -0.154560
     10.61814      4.17931     12.72301        -0.089611      0.193670      0.101913
     12.14225     10.41407     13.87154        -0.106717     -0.098697      0.001314
     10.02059     11.49246     10.97500        -0.043615      0.239937     -0.186551
      5.72747     13.34892     10.71981         0.106114     -0.135261     -0.155180
      3.17356      6.33842     10.78804        -0.132412     -0.059664     -0.291074
      3.58710      3.77090     17.28218         0.166564     -0.285541     -0.108887
      1.86844      4.12560     13.24784         0.092543     -0.162822      0.253910
      1.91981      6.39786     13.97014        -0.038059      0.233057     -0.095914
      4.46291      0.19506     17.74866         0.230506     -0.135358      0.333710
      3.68258     11.46789     13.53728         0.086878      0.045621     -0.167993
     12.38002      5.07232     16.27819        -0.053812     -0.367893      0.051996
     10.46042     13.78427     14.63354        -0.170714     -0.206095     -0.178952
      4.33524      1.66628     15.17194        -0.327456     -0.065613     -0.121530
      0.47269     12.06585     17.23608         0.301139      0.152521      0.033238
      1.38672     11.21459     13.57300        -0.071336     -0.326838     -0.147642
      0.05961      7.74221     13.29044         0.118508     -0.167353     -0.047262
      2.82741      2.28212     10.71163         0.053069      0.302097      0.020774
      2.35555      8.93010     16.29847         0.388687      0.053267      0.380589
     10.24495      9.66925     14.93260         0.070060     -0.090186     -0.429303
     11.50004      7.94217     11.05500        -0.080988     -0.291365      0.115734
      0.58446     10.29891     15.71040         0.018947     -0.001810     -0.107988
      8.17362      5.47675     17.22797         0.154880     -0.118289     -0.021569
     13.03966      6.48879     12.15962         0.051338     -0.066115     -0.025891
      2.84668      8.70756     10.90545        -0.200325     -0.141309      0.365028
      7.99578     10.32548     17.82718         0.009932     -0.121301      0.248251
      4.11140      9.89271     17.32965        -0.383330     -0.073179     -0.201889
      2.10453     12.89209     15.85944        -0.109502     -0.149499      0.365762
     10.02870      7.44618     14.15292         0.346064      0.097403      0.014215
     10.23007      2.87986     14.62413         0.036706      0.212443     -0.043694
     13.02151     13.09919     16.76274        -0.117054      0.098127     -0.037966
     11.73344      5.81931     14.00935        -0.076214      0.052303     -0.115658
      0.17791      2.78636     14.14013         0.128513      0.123647     -0.117618
      5.64642     13.27314     16.27109        -0.170769      0.027223      0.011876
      5.33631      2.30762     17.21315         0.038332     -0.173842      0.399375
      7.03834      4.07781     10.49164         0.170053     -0.030386     -0.194147
      8.12399     10.63328     14.73234        -0.222375     -0.144287     -0.090655
     12.06887      2.94167     11.33597        -0.093528     -0.053485     -0.077371
     11.55058      8.32110     16.72043        -0.420274      0.224659      0.055278
      4.04650      3.21961     13.46446        -0.054661      0.035646     -0.059617
     10.61699      6.22739     17.37084        -0.134266      0.099261     -0.048166
     12.44178     12.61714     14.53724         0.007610     -0.089771      0.083209
      7.36445      4.91565     13.80974        -0.156156     -0.027158      0.120175
      5.53439     14.47526     14.28334         0.051951     -0.104092      0.088015
      6.49467     11.08383     11.10427        -0.227045     -0.221509      0.115873
     13.02237      0.90950     16.53955        -0.046444      0.023897      0.174101
      0.79939     12.91437     12.05047        -0.051232     -0.118782      0.032078
     14.10586     11.21215     10.77142        -0.256663      0.049906      0.174115
     10.50483      1.59641     10.04656        -0.246363     -0.187576     -0.285870
      5.09151      2.77751     11.34647         0.197202     -0.162895     -0.023589
      9.02346     13.77893     12.83957        -0.190533      0.273499      0.177697
     11.96458     10.21506     11.53508         0.192293      0.166256      0.130498
      4.28934     13.51778     12.54413        -0.023305     -0.085752      0.111839
      9.44794      1.61036     17.27128        -0.045037      0.046661      0.178660
     11.72427      1.14446     14.56589         0.134708     -0.237717     -0.291415
      5.08782      5.10936     14.25584         0.048727     -0.047987      0.073318
     13.73535      4.60352     10.93052         0.200764      0.025723      0.040895
     13.21039      1.55758     12.84778         0.095953      0.017778      0.022513
      4.08644     11.64549     15.84963        -0.036541      0.109121     -0.100166
      6.86447      8.61861     14.95761         0.000091      0.243368     -0.139671
      5.70567      8.31501     12.94041         0.043563     -0.137466      0.043099
      4.56968     10.03150     11.96396        -0.250445      0.152805     -0.051219
      7.42643      0.83573     13.37869         0.120741      0.149042     -0.149316
      7.33428      8.73596     11.26381         0.026784     -0.134717      0.186588
 -----------------------------------------------------------------------------------
    total drift:                               -0.000595      0.000710      0.009043


--------------------------------------------------------------------------------------------------------



  FREE ENERGIE OF THE ION-ELECTRON SYSTEM (eV)
  ---------------------------------------------------
  free  energy   TOTEN  =      -873.65722997 eV

  energy  without entropy=     -873.46034060  energy(sigma->0) =     -873.55878528



--------------------------------------------------------------------------------------------------------


    POTLOK:  cpu time      3.7494: real time      3.7522


--------------------------------------------------------------------------------------------------------


     LOOP+:  cpu time   5766.6808: real time   5770.2980
    4ORBIT:  cpu time      0.0000: real time      0.0000



 total charge

# of ion       s       p       d       tot
------------------------------------------
    1        0.562   0.016   0.000   0.579
    2        0.567   0.017   0.000   0.584
    3        0.751   0.931   0.000   1.682
    4        0.796   0.863   0.000   1.659
    5        0.747   0.916   0.000   1.662
    6        0.754   0.935   0.000   1.688
    7        0.770   0.918   0.000   1.688
    8        0.773   0.837   0.000   1.610
    9        0.769   0.902   0.000   1.671
   10        0.778   0.890   0.000   1.669
   11        0.751   0.907   0.000   1.658
   12        0.795   0.866   0.000   1.661
   13        0.758   0.894   0.000   1.652
   14        0.775   0.892   0.000   1.667
   15        0.760   0.883   0.000   1.643
   16        0.753   0.911   0.000   1.664
   17        0.757   0.938   0.000   1.695
   18        0.750   0.899   0.000   1.650
   19        0.760   0.895   0.000   1.654
   20        0.758   0.943   0.000   1.701
   21        0.803   0.817   0.000   1.620
   22        0.795   0.844   0.000   1.639
   23        0.757   0.925   0.000   1.682
   24        0.744   0.954   0.000   1.697
   25        0.762   0.942   0.000   1.704
   26        0.765   0.888   0.000   1.653
   27        0.760   0.913   0.000   1.673
   28        0.764   0.968   0.000   1.732
   29        0.757   0.868   0.000   1.625
   30        0.751   0.920   0.000   1.671
   31        0.758   0.885   0.000   1.644
   32        0.762   0.925   0.000   1.686
   33        0.761   0.957   0.000   1.719
   34        0.809   0.817   0.000   1.625
   35        0.803   0.832   0.000   1.636
   36        0.802   0.807   0.000   1.609
   37        0.778   0.910   0.000   1.687
   38        0.754   0.933   0.000   1.688
   39        0.764   0.913   0.000   1.677
   40        0.823   0.805   0.000   1.628
   41        0.764   0.949   0.000   1.713
   42        0.788   0.801   0.000   1.589
   43        0.763   0.971   0.000   1.733
   44        0.761   0.931   0.000   1.693
   45        0.804   0.879   0.000   1.683
   46        0.762   0.913   0.000   1.676
   47        0.756   0.911   0.000   1.667
   48        0.798   0.787   0.000   1.585
   49        0.785   0.904   0.000   1.688
   50        0.759   0.950   0.000   1.709
   51        0.806   0.835   0.000   1.641
   52        0.757   0.913   0.000   1.670
   53        0.760   0.851   0.000   1.611
   54        0.752   0.925   0.000   1.677
   55        0.789   0.828   0.000   1.617
   56        0.794   0.843   0.000   1.638
   57        0.786   0.907   0.000   1.694
   58        0.787   0.890   0.000   1.677
   59        0.772   0.904   0.000   1.677
   60        0.760   0.954   0.000   1.713
   61        0.755   0.925   0.000   1.680
   62        0.770   0.894   0.000   1.664
   63        0.755   0.955   0.000   1.709
   64        0.752   0.965   0.000   1.716
   65        0.759   0.931   0.000   1.690
   66        0.797   0.829   0.000   1.626
   67        0.765   0.904   0.000   1.668
   68        0.749   0.894   0.000   1.643
   69        0.783   0.824   0.000   1.607
   70        0.766   0.939   0.000   1.705
   71        0.797   0.804   0.000   1.601
   72        0.765   0.949   0.000   1.714
   73        0.758   0.954   0.000   1.712
   74        0.766   0.967   0.000   1.733
   75        0.769   0.865   0.000   1.634
   76        0.753   0.923   0.000   1.676
   77        0.781   0.900   0.000   1.682
   78        0.809   0.768   0.000   1.576
   79        0.775   0.858   0.000   1.632
   80        0.757   0.868   0.000   1.626
   81        0.763   0.936   0.000   1.699
   82        0.756   0.879   0.000   1.636
   83        0.754   0.953   0.000   1.707
   84        0.798   0.799   0.000   1.597
   85        0.769   0.964   0.000   1.733
   86        0.766   0.952   0.000   1.718
   87        0.780   0.848   0.000   1.628
   88        0.755   0.960   0.000   1.716
   89        0.754   0.960   0.000   1.714
   90        0.761   0.912   0.000   1.673
   91        0.755   0.952   0.000   1.707
   92        0.762   0.943   0.000   1.706
   93        0.754   0.951   0.000   1.706
   94        0.808   0.786   0.000   1.594
--------------------------------------------------
tot         71.977  82.636   0.000 154.612


 total amount of memory used by VASP MPI-rank0   361480. kBytes
=======================================================================

   base                                    :      30000. kBytes
   nonl-proj                               :      70947. kBytes
   fftplans                                :     108864. kBytes
   grid                                    :      83991. kBytes
   one-center                              :         18. kBytes
   wavefun                                 :      67660. kBytes

  
  
 General timing and accounting informations for this job:
 ========================================================
  
                  Total CPU time used (sec):     5914.806
                            User time (sec):     5256.283
                          System time (sec):      658.524
                         Elapsed time (sec):     5918.685
  
                   Maximum memory used (kb):      626088.
                   Average memory used (kb):          N/A
  
                          Minor page faults:      5351499
                          Major page faults:         1172
                 Voluntary context switches:         3338
