 vasp.6.5.0 16Dec24 (build Jan 20 2025 08:32:48) complex                         
 executed on        HPECrayEX_GCC date 2025.07.21  23:01:31
 running  128 mpi-ranks, with    1 threads/rank, on    1 nodes
 distrk:  each k-point on  128 cores,    1 groups
 distr:  one band on NCORE=  16 cores,    8 groups


--------------------------------------------------------------------------------------------------------


 INCAR:
   SYSTEM = a-Si SPC
   NCORE = 16
   ISTART = 1
   ICHARG = 1
   ISPIN = 1
   ISYM = 1
   EDIFF = 1E-6
   NELM = 150
   EDIFFG = -0.01
   NSW = 0
   ISIF = 2
   IBRION = -1
   PREC = Accurate
   ENCUT = 1200
   KSPACING = 0.23
   KGAMMA = .TRUE.
   METAGGA = SCAN
   LASPH = .TRUE.
   LDIAG = .FALSE.
   LMIXTAU = .TRUE.
   ADDGRID = .TRUE.
   ALGO = Normal
   ISMEAR = 0
   SIGMA = 0.1
   LORBIT = 11
   NEDOS = 2000
   LWAVE = .FALSE.
   LCHARG = .FALSE.

 POTCAR:    PAW_PBE H 15Jun2001                   
 POTCAR:    PAW_PBE Si 05Jan2001                  
 POTCAR:    PAW_PBE H 15Jun2001                   
   SHA256 =  030f79b5d3ab3cf0e668861823c8fb652ff669f3e15e46930bd03bfd63a607b6 H/POTCAR              
   COPYR  = (c) Copyright 15Jun2001 Georg Kresse                                                    
   COPYR  = This file is part of the software VASP. Any use, copying, and all other rights are regul
   COPYR  = If you do not have a valid VASP license, you may not use, copy or distribute this file. 
   VRHFIN =H: ultrasoft test                                                                        
   LEXCH  = PE                                                                                      
   EATOM  =    12.4884 eV,    0.9179 Ry                                                             
                                                                                                    
   TITEL  = PAW_PBE H 15Jun2001                                                                     
   LULTRA =        F    use ultrasoft PP ?                                                          
   IUNSCR =        0    unscreen: 0-lin 1-nonlin 2-no                                               
   RPACOR =    0.000    partial core radius                                                         
   POMASS =    1.000; ZVAL   =    1.000    mass and valenz                                          
   RCORE  =    1.100    outmost cutoff radius                                                       
   RWIGS  =    0.700; RWIGS  =    0.370    wigner-seitz radius (au A)                               
   ENMAX  =  250.000; ENMIN  =  200.000 eV                                                          
   RCLOC  =    0.701    cutoff for local pot                                                        
   LCOR   =        T    correct aug charges                                                         
   LPAW   =        T    paw PP                                                                      
   EAUG   =  400.000                                                                                
   RMAX   =    1.123    core radius for proj-oper                                                   
   RAUG   =    1.200    factor for augmentation sphere                                              
   RDEP   =    1.112    radius for radial grids                                                     
   RDEPT  =    0.926    core radius for aug-charge                                                  
                                                                                                    
   Atomic configuration                                                                             
    2 entries                                                                                       
     n  l   j            E        occ.                                                              
     1  0  0.50        -6.4927   1.0000                                                             
     2  1  0.50        -3.4015   0.0000                                                             
   Description                                                                                      
     l       E           TYP  RCUT    TYP  RCUT                                                     
     0     -6.4927494     23  1.100                                                                 
     0      6.8029130     23  1.100                                                                 
     1     -4.0817478     23  1.100                                                                 
  local pseudopotential read in
  atomic valenz-charges read in
  non local Contribution for L=           0  read in
    real space projection operators read in
  non local Contribution for L=           0  read in
    real space projection operators read in
  non local Contribution for L=           1  read in
    real space projection operators read in
    PAW grid and wavefunctions read in

   number of l-projection  operators is LMAX  =           3
   number of lm-projection operators is LMMAX =           5

 POTCAR:    PAW_PBE Si 05Jan2001                  
   SHA256 =  79d9987ad8750f624c4d6acb2a16d13abf6a777132adc04dc6c8399be72b42bb Si/POTCAR             
   COPYR  = (c) Copyright 05Jan2001 Georg Kresse                                                    
   COPYR  = This file is part of the software VASP. Any use, copying, and all other rights are regul
   COPYR  = If you do not have a valid VASP license, you may not use, copy or distribute this file. 
   VRHFIN =Si: s2p2                                                                                 
   LEXCH  = PE                                                                                      
   EATOM  =   103.0669 eV,    7.5752 Ry                                                             
                                                                                                    
   TITEL  = PAW_PBE Si 05Jan2001                                                                    
   LULTRA =        F    use ultrasoft PP ?                                                          
   IUNSCR =        1    unscreen: 0-lin 1-nonlin 2-no                                               
   RPACOR =    1.500    partial core radius                                                         
   POMASS =   28.085; ZVAL   =    4.000    mass and valenz                                          
   RCORE  =    1.900    outmost cutoff radius                                                       
   RWIGS  =    2.480; RWIGS  =    1.312    wigner-seitz radius (au A)                               
   ENMAX  =  245.345; ENMIN  =  184.009 eV                                                          
   ICORE  =        2    local potential                                                             
   LCOR   =        T    correct aug charges                                                         
   LPAW   =        T    paw PP                                                                      
   EAUG   =  322.069                                                                                
   DEXC   =    0.000                                                                                
   RMAX   =    1.950    core radius for proj-oper                                                   
   RAUG   =    1.300    factor for augmentation sphere                                              
   RDEP   =    1.993    radius for radial grids                                                     
   RDEPT  =    1.837    core radius for aug-charge                                                  
                                                                                                    
   Atomic configuration                                                                             
    6 entries                                                                                       
     n  l   j            E        occ.                                                              
     1  0  0.50     -1785.8828   2.0000                                                             
     2  0  0.50      -139.4969   2.0000                                                             
     2  1  1.50       -95.5546   6.0000                                                             
     3  0  0.50       -10.8127   2.0000                                                             
     3  1  0.50        -4.0811   2.0000                                                             
     3  2  1.50        -4.0817   0.0000                                                             
   Description                                                                                      
     l       E           TYP  RCUT    TYP  RCUT                                                     
     0    -10.8127223     23  1.900                                                                 
     0     -7.6451159     23  1.900                                                                 
     1     -4.0811372     23  1.900                                                                 
     1      2.4879257     23  1.900                                                                 
     2     -4.0817478      7  1.900                                                                 
  local pseudopotential read in
  partial core-charges read in
  partial kinetic energy density read in
  atomic valenz-charges read in
  non local Contribution for L=           0  read in
    real space projection operators read in
  non local Contribution for L=           0  read in
    real space projection operators read in
  non local Contribution for L=           1  read in
    real space projection operators read in
  non local Contribution for L=           1  read in
    real space projection operators read in
    PAW grid and wavefunctions read in

   number of l-projection  operators is LMAX  =           4
   number of lm-projection operators is LMMAX =           8

 -----------------------------------------------------------------------------
|                                                                             |
|               ----> ADVICE to this user running VASP <----                  |
|                                                                             |
|     You have a (more or less) 'large supercell' and for larger cells it     |
|     might be more efficient to use real-space projection operators.         |
|     Therefore, try LREAL= Auto in the INCAR file.                           |
|     Mind: For very accurate calculation, you might also keep the            |
|     reciprocal projection scheme (i.e. LREAL=.FALSE.).                      |
|                                                                             |
 -----------------------------------------------------------------------------

 -----------------------------------------------------------------------------
|                                                                             |
|               ----> ADVICE to this user running VASP <----                  |
|                                                                             |
|     You enforced a specific xc type in the INCAR file but a different       |
|     type was found in the POTCAR file.                                      |
|     I HOPE YOU KNOW WHAT YOU ARE DOING!                                     |
|                                                                             |
 -----------------------------------------------------------------------------

  PAW_PBE H 15Jun2001                   :
 energy of atom  1       EATOM=  -12.4884
 kinetic energy error for atom=    0.0000 (will be added to EATOM!!)
  PAW_PBE Si 05Jan2001                  :
 energy of atom  2       EATOM= -103.0669
 kinetic energy error for atom=    0.0001 (will be added to EATOM!!)


 POSCAR:  H Si
  positions in cartesian coordinates
  No initial velocities read in


 exchange-correlation table for SCAN
   RHO(1)=    0.500       N(1)  =     2000
   RHO(2)=  100.500       N(2)  =     4000



--------------------------------------------------------------------------------------------------------


 ion  position               nearest neighbor table
   1  0.943  0.801  0.419- 100 1.58
   2  0.006  0.888  0.168-  39 1.49
   3  0.737  0.790  0.507-  51 1.52
   4  0.750  0.998  0.476-  20 1.52
   5  0.896  0.694  0.943-  69 1.51
   6  0.676  0.773  0.043- 105 1.59
   7  0.825  0.005  0.904-  68 1.50
   8  0.861  0.748  0.699-  23 1.52
   9  0.758  0.366  0.700-  30 2.35  34 2.42  17 2.44  96 2.55
  10  0.373  0.665  0.673-  66 2.29  58 2.31  37 2.42  46 2.45
  11  0.721  0.606  0.569-  84 2.27  17 2.35  51 2.42  23 2.44
  12  0.504  0.998  0.316-  44 2.35 106 2.41  80 2.48
  13  0.075  0.248  0.166-  29 2.32  55 2.36  60 2.42  28 2.83
  14  0.380  0.238  0.448-  56 2.26  90 2.29  72 2.36  44 2.57
  15  0.131  0.717  0.520-  64 2.31 100 2.33 107 2.35  53 2.48  19 3.13
  16  0.490  0.280  0.769-  97 2.44  36 2.46  56 2.47  34 2.50
  17  0.643  0.485  0.664-  11 2.35  79 2.38 103 2.40   9 2.44
  18  0.456  0.419  0.214-  73 2.28  83 2.31  72 2.37  87 2.38
  19  0.016  0.622  0.321- 100 2.26  92 2.36  63 2.40  71 2.48  15 3.13
  20  0.750  0.096  0.522-   4 1.52  91 2.25  62 2.34  32 2.41
  21  0.109  0.037  0.906-  77 2.28  43 2.30  26 2.37  60 2.44
  22  0.977  0.138  0.678-  62 2.31  77 2.39  99 2.39  48 2.50
  23  0.873  0.665  0.620-   8 1.52 100 2.27  61 2.32  11 2.44
  24  0.457  0.036  0.656-  54 2.30  81 2.34  44 2.36  41 2.40
  25  0.335  0.576  0.365-  83 2.32 107 2.33 102 2.38  58 2.44
  26  0.225  0.139  0.838-  54 2.32  78 2.32  21 2.37  76 2.41
  27  0.386  0.735  0.962-  50 2.31  70 2.39  93 2.41  37 2.55
  28  0.037  0.173  0.390-  48 2.41  85 2.44  62 2.45  13 2.83
  29  0.023  0.396  0.201-  13 2.32  89 2.37  31 2.43  92 2.49
  30  0.853  0.355  0.866-   9 2.35  99 2.43  52 2.43  38 2.48
  31  0.086  0.474  0.031-  94 2.34  29 2.43  74 2.53  52 2.59
  32  0.696  0.092  0.723-  34 2.36  68 2.40  81 2.40  20 2.41
  33  0.125  0.350  0.654-  48 2.19 104 2.35  76 2.35 101 2.37
  34  0.645  0.243  0.687-  32 2.36   9 2.42  91 2.50  16 2.50
  35  0.210  0.966  0.267-  82 2.37  39 2.38  57 2.45  85 2.46
  36  0.491  0.419  0.891-  87 2.37 103 2.44  16 2.46  59 2.50
  37  0.501  0.688  0.805- 103 2.37  10 2.42  86 2.53  27 2.55
  38  0.753  0.382  0.039-  75 2.38  89 2.42  95 2.47  30 2.48
  39  0.106  0.865  0.169-   2 1.49  35 2.38  63 2.38  43 2.52
  40  0.531  0.722  0.410-  42 2.33  51 2.37  80 2.39  58 2.43
  41  0.446  0.872  0.631-  66 2.31  80 2.33  24 2.40  86 2.50  81 3.08
  42  0.521  0.698  0.209-  50 2.19 105 2.24  40 2.33  83 2.42
  43  0.192  0.919  0.989-  93 2.30  21 2.30  82 2.46  39 2.52
  44  0.492  0.102  0.473-  12 2.35  24 2.36  91 2.44  14 2.57
  45  0.541  0.057  0.973-  81 2.40  97 2.41 106 2.42  88 2.48
  46  0.270  0.538  0.728-  59 2.33 101 2.34  53 2.41  10 2.45
  47  0.669  0.297  0.336-  91 2.27  67 2.38  75 2.53  73 2.55
  48  0.108  0.214  0.574-  33 2.19  90 2.40  28 2.41  22 2.50  85 2.86
  49  0.152  0.990  0.629-  64 2.24  77 2.38  85 2.43  54 2.62  90 3.12
  50  0.451  0.811  0.120-  42 2.19  27 2.31 106 2.34
  51  0.645  0.754  0.554-   3 1.52  40 2.37  11 2.42  86 2.46
  52  0.959  0.485  0.873-  69 2.38  61 2.42  30 2.43  31 2.59
  53  0.130  0.624  0.702-  98 2.31  61 2.35  46 2.41  15 2.48
  54  0.305  0.076  0.681-  24 2.30  26 2.32  90 2.32  49 2.62
  55  0.235  0.264  0.139-  13 2.36  72 2.39  78 2.44  94 2.44
  56  0.405  0.337  0.597-  14 2.26 101 2.26  79 2.36  16 2.47
  57  0.287  0.862  0.404-  64 2.31  80 2.33  35 2.45 107 2.48
  58  0.451  0.601  0.516-  79 2.30  10 2.31  40 2.43  25 2.44
  59  0.327  0.472  0.900-  70 2.27  46 2.33  94 2.45  36 2.50
  60  0.041  0.180  0.976-  99 2.26  13 2.42  21 2.44  76 2.62
  61  0.982  0.561  0.687-  23 2.32  53 2.35 104 2.39  52 2.42
  62  0.896  0.165  0.507-  22 2.31  20 2.34  28 2.45  96 2.57
  63  0.131  0.707  0.215- 107 2.30  74 2.32  39 2.38  19 2.40
  64  0.205  0.851  0.577-  66 2.16  49 2.24  15 2.31  57 2.31
  65  0.748  0.647  0.271-  71 2.33  84 2.39 105 2.39
  66  0.310  0.808  0.698-  64 2.16  93 2.23  10 2.29  41 2.31
  67  0.797  0.394  0.370-  96 2.22  89 2.30  47 2.38  84 2.41
  68  0.790  0.102  0.896-   7 1.50  88 2.27  32 2.40  99 2.43
  69  0.875  0.596  0.982-   5 1.51  52 2.38  71 2.40  95 2.44
  70  0.325  0.592  0.029-  83 2.25  59 2.27  74 2.34  27 2.39
  71  0.883  0.587  0.192-  65 2.33  89 2.38  69 2.40  19 2.48
  72  0.333  0.328  0.287-  14 2.36  18 2.37  55 2.39 102 2.51
  73  0.561  0.434  0.360-  18 2.28  79 2.31  84 2.45  47 2.55
  74  0.169  0.627  0.046-  63 2.32  70 2.34  98 2.42  31 2.53
  75  0.656  0.266  0.118-  88 2.32  87 2.35  38 2.38  47 2.53
  76  0.143  0.283  0.840-  94 2.27  33 2.35  26 2.41  60 2.62
  77  0.021  0.990  0.752-  21 2.28  49 2.38  22 2.39
  78  0.309  0.153  0.010-  82 2.29  97 2.31  26 2.32  55 2.44
  79  0.510  0.456  0.549-  58 2.30  73 2.31  56 2.36  17 2.38
  80  0.447  0.862  0.427-  57 2.33  41 2.33  40 2.39  12 2.48
  81  0.574  0.991  0.785-  24 2.34  45 2.40  32 2.40  86 2.46  41 3.08
  82  0.300  0.014  0.104-  78 2.29 106 2.32  35 2.37  43 2.46
  83  0.414  0.571  0.188-  70 2.25  18 2.31  25 2.32  42 2.42
  84  0.699  0.527  0.398-  11 2.27  65 2.39  67 2.41  73 2.45
  85  0.155  0.058  0.434-  90 2.26  49 2.43  28 2.44  35 2.46  48 2.86
  86  0.591  0.827  0.736-  81 2.46  51 2.46  41 2.50  37 2.53
  87  0.513  0.324  0.058-  75 2.35  36 2.37  97 2.37  18 2.38
  88  0.688  0.120  0.047-  68 2.27  75 2.32  45 2.48
  89  0.862  0.425  0.190-  67 2.30  29 2.37  71 2.38  38 2.42
  90  0.256  0.156  0.516-  85 2.26  14 2.29  54 2.32  48 2.40  49 3.12
  91  0.634  0.193  0.478-  20 2.25  47 2.27  44 2.44  34 2.50
  92  0.073  0.478  0.382- 104 2.34  19 2.36 102 2.41  29 2.49
  93  0.248  0.800  0.877-  66 2.23  43 2.30  98 2.37  27 2.41
  94  0.205  0.374  0.981-  76 2.27  31 2.34  55 2.44  59 2.45
  95  0.716  0.542  0.981-  69 2.44 103 2.46  38 2.47 105 2.62
  96  0.866  0.338  0.528-  67 2.22 104 2.48   9 2.55  62 2.57
  97  0.454  0.198  0.950-  78 2.31  87 2.37  45 2.41  16 2.44
  98  0.114  0.707  0.874-  53 2.31  93 2.37  74 2.42
  99  0.920  0.202  0.857-  60 2.26  22 2.39  30 2.43  68 2.43
 100  0.974  0.708  0.478-   1 1.58  19 2.26  23 2.27  15 2.33
 101  0.269  0.413  0.599-  56 2.26  46 2.34  33 2.37 102 2.48
 102  0.236  0.446  0.390-  25 2.38  92 2.41 101 2.48  72 2.51
 103  0.586  0.552  0.843-  37 2.37  17 2.40  36 2.44  95 2.46
 104  0.007  0.432  0.559-  92 2.34  33 2.35  61 2.39  96 2.48
 105  0.651  0.678  0.106-   6 1.59  42 2.24  65 2.39  95 2.62
 106  0.454  0.972  0.118-  82 2.32  50 2.34  12 2.41  45 2.42
 107  0.236  0.702  0.365-  63 2.30  25 2.33  15 2.35  57 2.48

  LATTYP: Found a simple tetragonal cell.
 ALAT       =    14.5330482480
 C/A-ratio  =     0.7835408156
  
  Lattice vectors:
  
 A1 = (  14.5330482480,   0.0000000000,   0.0000000000)
 A2 = (   0.0000000000,  14.5330482480,   0.0000000000)
 A3 = (   0.0000000000,   0.0000000000,  11.3872364769)


Analysis of symmetry for initial positions (statically):
=====================================================================
 Subroutine PRICEL returns:
 Original cell was already a primitive cell.
 

 Routine SETGRP: Setting up the symmetry group for a 
 simple tetragonal supercell.


 Subroutine GETGRP returns: Found  1 space group operations
 (whereof  1 operations were pure point group operations)
 out of a pool of 16 trial point group operations.


The static configuration has the point symmetry C_1 .


Analysis of symmetry for dynamics (positions and initial velocities):
=====================================================================
 Subroutine PRICEL returns:
 Original cell was already a primitive cell.
 

 Routine SETGRP: Setting up the symmetry group for a 
 simple tetragonal supercell.


 Subroutine GETGRP returns: Found  1 space group operations
 (whereof  1 operations were pure point group operations)
 out of a pool of 16 trial point group operations.


The dynamic configuration has the point symmetry C_1 .


 Subroutine INISYM returns: Found  1 space group operations
 (whereof  1 operations are pure point group operations),
 and found     1 'primitive' translations


----------------------------------------------------------------------------------------

                                     Primitive cell                                     

  volume of cell :    2405.0924

  direct lattice vectors                    reciprocal lattice vectors
    14.533048248  0.000000000  0.000000000     0.068808689  0.000000000  0.000000000
     0.000000000 14.533048248  0.000000000     0.000000000  0.068808689  0.000000000
     0.000000000  0.000000000 11.387236477     0.000000000  0.000000000  0.087817619

  length of vectors
    14.533048248 14.533048248 11.387236477     0.068808689  0.068808689  0.087817619

  position of ions in fractional coordinates (direct lattice)
     0.942658399  0.800823048  0.418796958
     0.005688600  0.888409629  0.167752729
     0.736590137  0.789916871  0.507311850
     0.749939023  0.998338391  0.476266565
     0.895923538  0.693564064  0.943468595
     0.675642841  0.772941768  0.043175533
     0.825023064  0.005432567  0.904328282
     0.860714131  0.748094950  0.698558427
     0.757748809  0.365723000  0.699803681
     0.372706394  0.664874969  0.672899875
     0.720722853  0.605641697  0.568612939
     0.503808965  0.997533329  0.316498213
     0.074925094  0.248475058  0.165657401
     0.379706302  0.237742278  0.448429258
     0.130635361  0.717461321  0.520284268
     0.490201359  0.279617870  0.769198920
     0.643379134  0.485451495  0.664376297
     0.455799079  0.418658900  0.213612847
     0.016019764  0.622336061  0.321381751
     0.750276185  0.096353496  0.522420871
     0.109334255  0.037002836  0.905865090
     0.977007697  0.137847888  0.677723697
     0.872886389  0.664665790  0.620031912
     0.456833961  0.036102405  0.656249654
     0.335068729  0.575615649  0.365023595
     0.225195014  0.139197914  0.837956603
     0.385572930  0.735379104  0.962428419
     0.037241120  0.173055230  0.389718788
     0.022577301  0.396380711  0.200937252
     0.853124533  0.355237932  0.865951104
     0.086243435  0.474415269  0.030831800
     0.696137509  0.091759139  0.722641531
     0.125140987  0.350350450  0.653731923
     0.645331237  0.243249038  0.687292304
     0.209524523  0.965874451  0.266650298
     0.490597697  0.419061431  0.891217111
     0.501327036  0.687797207  0.805050463
     0.753159269  0.382357500  0.038557204
     0.105829828  0.865400003  0.168810932
     0.531238861  0.722050861  0.410420914
     0.446145908  0.872377204  0.631435029
     0.521034533  0.697506802  0.208639735
     0.192382214  0.918967568  0.989309392
     0.492090157  0.102352925  0.472680093
     0.540895473  0.057280619  0.972711862
     0.270482141  0.537675914  0.728157356
     0.668651878  0.296681049  0.336105253
     0.108174828  0.214464987  0.573889022
     0.152447715  0.990253370  0.628613449
     0.450987287  0.811220041  0.120276768
     0.645340870  0.753929927  0.553766492
     0.958560087  0.484686342  0.873275972
     0.130089708  0.623770034  0.702134360
     0.305227776  0.076097594  0.681325975
     0.234968600  0.264423536  0.139074129
     0.405345107  0.337424050  0.596755851
     0.287175817  0.862427468  0.403968953
     0.451369175  0.601031515  0.516318425
     0.327047700  0.472342064  0.900490652
     0.041294572  0.179791600  0.976488020
     0.981734854  0.560501820  0.686538829
     0.895730873  0.164846353  0.506969361
     0.130881008  0.707497823  0.215448235
     0.204561352  0.850895131  0.576846719
     0.748163759  0.647281275  0.270590675
     0.310270765  0.807889701  0.697960389
     0.797038570  0.394447875  0.369817559
     0.789531542  0.101792822  0.896073426
     0.874544678  0.596459865  0.981721950
     0.324707516  0.591502887  0.028926860
     0.883228335  0.587254639  0.191990392
     0.333170297  0.328236026  0.287038037
     0.561394957  0.434266087  0.359895046
     0.168509039  0.627207716  0.046408802
     0.656187872  0.265736405  0.118307897
     0.143020237  0.283051424  0.839999241
     0.020707700  0.990308417  0.752292272
     0.309143679  0.152847494  0.010458288
     0.509685915  0.456424550  0.549235981
     0.446570457  0.862207280  0.427012297
     0.574498884  0.991003384  0.784757568
     0.299959095  0.013873070  0.104219316
     0.414306063  0.570873354  0.188196671
     0.699323351  0.526748406  0.398495281
     0.154722530  0.057698907  0.433634623
     0.590705395  0.827149253  0.735801001
     0.512810518  0.324414391  0.058444997
     0.688492863  0.119716110  0.046526302
     0.861980211  0.424892280  0.189708891
     0.256141722  0.156084942  0.516061119
     0.633716330  0.192625797  0.478379457
     0.073084461  0.478159150  0.381934634
     0.247932157  0.799708348  0.876836098
     0.205490269  0.374072934  0.980808647
     0.715940649  0.541913153  0.981414588
     0.866459657  0.338277966  0.527858538
     0.454146294  0.197769934  0.950212988
     0.113819893  0.706871664  0.873848543
     0.919566203  0.202292042  0.856698640
     0.973925068  0.707848748  0.477898216
     0.269386018  0.412763372  0.598910896
     0.235801185  0.446405316  0.389657316
     0.586397283  0.551666785  0.842973624
     0.006892222  0.431996777  0.559277048
     0.650862079  0.678349086  0.106184675
     0.453866242  0.972273659  0.117534224
     0.236319315  0.702323410  0.365398577

  ion indices of the primitive-cell ions
   primitive index   ion index
                 1           1
                 2           2
                 3           3
                 4           4
                 5           5
                 6           6
                 7           7
                 8           8
                 9           9
                10          10
                11          11
                12          12
                13          13
                14          14
                15          15
                16          16
                17          17
                18          18
                19          19
                20          20
                21          21
                22          22
                23          23
                24          24
                25          25
                26          26
                27          27
                28          28
                29          29
                30          30
                31          31
                32          32
                33          33
                34          34
                35          35
                36          36
                37          37
                38          38
                39          39
                40          40
                41          41
                42          42
                43          43
                44          44
                45          45
                46          46
                47          47
                48          48
                49          49
                50          50
                51          51
                52          52
                53          53
                54          54
                55          55
                56          56
                57          57
                58          58
                59          59
                60          60
                61          61
                62          62
                63          63
                64          64
                65          65
                66          66
                67          67
                68          68
                69          69
                70          70
                71          71
                72          72
                73          73
                74          74
                75          75
                76          76
                77          77
                78          78
                79          79
                80          80
                81          81
                82          82
                83          83
                84          84
                85          85
                86          86
                87          87
                88          88
                89          89
                90          90
                91          91
                92          92
                93          93
                94          94
                95          95
                96          96
                97          97
                98          98
                99          99
               100         100
               101         101
               102         102
               103         103
               104         104
               105         105
               106         106
               107         107

----------------------------------------------------------------------------------------


 -----------------------------------------------------------------------------
|                                                                             |
|           W    W    AA    RRRRR   N    N  II  N    N   GGGG   !!!           |
|           W    W   A  A   R    R  NN   N  II  NN   N  G    G  !!!           |
|           W    W  A    A  R    R  N N  N  II  N N  N  G       !!!           |
|           W WW W  AAAAAA  RRRRR   N  N N  II  N  N N  G  GGG   !            |
|           WW  WW  A    A  R   R   N   NN  II  N   NN  G    G                |
|           W    W  A    A  R    R  N    N  II  N    N   GGGG   !!!           |
|                                                                             |
|     The requested file  could not be found or opened for reading            |
|     k-point information. Automatic k-point generation is used as a          |
|     fallback, which may lead to unwanted results.                           |
|                                                                             |
 -----------------------------------------------------------------------------



Automatic generation of k-mesh.
 Grid dimensions derived from KSPACING:
 generate k-points for:    2    2    3

 Generating k-lattice:

  Cartesian coordinates                     Fractional coordinates (reciprocal lattice)
     0.034404345  0.000000000  0.000000000     0.500000000  0.000000000  0.000000000
     0.000000000  0.034404345  0.000000000     0.000000000  0.500000000  0.000000000
     0.000000000  0.000000000  0.029272540     0.000000000  0.000000000  0.333333333

  Length of vectors
     0.034404345  0.034404345  0.029272540

  Shift w.r.t. Gamma in fractional coordinates (k-lattice)
     0.000000000  0.000000000  0.000000000

 
 Subroutine IBZKPT returns following result:
 ===========================================
 
 Found      8 irreducible k-points:
 
 Following reciprocal coordinates:
            Coordinates               Weight
  0.000000  0.000000  0.000000      1.000000
  0.500000  0.000000  0.000000      1.000000
  0.000000  0.500000  0.000000      1.000000
  0.500000  0.500000  0.000000      1.000000
  0.000000  0.000000  0.333333      2.000000
  0.500000  0.000000  0.333333      2.000000
  0.000000  0.500000  0.333333      2.000000
  0.500000  0.500000  0.333333      2.000000
 
 Following cartesian coordinates:
            Coordinates               Weight
  0.000000  0.000000  0.000000      1.000000
  0.034404  0.000000  0.000000      1.000000
  0.000000  0.034404  0.000000      1.000000
  0.034404  0.034404  0.000000      1.000000
  0.000000  0.000000  0.029273      2.000000
  0.034404  0.000000  0.029273      2.000000
  0.000000  0.034404  0.029273      2.000000
  0.034404  0.034404  0.029273      2.000000
 


--------------------------------------------------------------------------------------------------------




 Dimension of arrays:
   k-points           NKPTS =      8   k-points in BZ     NKDIM =      8   number of bands    NBANDS=    256
   number of dos      NEDOS =   2000   number of ions     NIONS =    107
   non local maximal  LDIM  =      4   non local SUM 2l+1 LMDIM =      8
   total plane-waves  NPLWV = ******
   max r-space proj   IRMAX =      1   max aug-charges    IRDMAX= 439594
   dimension x,y,z NGX =   168 NGY =  168 NGZ =  140
   dimension x,y,z NGXF=   336 NGYF=  336 NGZF=  280
   support grid    NGXF=   672 NGYF=  672 NGZF=  560
   ions per type =               8  99
   NGX,Y,Z   is equivalent  to a cutoff of  19.22, 19.22, 20.44 a.u.
   NGXF,Y,Z  is equivalent  to a cutoff of  38.44, 38.44, 40.88 a.u.

 SYSTEM =  a-Si SPC                                
 POSCAR =   H Si                                   

 Startparameter for this run:
   NWRITE =      2    write-flag & timer
   PREC   = accura    normal or accurate (medium, high low for compatibility)
   ISTART =      1    job   : 0-new  1-cont  2-samecut
   ICHARG =      1    charge: 1-file 2-atom 10-const
   ISPIN  =      1    spin polarized calculation?
   LNONCOLLINEAR =      F non collinear calculations
   LSORBIT =      F    spin-orbit coupling
   INIWAV =      1    electr: 0-lowe 1-rand  2-diag
   LASPH  =      T    aspherical Exc in radial PAW
 Electronic Relaxation 1
   ENCUT  = 1200.0 eV  88.20 Ry    9.39 a.u.  41.05 41.05 32.16*2*pi/ulx,y,z
   ENINI  = 1200.0     initial cutoff
   ENAUG  =  400.0 eV  augmentation charge cutoff
   NELM   =    150;   NELMIN=  2; NELMDL=  0     # of ELM steps 
   EDIFF  = 0.1E-05   stopping-criterion for ELM
   LREAL  =      F    real-space projection
   NLSPLINE    = F    spline interpolate recip. space projectors
   LCOMPAT=      F    compatible to vasp.4.4
   GGA_COMPAT  = T    GGA compatible to vasp.4.4-vasp.4.6
   LMAXPAW     = -100 max onsite density
   LMAXMIX     =    2 max onsite mixed and CHGCAR
   VOSKOWN=      0    Vosko Wilk Nusair interpolation
   ROPT   =    0.00000   0.00000
 Ionic relaxation
   EDIFFG = -.1E-01   stopping-criterion for IOM
   NSW    =      0    number of steps for IOM
   NBLOCK =      1;   KBLOCK =      1    inner block; outer block 
   IBRION =     -1    ionic relax: 0-MD 1-quasi-New 2-CG
   NFREE  =      0    steps in history (QN), initial steepest desc. (CG)
   ISIF   =      2    stress and relaxation
   IWAVPR =     10    prediction:  0-non 1-charg 2-wave 3-comb
   ISYM   =      1    0-nonsym 1-usesym 2-fastsym
   LCORR  =      T    Harris-Foulkes like correction to forces

   POTIM  = 0.5000    time-step for ionic-motion
   TEIN   =    0.0    initial temperature
   TEBEG  =    0.0;   TEEND  =   0.0 temperature during run
   SMASS  =  -3.00    Nose mass-parameter (am)
   estimated Nose-frequenzy (Omega)   =  0.10E-29 period in steps = 0.13E+47 mass=  -0.483E-26a.u.
   SCALEE = 1.0000    scale energy and forces
   NPACO  =    256;   APACO  = 10.0  distance and # of slots for P.C.
   PSTRESS=    0.0 pullay stress

  Mass of Ions in am
   POMASS =   1.00 28.09
  Ionic Valenz
   ZVAL   =   1.00  4.00
  Atomic Wigner-Seitz radii
   RWIGS  =  -1.00 -1.00
  virtual crystal weights 
   VCA    =   1.00  1.00
   NELECT =     404.0000    total number of electrons
   NUPDOWN=      -1.0000    fix difference up-down

 DOS related values:
   EMIN   =  10.00;   EMAX   =-10.00  energy-range for DOS
   EFERMI =   0.00;   METHOD = LEGACY      
   ISMEAR =     0;   SIGMA  =   0.10  broadening in eV -4-tet -1-fermi 0-gaus
   EFERMI_NEDOS =   21; number of points for ismear=-14 and -15

 Electronic relaxation 2 (details)
   IALGO  =     38    algorithm
   LDIAG  =      F    sub-space diagonalisation (order eigenvalues)
   LSUBROT=      F    optimize rotation matrix (better conditioning)
   TURBO    =      0    0=normal 1=particle mesh
   IRESTART =      0    0=no restart 2=restart with 2 vectors
   NREBOOT  =      0    no. of reboots
   NMIN     =      0    reboot dimension
   EREF     =   0.00    reference energy to select bands
   IMIX   =      4    mixing-type and parameters
     AMIX     =   0.40;   BMIX     =  1.00
     AMIX_MAG =   1.60;   BMIX_MAG =  1.00
     AMIN     =   0.10
     WC   =   100.;   INIMIX=   1;  MIXPRE=   1;  MAXMIX= -45

 Intra band minimization:
   WEIMIN = 0.0000     energy-eigenvalue tresh-hold
   EBREAK =  0.98E-09  absolut break condition
   DEPER  =   0.30     relativ break condition  

   TIME   =   0.40     timestep for ELM

  volume/ion in A,a.u.               =      22.48       151.69
  Fermi-wavevector in a.u.,A,eV,Ry     =   0.903285  1.706961 11.101312  0.815923
  Thomas-Fermi vector in A             =   2.026592

 Write flags
   LWAVE        =      F    write WAVECAR
   LDOWNSAMPLE  =      F    k-point downsampling of WAVECAR
   LCHARG       =      F    write CHGCAR
   LVTOT        =      F    write LOCPOT, total local potential
   LVHAR        =      F    write LOCPOT, Hartree potential only
   WRT_POTENTIAL= false  ! write potential to hdf5 file
   LELF         =      F    write electronic localiz. function (ELF)
   LORBIT       =     11    0 simple, 1 ext, 2 COOP (PROOUT), +10 PAW based schemes


 Python interface
   PLUGINS active      =      F    recompile with -DPLUGINS to activate

 Dipole corrections
   LMONO      =      F    monopole corrections only (constant potential shift)
   LDIPOL     =      F    correct potential (dipole corrections)
   IDIPOL     =      0    1-x, 2-y, 3-z, 4-all directions 
   EPSILON    =  1.0000000 bulk dielectric constant
   LVACPOTAV  =      F  vacuum potentials using an averaging scheme for the charge density
   VACPOTFLAT =  0.1000000 required flatness to determine vacuum potential

Coulomb truncation method
  LTRUNCATE          =      F  Coulomb kernel truncation to be used
  IDIMENSIONALITY    =      3  Dimensionality of cutoff (0 molecules / 2 surfaces)
  ISURFACE           =     -1  Direction of surface normal
  LCOARSEN           =      F  Coarsen the charge grid before padding, preferred


 Exchange correlation treatment:
   METAGGA = SCAN    functional components
   XC_C    = 1    coefficients multiplying the functional components
   LIBXC   =     F    Libxc                    
   VOSKOWN =     0    Vosko Wilk Nusair interpolation
   LHFCALC =     F    Hartree Fock is set to
   LHFONE  =     F    Hartree Fock one center treatment
   AEXX    =    0.0000 exact exchange contribution

 Parameters of functionals:
   SCAN:
     P1 =  0.000000E+00
     P2 =  0.000000E+00
     P3 =  0.000000E+00

 Accuracy and mixing parameters for tau-dependent meta-GGA functionals:
   LMAXTAU = 6
   LMIXTAU = T

 Van der Waals corrections
   IVDW    =     0    specifies the selected vdW correction

 Linear response parameters
   LEPSILON=     F    determine dielectric tensor
   LRPA    =     F    only Hartree local field effects (RPA)
   LNABLA  =     F    use nabla operator in PAW spheres
   LVEL    =     F    velocity operator in full k-point grid
   CSHIFT  =0.1000    complex shift for real part using Kramers Kronig
   OMEGAMAX=  -1.0    maximum frequency
   DEG_THRESHOLD= 0.2000000E-02 threshold for treating states as degnerate
   RTIME   =   -0.100 relaxation time in fs
  (WPLASMAI=    0.000 imaginary part of plasma frequency in eV, 0.658/RTIME)
   DFIELD  = 0.0000000 0.0000000 0.0000000 field for delta impulse in time

  Optional k-point grid parameters
   LKPOINTS_OPT  =     F    use optional k-point grid
   KPOINTS_OPT_MODE=     1    mode for optional k-point grid

 Orbital magnetization related:
   ORBITALMAG=     F  switch on orbital magnetization
   LCHIMAG   =     F  perturbation theory with respect to B field
   DQ        =  0.001000  dq finite difference perturbation B field
   LLRAUG    =     F  two centre corrections for induced B field
   LBONE     =     F  B-component reconstruction in AE one-centre
   LVGVCALC  =     T  calculate vGv susceptibility
   LVGVAPPL  =     F  apply vGv susceptibility instead of pGv for G=0

 Random number generation:
   RANDOM_GENERATOR = DEFAULT
   PCG_SEED         = not used


--------------------------------------------------------------------------------------------------------


 Static calculation
 charge density and potential will be updated during run
 non-spin polarized calculation
 Variant of blocked Davidson
 perform Loewdin sub-space diagonalisation
    ordering is kept fixed
    before iterative eigenvector-optimisation
 modified Broyden-mixing scheme, WC =      100.0
 initial mixing is a Kerker type mixing with AMIX =  0.4000 and BMIX =      1.0000
 Hartree-type preconditioning will be used
 using additional bands           54
 reciprocal scheme for non local part
 use partial core corrections
 calculate Harris-corrections to forces   (improved forces if not selfconsistent)
 use gradient corrections 
 use of overlap-Matrix (Vanderbilt PP)
 Gauss-broadening in eV      SIGMA  =   0.10


--------------------------------------------------------------------------------------------------------


  energy-cutoff  :     1200.00
  volume of cell :     2405.09
      direct lattice vectors                 reciprocal lattice vectors
    14.533048248  0.000000000  0.000000000     0.068808689  0.000000000  0.000000000
     0.000000000 14.533048248  0.000000000     0.000000000  0.068808689  0.000000000
     0.000000000  0.000000000 11.387236477     0.000000000  0.000000000  0.087817619

  length of vectors
    14.533048248 14.533048248 11.387236477     0.068808689  0.068808689  0.087817619



 old parameters found on file WAVECAR:
  energy-cutoff  :     1200.00
  volume of cell :     2405.09
      direct lattice vectors                 reciprocal lattice vectors
    14.533048248  0.000000000  0.000000000     0.068808689  0.000000000  0.000000000
     0.000000000 14.533048248  0.000000000     0.000000000  0.068808689  0.000000000
     0.000000000  0.000000000 11.387236477     0.000000000  0.000000000  0.087817619

  length of vectors


 k-points in units of 2pi/SCALE and weight: read from INCAR                         
   0.00000000  0.00000000  0.00000000       0.083
   0.03440434  0.00000000  0.00000000       0.083
   0.00000000  0.03440434  0.00000000       0.083
   0.03440434  0.03440434  0.00000000       0.083
   0.00000000  0.00000000  0.02927254       0.167
   0.03440434  0.00000000  0.02927254       0.167
   0.00000000  0.03440434  0.02927254       0.167
   0.03440434  0.03440434  0.02927254       0.167

 k-points in reciprocal lattice and weights: read from INCAR                         
   0.00000000  0.00000000  0.00000000       0.083
   0.50000000  0.00000000  0.00000000       0.083
   0.00000000  0.50000000  0.00000000       0.083
   0.50000000  0.50000000  0.00000000       0.083
   0.00000000  0.00000000  0.33333333       0.167
   0.50000000  0.00000000  0.33333333       0.167
   0.00000000  0.50000000  0.33333333       0.167
   0.50000000  0.50000000  0.33333333       0.167

 position of ions in fractional coordinates (direct lattice) 
   0.94265840  0.80082305  0.41879696
   0.00568860  0.88840963  0.16775273
   0.73659014  0.78991687  0.50731185
   0.74993902  0.99833839  0.47626656
   0.89592354  0.69356406  0.94346860
   0.67564284  0.77294177  0.04317553
   0.82502306  0.00543257  0.90432828
   0.86071413  0.74809495  0.69855843
   0.75774881  0.36572300  0.69980368
   0.37270639  0.66487497  0.67289987
   0.72072285  0.60564170  0.56861294
   0.50380897  0.99753333  0.31649821
   0.07492509  0.24847506  0.16565740
   0.37970630  0.23774228  0.44842926
   0.13063536  0.71746132  0.52028427
   0.49020136  0.27961787  0.76919892
   0.64337913  0.48545150  0.66437630
   0.45579908  0.41865890  0.21361285
   0.01601976  0.62233606  0.32138175
   0.75027619  0.09635350  0.52242087
   0.10933425  0.03700284  0.90586509
   0.97700770  0.13784789  0.67772370
   0.87288639  0.66466579  0.62003191
   0.45683396  0.03610241  0.65624965
   0.33506873  0.57561565  0.36502360
   0.22519501  0.13919791  0.83795660
   0.38557293  0.73537910  0.96242842
   0.03724112  0.17305523  0.38971879
   0.02257730  0.39638071  0.20093725
   0.85312453  0.35523793  0.86595110
   0.08624343  0.47441527  0.03083180
   0.69613751  0.09175914  0.72264153
   0.12514099  0.35035045  0.65373192
   0.64533124  0.24324904  0.68729230
   0.20952452  0.96587445  0.26665030
   0.49059770  0.41906143  0.89121711
   0.50132704  0.68779721  0.80505046
   0.75315927  0.38235750  0.03855720
   0.10582983  0.86540000  0.16881093
   0.53123886  0.72205086  0.41042091
   0.44614591  0.87237720  0.63143503
   0.52103453  0.69750680  0.20863973
   0.19238221  0.91896757  0.98930939
   0.49209016  0.10235293  0.47268009
   0.54089547  0.05728062  0.97271186
   0.27048214  0.53767591  0.72815736
   0.66865188  0.29668105  0.33610525
   0.10817483  0.21446499  0.57388902
   0.15244772  0.99025337  0.62861345
   0.45098729  0.81122004  0.12027677
   0.64534087  0.75392993  0.55376649
   0.95856009  0.48468634  0.87327597
   0.13008971  0.62377003  0.70213436
   0.30522778  0.07609759  0.68132598
   0.23496860  0.26442354  0.13907413
   0.40534511  0.33742405  0.59675585
   0.28717582  0.86242747  0.40396895
   0.45136918  0.60103151  0.51631842
   0.32704770  0.47234206  0.90049065
   0.04129457  0.17979160  0.97648802
   0.98173485  0.56050182  0.68653883
   0.89573087  0.16484635  0.50696936
   0.13088101  0.70749782  0.21544823
   0.20456135  0.85089513  0.57684672
   0.74816376  0.64728128  0.27059067
   0.31027077  0.80788970  0.69796039
   0.79703857  0.39444788  0.36981756
   0.78953154  0.10179282  0.89607343
   0.87454468  0.59645987  0.98172195
   0.32470752  0.59150289  0.02892686
   0.88322833  0.58725464  0.19199039
   0.33317030  0.32823603  0.28703804
   0.56139496  0.43426609  0.35989505
   0.16850904  0.62720772  0.04640880
   0.65618787  0.26573641  0.11830790
   0.14302024  0.28305142  0.83999924
   0.02070770  0.99030842  0.75229227
   0.30914368  0.15284749  0.01045829
   0.50968592  0.45642455  0.54923598
   0.44657046  0.86220728  0.42701230
   0.57449888  0.99100338  0.78475757
   0.29995909  0.01387307  0.10421932
   0.41430606  0.57087335  0.18819667
   0.69932335  0.52674841  0.39849528
   0.15472253  0.05769891  0.43363462
   0.59070539  0.82714925  0.73580100
   0.51281052  0.32441439  0.05844500
   0.68849286  0.11971611  0.04652630
   0.86198021  0.42489228  0.18970889
   0.25614172  0.15608494  0.51606112
   0.63371633  0.19262580  0.47837946
   0.07308446  0.47815915  0.38193463
   0.24793216  0.79970835  0.87683610
   0.20549027  0.37407293  0.98080865
   0.71594065  0.54191315  0.98141459
   0.86645966  0.33827797  0.52785854
   0.45414629  0.19776993  0.95021299
   0.11381989  0.70687166  0.87384854
   0.91956620  0.20229204  0.85669864
   0.97392507  0.70784875  0.47789822
   0.26938602  0.41276337  0.59891090
   0.23580119  0.44640532  0.38965732
   0.58639728  0.55166678  0.84297362
   0.00689222  0.43199678  0.55927705
   0.65086208  0.67834909  0.10618467
   0.45386624  0.97227366  0.11753422
   0.23631931  0.70232341  0.36539858

 position of ions in cartesian coordinates  (Angst):
  13.69970000 11.63840000  4.76894000
   0.08267270 12.91130000  1.91024000
  10.70490000 11.47990000  5.77688000
  10.89890000 14.50890000  5.42336000
  13.02050000 10.07960000 10.74350000
   9.81915000 11.23320000  0.49165000
  11.99010000  0.07895175 10.29780000
  12.50880000 10.87210000  7.95465000
  11.01240000  5.31507000  7.96883000
   5.41656000  9.66266000  7.66247000
  10.47430000  8.80182000  6.47493000
   7.32188000 14.49720000  3.60404000
   1.08889000  3.61110000  1.88638000
   5.51829000  3.45512000  5.10637000
   1.89853000 10.42690000  5.92460000
   7.12412000  4.06370000  8.75905000
   9.35026000  7.05509000  7.56541000
   6.62415000  6.08439000  2.43246000
   0.23281600  9.04444000  3.65965000
  10.90380000  1.40031000  5.94893000
   1.58896000  0.53776400 10.31530000
  14.19890000  2.00335000  7.71740000
  12.68570000  9.65962000  7.06045000
   6.63919000  0.52467800  7.47287000
   4.86957000  8.36545000  4.15661000
   3.27277000  2.02297000  9.54201000
   5.60355000 10.68730000 10.95940000
   0.54122700  2.51502000  4.43782000
   0.32811700  5.76062000  2.28812000
  12.39850000  5.16269000  9.86079000
   1.25338000  6.89470000  0.35108900
  10.11700000  1.33354000  8.22889000
   1.81868000  5.09166000  7.44420000
   9.37863000  3.53515000  7.82636000
   3.04503000 14.03710000  3.03641000
   7.12988000  6.09024000 10.14850000
   7.28581000  9.99579000  9.16730000
  10.94570000  5.55682000  0.43906000
   1.53803000 12.57690000  1.92229000
   7.72052000 10.49360000  4.67356000
   6.48386000 12.67830000  7.19030000
   7.57222000 10.13690000  2.37583000
   2.79590000 13.35540000 11.26550000
   7.15157000  1.48750000  5.38252000
   7.86086000  0.83246200 11.07650000
   3.93093000  7.81407000  8.29170000
   9.71755000  4.31168000  3.82731000
   1.57211000  3.11683000  6.53501000
   2.21553000 14.39140000  7.15817000
   6.55422000 11.78950000  1.36962000
   9.37877000 10.95690000  6.30587000
  13.93080000  7.04397000  9.94420000
   1.89060000  9.06528000  7.99537000
   4.43589000  1.10593000  7.75842000
   3.41481000  3.84288000  1.58367000
   5.89090000  4.90380000  6.79540000
   4.17354000 12.53370000  4.60009000
   6.55977000  8.73482000  5.87944000
   4.75300000  6.86457000 10.25410000
   0.60013600  2.61292000 11.11950000
  14.26760000  8.14580000  7.81778000
  13.01770000  2.39572000  5.77298000
   1.90210000 10.28210000  2.45336000
   2.97290000 12.36610000  6.56869000
  10.87310000  9.40697000  3.08128000
   4.50918000 11.74110000  7.94784000
  11.58340000  5.73253000  4.21120000
  11.47430000  1.47936000 10.20380000
  12.70980000  8.66838000 11.17910000
   4.71899000  8.59634000  0.32939700
  12.83600000  8.53460000  2.18624000
   4.84198000  4.77027000  3.26857000
   8.15878000  6.31121000  4.09821000
   2.44895000  9.11524000  0.52846800
   9.53641000  3.86196000  1.34720000
   2.07852000  4.11360000  9.56527000
   0.30094600 14.39220000  8.56653000
   4.49280000  2.22134000  0.11909100
   7.40729000  6.63324000  6.25428000
   6.49003000 12.53050000  4.86249000
   8.34922000 14.40230000  8.93622000
   4.35932000  0.20161800  1.18677000
   6.02113000  8.29653000  2.14304000
  10.16330000  7.65526000  4.53776000
   2.24859000  0.83854100  4.93790000
   8.58475000 12.02100000  8.37874000
   7.45270000  4.71473000  0.66552700
  10.00590000  1.73984000  0.52980600
  12.52720000  6.17498000  2.16026000
   3.72252000  2.26839000  5.87651000
   9.20983000  2.79944000  5.44742000
   1.06214000  6.94911000  4.34918000
   3.60321000 11.62220000  9.98474000
   2.98640000  5.43642000 11.16870000
  10.40480000  7.87565000 11.17560000
  12.59230000  4.91621000  6.01085000
   6.60013000  2.87420000 10.82030000
   1.65415000 10.27300000  9.95072000
  13.36410000  2.93992000  9.75543000
  14.15410000 10.28720000  5.44194000
   3.91500000  5.99871000  6.81994000
   3.42691000  6.48763000  4.43712000
   8.52214000  8.01740000  9.59914000
   0.10016500  6.27823000  6.36862000
   9.45901000  9.85848000  1.20915000
   6.59606000 14.13010000  1.33839000
   3.43444000 10.20690000  4.16088000



--------------------------------------------------------------------------------------------------------


 k-point     1 :   0.0000 0.0000 0.0000  plane waves:  227033
 k-point     2 :   0.5000 0.0000 0.0000  plane waves:  227074
 k-point     3 :   0.0000 0.5000 0.0000  plane waves:  227074
 k-point     4 :   0.5000 0.5000 0.0000  plane waves:  227204
 k-point     5 :   0.0000 0.0000 0.3333  plane waves:  226976
 k-point     6 :   0.5000 0.0000 0.3333  plane waves:  227020
 k-point     7 :   0.0000 0.5000 0.3333  plane waves:  227020
 k-point     8 :   0.5000 0.5000 0.3333  plane waves:  227068

 maximum and minimum number of plane-waves per node :     14276    14122

 maximum number of plane-waves:    227204
 maximum index in each direction: 
   IXMAX=   41   IYMAX=   41   IZMAX=   32
   IXMIN=  -41   IYMIN=  -41   IZMIN=  -32


 parallel 3D FFT for wavefunctions:
    minimum data exchange during FFTs selected (reduces bandwidth)
 parallel 3D FFT for charge:
    minimum data exchange during FFTs selected (reduces bandwidth)


 total amount of memory used by VASP MPI-rank0   212017. kBytes
=======================================================================

   base                                    :      30000. kBytes
   nonl-proj                               :      38938. kBytes
   fftplans                                :      47718. kBytes
   grid                                    :      36817. kBytes
   one-center                              :         21. kBytes
   wavefun                                 :      58523. kBytes

     INWAV:  cpu time     12.5545: real time     12.5625
 Broyden mixing: mesh for mixing (old mesh)
   NGX = 83   NGY = 83   NGZ = 65
  (NGX  =336   NGY  =336   NGZ  =280)
  gives a total of 447785 points

 initial charge density was supplied:
 number of electron     403.9999999 magnetization 
 keeping initial charge density in first step


--------------------------------------------------------------------------------------------------------


 Maximum index for augmentation-charges        12267 (set IRDMAX)


--------------------------------------------------------------------------------------------------------


 First call to EWALD:  gamma=   0.132
 Maximum number of real-space cells   3x   3x   3
 Maximum number of reciprocal cells   3x   3x   2

    FEWALD:  cpu time      0.0194: real time      0.0194


--------------------------------------- Ionic step        1  -------------------------------------------




--------------------------------------- Iteration      1(   1)  ---------------------------------------


    POTLOK:  cpu time      0.8344: real time      0.8351
    SETDIJ:  cpu time      1.5050: real time      1.5062
    EDDIAG:  cpu time     26.7936: real time     26.8178
     EDDAV:  cpu time    124.2434: real time    124.3554
       DOS:  cpu time      0.0085: real time      0.0087
    CHARGE:  cpu time     12.6828: real time     12.6929
    MIXING:  cpu time      0.0258: real time      0.0262
    --------------------------------------------
      LOOP:  cpu time    166.0936: real time    166.2424

 eigenvalue-minimisations  :  4112
 total energy-change (2. order) :-0.1052822E+04  (-0.1157331E+01)
 number of electron     403.9999999 magnetization 
 augmentation part      -21.9762648 magnetization 

 Broyden mixing:
  rms(total) = 0.12742E+01    rms(broyden)= 0.45912E+02
  rms(prec ) = 0.13591E+01
  weight for this iteration     100.00
  WARNING: grid for Broyden might be to small

 Free energy of the ion-electron system (eV)
  ---------------------------------------------------
  alpha Z        PSCENC =       143.22582148
  Ewald energy   TEWEN  =     -8216.62748861
  -Hartree energ DENC   =     -3265.02539812
  -exchange      EXHF   =         0.00000000
  -V(xc)+E(xc)   XCENC  =      -458.91375714
  PAW double counting   =     37828.82929814   -36842.07145490
  entropy T*S    EENTRO =        -0.13450289
  eigenvalues    EBANDS =      -545.62785265
  atomic energy  EATOM  =     10303.52363856
  Solvation  Ediel_sol  =         0.00000000
  ---------------------------------------------------
  free energy    TOTEN  =     -1052.82169613 eV

  energy without entropy =    -1052.68719324  energy(sigma->0) =    -1052.75444468


--------------------------------------------------------------------------------------------------------




--------------------------------------- Iteration      1(   2)  ---------------------------------------


    POTLOK:  cpu time      0.8145: real time      0.8318
    SETDIJ:  cpu time      1.4940: real time      1.4946
    EDDIAG:  cpu time     26.9279: real time     26.9504
     EDDAV:  cpu time    123.8344: real time    123.9471
       DOS:  cpu time      0.0037: real time      0.0037
    CHARGE:  cpu time     12.7735: real time     12.7854
    MIXING:  cpu time      0.0199: real time      0.0201
    --------------------------------------------
      LOOP:  cpu time    165.8679: real time    166.0331

 eigenvalue-minimisations  :  4096
 total energy-change (2. order) : 0.7224965E+02  (-0.1074536E+01)
 number of electron     403.9999999 magnetization 
 augmentation part      -21.8932500 magnetization 

 Broyden mixing:
  rms(total) = 0.84781E+00    rms(broyden)= 0.26429E+02
  rms(prec ) = 0.89328E+00
  weight for this iteration     100.00
  WARNING: grid for Broyden might be to small

 eigenvalues of (default mixing * dielectric matrix)
  average eigenvalue GAMMA=   0.6347
  0.6347

 Free energy of the ion-electron system (eV)
  ---------------------------------------------------
  alpha Z        PSCENC =       143.22582148
  Ewald energy   TEWEN  =     -8216.62748861
  -Hartree energ DENC   =     -3255.11136985
  -exchange      EXHF   =         0.00000000
  -V(xc)+E(xc)   XCENC  =      -448.23454507
  PAW double counting   =     45418.23141431   -44431.19746582
  entropy T*S    EENTRO =        -0.12454695
  eigenvalues    EBANDS =      -494.25750345
  atomic energy  EATOM  =     10303.52363856
  Solvation  Ediel_sol  =         0.00000000
  ---------------------------------------------------
  free energy    TOTEN  =      -980.57204540 eV

  energy without entropy =     -980.44749845  energy(sigma->0) =     -980.50977192


--------------------------------------------------------------------------------------------------------




--------------------------------------- Iteration      1(   3)  ---------------------------------------


    POTLOK:  cpu time      0.8174: real time      0.8338
    SETDIJ:  cpu time      1.4975: real time      1.4982
    EDDIAG:  cpu time     26.8620: real time     26.8852
     EDDAV:  cpu time    123.8691: real time    123.9790
       DOS:  cpu time      0.0052: real time      0.0052
    CHARGE:  cpu time     12.6907: real time     12.7029
    MIXING:  cpu time      0.0170: real time      0.0170
    --------------------------------------------
      LOOP:  cpu time    165.7588: real time    165.9212

 eigenvalue-minimisations  :  4096
 total energy-change (2. order) :-0.4023255E+01  (-0.8841425E+00)
 number of electron     403.9999999 magnetization 
 augmentation part      -21.8233943 magnetization 

 Broyden mixing:
  rms(total) = 0.47192E+00    rms(broyden)= 0.23518E+02
  rms(prec ) = 0.54573E+00
  weight for this iteration     100.00
  WARNING: grid for Broyden might be to small

 eigenvalues of (default mixing * dielectric matrix)
  average eigenvalue GAMMA=   0.7005
  0.7752  0.6257

 Free energy of the ion-electron system (eV)
  ---------------------------------------------------
  alpha Z        PSCENC =       143.22582148
  Ewald energy   TEWEN  =     -8216.62748861
  -Hartree energ DENC   =     -3259.08449837
  -exchange      EXHF   =         0.00000000
  -V(xc)+E(xc)   XCENC  =      -454.23009482
  PAW double counting   =     52092.75590025   -51105.82983364
  entropy T*S    EENTRO =        -0.15013636
  eigenvalues    EBANDS =      -488.17860891
  atomic energy  EATOM  =     10303.52363856
  Solvation  Ediel_sol  =         0.00000000
  ---------------------------------------------------
  free energy    TOTEN  =      -984.59530043 eV

  energy without entropy =     -984.44516407  energy(sigma->0) =     -984.52023225


--------------------------------------------------------------------------------------------------------




--------------------------------------- Iteration      1(   4)  ---------------------------------------


    POTLOK:  cpu time      0.8203: real time      0.8342
    SETDIJ:  cpu time      1.4943: real time      1.4948
    EDDIAG:  cpu time     26.8967: real time     26.9225
     EDDAV:  cpu time    129.5722: real time    129.6890
       DOS:  cpu time      0.0046: real time      0.0046
    CHARGE:  cpu time     12.7775: real time     12.7880
    MIXING:  cpu time      0.0175: real time      0.0175
    --------------------------------------------
      LOOP:  cpu time    171.5832: real time    171.7508

 eigenvalue-minimisations  :  4416
 total energy-change (2. order) :-0.2758819E+00  (-0.1436368E+00)
 number of electron     403.9999999 magnetization 
 augmentation part      -21.8125877 magnetization 

 Broyden mixing:
  rms(total) = 0.12266E+00    rms(broyden)= 0.11100E+01
  rms(prec ) = 0.23021E+00
  weight for this iteration     100.00
  WARNING: grid for Broyden might be to small

 eigenvalues of (default mixing * dielectric matrix)
  average eigenvalue GAMMA=   0.9137
  1.5149  0.6296  0.5968

 Free energy of the ion-electron system (eV)
  ---------------------------------------------------
  alpha Z        PSCENC =       143.22582148
  Ewald energy   TEWEN  =     -8216.62748861
  -Hartree energ DENC   =     -3264.71163492
  -exchange      EXHF   =         0.00000000
  -V(xc)+E(xc)   XCENC  =      -454.95463391
  PAW double counting   =     60191.82545490   -59204.95731596
  entropy T*S    EENTRO =        -0.10169606
  eigenvalues    EBANDS =      -482.09332784
  atomic energy  EATOM  =     10303.52363856
  Solvation  Ediel_sol  =         0.00000000
  ---------------------------------------------------
  free energy    TOTEN  =      -984.87118235 eV

  energy without entropy =     -984.76948629  energy(sigma->0) =     -984.82033432


--------------------------------------------------------------------------------------------------------




--------------------------------------- Iteration      1(   5)  ---------------------------------------


    POTLOK:  cpu time      0.8385: real time      0.8450
    SETDIJ:  cpu time      1.4937: real time      1.4943
    EDDIAG:  cpu time     26.8845: real time     26.9084
     EDDAV:  cpu time    137.9484: real time    138.0689
       DOS:  cpu time      0.0048: real time      0.0048
    CHARGE:  cpu time     12.6634: real time     12.6749
    MIXING:  cpu time      0.0173: real time      0.0173
    --------------------------------------------
      LOOP:  cpu time    179.8506: real time    180.0135

 eigenvalue-minimisations  :  4912
 total energy-change (2. order) : 0.1400151E-01  (-0.3199014E-01)
 number of electron     403.9999999 magnetization 
 augmentation part      -21.8140131 magnetization 

 Broyden mixing:
  rms(total) = 0.51290E-01    rms(broyden)= 0.17107E+01
  rms(prec ) = 0.81023E-01
  weight for this iteration     100.00
  WARNING: grid for Broyden might be to small

 eigenvalues of (default mixing * dielectric matrix)
  average eigenvalue GAMMA=   0.9611
  2.0168  0.7412  0.6143  0.4722

 Free energy of the ion-electron system (eV)
  ---------------------------------------------------
  alpha Z        PSCENC =       143.22582148
  Ewald energy   TEWEN  =     -8216.62748861
  -Hartree energ DENC   =     -3265.76545280
  -exchange      EXHF   =         0.00000000
  -V(xc)+E(xc)   XCENC  =      -455.98586625
  PAW double counting   =     60647.35005525   -59660.47256685
  entropy T*S    EENTRO =        -0.14462175
  eigenvalues    EBANDS =      -479.96069988
  atomic energy  EATOM  =     10303.52363856
  Solvation  Ediel_sol  =         0.00000000
  ---------------------------------------------------
  free energy    TOTEN  =      -984.85718084 eV

  energy without entropy =     -984.71255909  energy(sigma->0) =     -984.78486996


--------------------------------------------------------------------------------------------------------




--------------------------------------- Iteration      1(   6)  ---------------------------------------


    POTLOK:  cpu time      0.8277: real time      0.8426
    SETDIJ:  cpu time      1.4959: real time      1.4964
    EDDIAG:  cpu time     26.9214: real time     26.9431
     EDDAV:  cpu time    129.9771: real time    130.0904
       DOS:  cpu time      0.0040: real time      0.0040
    CHARGE:  cpu time     12.7069: real time     12.7173
    MIXING:  cpu time      0.0175: real time      0.0175
    --------------------------------------------
      LOOP:  cpu time    171.9506: real time    172.1114

 eigenvalue-minimisations  :  4448
 total energy-change (2. order) :-0.5916069E-02  (-0.5748363E-02)
 number of electron     403.9999999 magnetization 
 augmentation part      -21.8137983 magnetization 

 Broyden mixing:
  rms(total) = 0.28154E-01    rms(broyden)= 0.35168E+00
  rms(prec ) = 0.38811E-01
  weight for this iteration     100.00
  WARNING: grid for Broyden might be to small

 eigenvalues of (default mixing * dielectric matrix)
  average eigenvalue GAMMA=   0.9693
  2.4687  0.8479  0.6209  0.5348  0.3745

 Free energy of the ion-electron system (eV)
  ---------------------------------------------------
  alpha Z        PSCENC =       143.22582148
  Ewald energy   TEWEN  =     -8216.62748861
  -Hartree energ DENC   =     -3266.20205687
  -exchange      EXHF   =         0.00000000
  -V(xc)+E(xc)   XCENC  =      -456.33049744
  PAW double counting   =     60319.35457779   -59332.45325317
  entropy T*S    EENTRO =        -0.13649596
  eigenvalues    EBANDS =      -479.21734268
  atomic energy  EATOM  =     10303.52363856
  Solvation  Ediel_sol  =         0.00000000
  ---------------------------------------------------
  free energy    TOTEN  =      -984.86309690 eV

  energy without entropy =     -984.72660094  energy(sigma->0) =     -984.79484892


--------------------------------------------------------------------------------------------------------




--------------------------------------- Iteration      1(   7)  ---------------------------------------


    POTLOK:  cpu time      0.8226: real time      0.8372
    SETDIJ:  cpu time      1.4935: real time      1.4940
    EDDIAG:  cpu time     26.8776: real time     26.9008
     EDDAV:  cpu time    131.1106: real time    131.2197
       DOS:  cpu time      0.0057: real time      0.0057
    CHARGE:  cpu time     12.6128: real time     12.6227
    MIXING:  cpu time      0.0178: real time      0.0178
    --------------------------------------------
      LOOP:  cpu time    172.9406: real time    173.0977

 eigenvalue-minimisations  :  4512
 total energy-change (2. order) :-0.4953134E-03  (-0.6826788E-03)
 number of electron     403.9999999 magnetization 
 augmentation part      -21.8130102 magnetization 

 Broyden mixing:
  rms(total) = 0.17780E-01    rms(broyden)= 0.18544E+00
  rms(prec ) = 0.20961E-01
  weight for this iteration     100.00
  WARNING: grid for Broyden might be to small

 eigenvalues of (default mixing * dielectric matrix)
  average eigenvalue GAMMA=   0.9684
  2.5660  1.0099  0.6761  0.6245  0.5250  0.4090

 Free energy of the ion-electron system (eV)
  ---------------------------------------------------
  alpha Z        PSCENC =       143.22582148
  Ewald energy   TEWEN  =     -8216.62748861
  -Hartree energ DENC   =     -3266.45370873
  -exchange      EXHF   =         0.00000000
  -V(xc)+E(xc)   XCENC  =      -456.30796786
  PAW double counting   =     60265.15549997   -59278.24100423
  entropy T*S    EENTRO =        -0.13673412
  eigenvalues    EBANDS =      -479.00164869
  atomic energy  EATOM  =     10303.52363856
  Solvation  Ediel_sol  =         0.00000000
  ---------------------------------------------------
  free energy    TOTEN  =      -984.86359222 eV

  energy without entropy =     -984.72685810  energy(sigma->0) =     -984.79522516


--------------------------------------------------------------------------------------------------------




--------------------------------------- Iteration      1(   8)  ---------------------------------------


    POTLOK:  cpu time      0.8188: real time      0.8350
    SETDIJ:  cpu time      1.5150: real time      1.5156
    EDDIAG:  cpu time     26.9085: real time     26.9316
     EDDAV:  cpu time    132.1390: real time    132.2606
       DOS:  cpu time      0.0053: real time      0.0053
    CHARGE:  cpu time     12.8860: real time     12.8984
    MIXING:  cpu time      0.0179: real time      0.0179
    --------------------------------------------
      LOOP:  cpu time    174.2905: real time    174.4644

 eigenvalue-minimisations  :  4568
 total energy-change (2. order) :-0.6390018E-03  (-0.2872629E-03)
 number of electron     403.9999999 magnetization 
 augmentation part      -21.8112921 magnetization 

 Broyden mixing:
  rms(total) = 0.90799E-02    rms(broyden)= 0.72792E-01
  rms(prec ) = 0.12023E-01
  weight for this iteration     100.00
  WARNING: grid for Broyden might be to small

 eigenvalues of (default mixing * dielectric matrix)
  average eigenvalue GAMMA=   1.0098
  2.5507  1.4075  0.9072  0.6343  0.6343  0.4178  0.5169

 Free energy of the ion-electron system (eV)
  ---------------------------------------------------
  alpha Z        PSCENC =       143.22582148
  Ewald energy   TEWEN  =     -8216.62748861
  -Hartree energ DENC   =     -3266.89936879
  -exchange      EXHF   =         0.00000000
  -V(xc)+E(xc)   XCENC  =      -456.17157796
  PAW double counting   =     60280.23700669   -59293.30858802
  entropy T*S    EENTRO =        -0.13760054
  eigenvalues    EBANDS =      -478.70607404
  atomic energy  EATOM  =     10303.52363856
  Solvation  Ediel_sol  =         0.00000000
  ---------------------------------------------------
  free energy    TOTEN  =      -984.86423122 eV

  energy without entropy =     -984.72663068  energy(sigma->0) =     -984.79543095


--------------------------------------------------------------------------------------------------------




--------------------------------------- Iteration      1(   9)  ---------------------------------------


    POTLOK:  cpu time      0.8256: real time      0.8452
    SETDIJ:  cpu time      1.4980: real time      1.4989
    EDDIAG:  cpu time     26.8518: real time     26.8759
     EDDAV:  cpu time    139.5719: real time    139.7048
       DOS:  cpu time      0.0042: real time      0.0042
    CHARGE:  cpu time     12.6670: real time     12.6799
    MIXING:  cpu time      0.0183: real time      0.0184
    --------------------------------------------
      LOOP:  cpu time    181.4371: real time    181.6273

 eigenvalue-minimisations  :  4992
 total energy-change (2. order) :-0.3049995E-03  (-0.8053417E-04)
 number of electron     403.9999999 magnetization 
 augmentation part      -21.8106264 magnetization 

 Broyden mixing:
  rms(total) = 0.38265E-02    rms(broyden)= 0.37023E-01
  rms(prec ) = 0.58467E-02
  weight for this iteration     100.00
  WARNING: grid for Broyden might be to small

 eigenvalues of (default mixing * dielectric matrix)
  average eigenvalue GAMMA=   0.9922
  2.5352  1.7449  0.9243  0.6556  0.6332  0.5446  0.4113  0.4887

 Free energy of the ion-electron system (eV)
  ---------------------------------------------------
  alpha Z        PSCENC =       143.22582148
  Ewald energy   TEWEN  =     -8216.62748861
  -Hartree energ DENC   =     -3267.12690719
  -exchange      EXHF   =         0.00000000
  -V(xc)+E(xc)   XCENC  =      -456.09741123
  PAW double counting   =     60292.26876800   -59305.33019116
  entropy T*S    EENTRO =        -0.13716114
  eigenvalues    EBANDS =      -478.56360493
  atomic energy  EATOM  =     10303.52363856
  Solvation  Ediel_sol  =         0.00000000
  ---------------------------------------------------
  free energy    TOTEN  =      -984.86453622 eV

  energy without entropy =     -984.72737508  energy(sigma->0) =     -984.79595565


--------------------------------------------------------------------------------------------------------




--------------------------------------- Iteration      1(  10)  ---------------------------------------


    POTLOK:  cpu time      0.8121: real time      0.8306
    SETDIJ:  cpu time      1.4927: real time      1.4933
    EDDIAG:  cpu time     26.8383: real time     26.8629
     EDDAV:  cpu time    133.8650: real time    133.9868
       DOS:  cpu time      0.0067: real time      0.0066
    CHARGE:  cpu time     12.5518: real time     12.5629
    MIXING:  cpu time      0.0183: real time      0.0183
    --------------------------------------------
      LOOP:  cpu time    175.5847: real time    175.7613

 eigenvalue-minimisations  :  4672
 total energy-change (2. order) :-0.3091182E-04  (-0.1695930E-04)
 number of electron     403.9999999 magnetization 
 augmentation part      -21.8107055 magnetization 

 Broyden mixing:
  rms(total) = 0.23542E-02    rms(broyden)= 0.39422E-01
  rms(prec ) = 0.34594E-02
  weight for this iteration     100.00
  WARNING: grid for Broyden might be to small

 eigenvalues of (default mixing * dielectric matrix)
  average eigenvalue GAMMA=   1.0040
  2.5340  2.1612  0.9925  0.8177  0.6426  0.6426  0.5197  0.4090  0.3171

 Free energy of the ion-electron system (eV)
  ---------------------------------------------------
  alpha Z        PSCENC =       143.22582148
  Ewald energy   TEWEN  =     -8216.62748861
  -Hartree energ DENC   =     -3267.12678594
  -exchange      EXHF   =         0.00000000
  -V(xc)+E(xc)   XCENC  =      -456.11021118
  PAW double counting   =     60298.75468792   -59311.81303871
  entropy T*S    EENTRO =        -0.13732704
  eigenvalues    EBANDS =      -478.55386361
  atomic energy  EATOM  =     10303.52363856
  Solvation  Ediel_sol  =         0.00000000
  ---------------------------------------------------
  free energy    TOTEN  =      -984.86456713 eV

  energy without entropy =     -984.72724009  energy(sigma->0) =     -984.79590361


--------------------------------------------------------------------------------------------------------




--------------------------------------- Iteration      1(  11)  ---------------------------------------


    POTLOK:  cpu time      0.8146: real time      0.8357
    SETDIJ:  cpu time      1.4916: real time      1.4921
    EDDIAG:  cpu time     26.8604: real time     26.8847
     EDDAV:  cpu time    128.7026: real time    128.8169
       DOS:  cpu time      0.0045: real time      0.0045
    CHARGE:  cpu time     12.6237: real time     12.6335
    MIXING:  cpu time      0.0190: real time      0.0190
    --------------------------------------------
      LOOP:  cpu time    170.5164: real time    170.6863

 eigenvalue-minimisations  :  4376
 total energy-change (2. order) :-0.1668593E-04  (-0.7591846E-05)
 number of electron     403.9999999 magnetization 
 augmentation part      -21.8107490 magnetization 

 Broyden mixing:
  rms(total) = 0.12998E-02    rms(broyden)= 0.18972E-01
  rms(prec ) = 0.18520E-02
  weight for this iteration     100.00
  WARNING: grid for Broyden might be to small

 eigenvalues of (default mixing * dielectric matrix)
  average eigenvalue GAMMA=   1.0488
  2.5928  2.5928  1.1230  1.0157  0.6758  0.6301  0.5809  0.5116  0.4029  0.3627

 Free energy of the ion-electron system (eV)
  ---------------------------------------------------
  alpha Z        PSCENC =       143.22582148
  Ewald energy   TEWEN  =     -8216.62748861
  -Hartree energ DENC   =     -3267.10615930
  -exchange      EXHF   =         0.00000000
  -V(xc)+E(xc)   XCENC  =      -456.11680594
  PAW double counting   =     60295.94313090   -59308.99980871
  entropy T*S    EENTRO =        -0.13715668
  eigenvalues    EBANDS =      -478.56975553
  atomic energy  EATOM  =     10303.52363856
  Solvation  Ediel_sol  =         0.00000000
  ---------------------------------------------------
  free energy    TOTEN  =      -984.86458382 eV

  energy without entropy =     -984.72742714  energy(sigma->0) =     -984.79600548


--------------------------------------------------------------------------------------------------------




--------------------------------------- Iteration      1(  12)  ---------------------------------------


    POTLOK:  cpu time      0.8164: real time      0.8333
    SETDIJ:  cpu time      1.4908: real time      1.4918
    EDDIAG:  cpu time     26.8877: real time     26.9116
     EDDAV:  cpu time    128.5166: real time    128.6308
       DOS:  cpu time      0.0040: real time      0.0040
    CHARGE:  cpu time     12.7081: real time     12.7191
    MIXING:  cpu time      0.0188: real time      0.0188
    --------------------------------------------
      LOOP:  cpu time    170.4423: real time    170.6094

 eigenvalue-minimisations  :  4352
 total energy-change (2. order) :-0.1083689E-04  (-0.4082349E-05)
 number of electron     403.9999999 magnetization 
 augmentation part      -21.8107669 magnetization 

 Broyden mixing:
  rms(total) = 0.53756E-03    rms(broyden)= 0.76188E-02
  rms(prec ) = 0.77938E-03
  weight for this iteration     100.00
  WARNING: grid for Broyden might be to small

 eigenvalues of (default mixing * dielectric matrix)
  average eigenvalue GAMMA=   1.0697
  2.7282  2.7282  1.2804  1.0546  0.8630  0.6628  0.6306  0.5411  0.4684  0.4203
  0.3894

 Free energy of the ion-electron system (eV)
  ---------------------------------------------------
  alpha Z        PSCENC =       143.22582148
  Ewald energy   TEWEN  =     -8216.62748861
  -Hartree energ DENC   =     -3267.07877293
  -exchange      EXHF   =         0.00000000
  -V(xc)+E(xc)   XCENC  =      -456.11697541
  PAW double counting   =     60293.58740155   -59306.64235274
  entropy T*S    EENTRO =        -0.13724005
  eigenvalues    EBANDS =      -478.59862650
  atomic energy  EATOM  =     10303.52363856
  Solvation  Ediel_sol  =         0.00000000
  ---------------------------------------------------
  free energy    TOTEN  =      -984.86459465 eV

  energy without entropy =     -984.72735460  energy(sigma->0) =     -984.79597463


--------------------------------------------------------------------------------------------------------




--------------------------------------- Iteration      1(  13)  ---------------------------------------


    POTLOK:  cpu time      0.8323: real time      0.8333
    SETDIJ:  cpu time      1.4929: real time      1.4935
    EDDIAG:  cpu time     26.9359: real time     26.9588
     EDDAV:  cpu time    132.2658: real time    132.3857
       DOS:  cpu time      0.0049: real time      0.0049
    CHARGE:  cpu time     12.7936: real time     12.8047
    MIXING:  cpu time      0.0192: real time      0.0192
    --------------------------------------------
      LOOP:  cpu time    174.3446: real time    174.5000

 eigenvalue-minimisations  :  4568
 total energy-change (2. order) :-0.7199640E-05  (-0.9457629E-06)
 number of electron     403.9999999 magnetization 
 augmentation part      -21.8108583 magnetization 

 Broyden mixing:
  rms(total) = 0.39784E-03    rms(broyden)= 0.10239E-01
  rms(prec ) = 0.66986E-03
  weight for this iteration     100.00
  WARNING: grid for Broyden might be to small

 eigenvalues of (default mixing * dielectric matrix)
  average eigenvalue GAMMA=   1.0959
  2.9368  2.6814  1.6024  1.0416  1.0416  0.7619  0.6402  0.6126  0.5445  0.4607
  0.3949  0.4322

 Free energy of the ion-electron system (eV)
  ---------------------------------------------------
  alpha Z        PSCENC =       143.22582148
  Ewald energy   TEWEN  =     -8216.62748861
  -Hartree energ DENC   =     -3267.03134335
  -exchange      EXHF   =         0.00000000
  -V(xc)+E(xc)   XCENC  =      -456.12567699
  PAW double counting   =     60291.24777032   -59304.30227452
  entropy T*S    EENTRO =        -0.13727674
  eigenvalues    EBANDS =      -478.63777201
  atomic energy  EATOM  =     10303.52363856
  Solvation  Ediel_sol  =         0.00000000
  ---------------------------------------------------
  free energy    TOTEN  =      -984.86460185 eV

  energy without entropy =     -984.72732511  energy(sigma->0) =     -984.79596348


--------------------------------------------------------------------------------------------------------




--------------------------------------- Iteration      1(  14)  ---------------------------------------


    POTLOK:  cpu time      0.8313: real time      0.8315
    SETDIJ:  cpu time      1.4912: real time      1.4924
[...]
   -.540E+02 -.295E+02 0.342E+02   0.529E+02 0.287E+02 -.325E+02   0.139E+01 0.865E+00 -.201E+01   -.281E-03 0.430E-04 -.252E-04
   -.640E+02 0.431E+02 -.299E+02   0.638E+02 -.391E+02 0.294E+02   0.393E+00 -.337E+01 0.393E+00   -.462E-03 -.955E-04 -.143E-03
   0.574E+00 0.417E+01 -.186E+02   -.710E+00 -.425E+01 0.168E+02   -.380E+00 -.892E+00 0.164E+01   0.132E-03 -.137E-03 -.676E-04
   -.274E+02 -.159E+02 0.164E+02   0.244E+02 0.151E+02 -.162E+02   0.297E+01 0.939E+00 0.334E+00   -.187E-03 0.103E-03 -.438E-04
   -.198E+02 -.283E+02 0.172E+02   0.220E+02 0.287E+02 -.173E+02   -.177E+01 -.371E+00 -.147E+01   -.804E-04 -.790E-04 0.173E-03
   0.636E+02 0.409E+02 0.552E+02   -.621E+02 -.393E+02 -.538E+02   -.212E+01 -.210E+01 -.263E+01   0.321E-03 0.766E-05 0.612E-04
   -.100E+03 -.220E+02 -.424E+02   0.994E+02 0.211E+02 0.414E+02   -.168E+00 -.105E+00 0.297E+00   -.419E-03 -.571E-04 -.293E-04
   -.217E+02 0.227E+02 -.184E+02   0.225E+02 -.226E+02 0.174E+02   -.668E+00 0.232E+00 0.110E+01   -.246E-03 0.671E-04 -.961E-05
   -.526E+02 0.758E+02 -.586E+02   0.537E+02 -.767E+02 0.585E+02   -.208E+01 0.394E+00 0.656E+00   -.509E-03 0.493E-03 -.366E-03
   0.388E+01 0.330E+02 0.110E+02   -.384E+01 -.314E+02 -.953E+01   0.369E+00 -.139E+01 -.145E+01   0.144E-03 -.286E-05 -.232E-04
   -.518E+01 0.802E+01 0.339E+02   0.428E+01 -.101E+02 -.333E+02   0.714E+00 0.211E+01 0.121E+00   0.157E-03 0.887E-04 0.128E-04
   -.181E+02 0.440E+02 0.411E+02   0.205E+02 -.452E+02 -.403E+02   -.330E+01 0.105E+01 0.263E-01   -.322E-03 0.934E-04 0.171E-03
   0.185E+02 0.318E+01 0.111E+02   -.195E+02 -.260E+01 -.107E+02   0.124E+01 -.126E+01 -.149E+01   0.163E-03 0.410E-04 0.138E-03
   0.277E+02 -.339E+02 -.214E+02   -.286E+02 0.324E+02 0.204E+02   0.927E+00 0.106E+01 0.168E+01   -.147E-03 -.143E-03 0.203E-04
   -.405E+01 0.114E+01 -.135E+02   0.142E+01 -.158E+01 0.124E+02   0.351E+01 0.885E+00 0.145E+01   0.394E-04 0.110E-03 -.909E-04
   -.446E+01 -.438E+02 0.537E+01   0.605E+01 0.439E+02 -.652E+01   -.220E+01 0.669E+00 0.133E+01   -.216E-04 -.198E-03 -.156E-03
   -.210E+01 0.284E+02 0.230E+01   0.124E+01 -.276E+02 -.437E+01   0.162E+01 -.146E+01 0.369E+01   0.146E-03 0.148E-03 0.175E-03
   -.224E+02 0.302E+02 -.101E+02   0.217E+02 -.302E+02 0.117E+02   0.753E+00 -.131E+00 -.158E+01   -.306E-03 -.212E-04 -.421E-04
   0.951E+02 -.554E+02 -.158E+02   -.955E+02 0.562E+02 0.156E+02   0.833E+00 -.131E+00 0.853E+00   0.207E-03 -.434E-04 -.794E-04
   0.359E+02 0.385E+02 -.288E+02   -.349E+02 -.399E+02 0.291E+02   -.239E+01 0.157E+01 -.501E+00   0.257E-03 0.274E-03 -.209E-03
   0.620E+02 -.821E+02 0.248E+01   -.615E+02 0.826E+02 -.432E+01   -.799E+00 0.148E+01 0.662E+00   0.345E-03 -.338E-03 0.236E-03
   0.940E+01 0.619E+01 0.639E+00   -.933E+01 -.534E+01 0.215E+00   -.131E+01 -.704E-01 -.131E+01   -.477E-04 0.927E-04 0.754E-04
   0.263E+02 0.121E+02 0.221E+02   -.247E+02 -.110E+02 -.212E+02   -.725E+00 -.118E+01 -.222E+00   -.358E-04 0.314E-04 0.813E-04
   -.389E+02 -.388E+02 -.234E+02   0.392E+02 0.371E+02 0.219E+02   0.159E+00 0.596E+00 0.173E+01   -.257E-03 0.457E-04 -.750E-04
   0.358E+02 0.158E+01 0.592E+01   -.352E+02 -.573E+00 -.526E+01   -.144E+01 -.110E+01 -.102E+00   0.184E-03 0.932E-04 0.918E-04
   -.515E+02 -.650E+02 0.298E+02   0.514E+02 0.657E+02 -.263E+02   0.208E+01 -.698E+00 -.393E+01   -.524E-03 -.210E-03 -.104E-03
   -.632E+02 0.146E+01 -.175E+01   0.609E+02 -.119E+01 0.153E+01   0.266E+01 -.369E+00 0.561E+00   -.458E-03 -.793E-04 0.356E-04
   0.743E+01 -.218E+02 0.190E+02   -.838E+01 0.223E+02 -.197E+02   0.145E+01 0.143E+00 0.865E+00   0.114E-03 -.406E-04 -.927E-05
 -----------------------------------------------------------------------------------------------
   -.173E+01 0.925E+01 -.745E+01   0.252E-12 0.782E-13 -.426E-13   0.172E+01 -.923E+01 0.744E+01   -.161E-02 0.938E-03 -.110E-03


 POSITION                                       TOTAL-FORCE (eV/Angst)
 -----------------------------------------------------------------------------------
     13.69970     11.63840      4.76894         0.324916     -0.894781      0.494323
      0.08267     12.91130      1.91024         0.158021      0.083053     -0.054821
     10.70490     11.47990      5.77688        -0.505817      0.396337     -0.007533
     10.89890     14.50890      5.42336         0.035983      0.467468     -0.078852
     13.02050     10.07960     10.74350        -0.329222     -0.315366     -0.107278
      9.81915     11.23320      0.49165        -0.212382     -1.298800      0.443521
     11.99010      0.07895     10.29780         0.120331      0.047388      0.153955
     12.50880     10.87210      7.95465        -0.035654     -0.458912     -0.233239
     11.01240      5.31507      7.96883        -0.218079     -0.491117     -1.029007
      5.41656      9.66266      7.66247         0.396137     -1.337224      0.633677
     10.47430      8.80182      6.47493        -0.201440      0.724059      0.908817
      7.32188     14.49720      3.60404        -0.231770     -0.972164      0.631822
      1.08889      3.61110      1.88638        -0.210836     -0.967719      1.248638
      5.51829      3.45512      5.10637         0.538748     -1.090845     -0.862226
      1.89853     10.42690      5.92460         0.070415     -0.438535      1.673143
      7.12412      4.06370      8.75905         0.259185      0.864697     -0.319761
      9.35026      7.05509      7.56541         0.550505      0.321186      0.941163
      6.62415      6.08439      2.43246        -0.298675     -0.550633     -0.503858
      0.23282      9.04444      3.65965        -0.499474     -0.429639     -1.675303
     10.90380      1.40031      5.94893         0.501087     -1.509242      0.288444
      1.58896      0.53776     10.31530         0.107446      1.126964     -0.048446
     14.19890      2.00335      7.71740         0.859567      0.128909      0.321427
     12.68570      9.65962      7.06045        -0.610886     -0.405044      0.554181
      6.63919      0.52468      7.47287        -0.128643     -0.518784     -0.200234
      4.86957      8.36545      4.15661        -0.235752      0.082871      0.595503
      3.27277      2.02297      9.54201        -0.183723      0.220144      0.178165
      5.60355     10.68730     10.95940         0.035237     -0.388807     -0.340204
      0.54123      2.51502      4.43782         0.341253     -0.145737     -0.354250
      0.32812      5.76062      2.28812        -0.160198      0.713978     -0.192317
     12.39850      5.16269      9.86079        -0.069116      0.166141      0.600622
      1.25338      6.89470      0.35109        -0.202242      0.645246     -0.323001
     10.11700      1.33354      8.22889         0.502042      0.220881      0.488248
      1.81868      5.09166      7.44420         0.303435      1.003960      0.623640
      9.37863      3.53515      7.82636        -0.847236     -0.020757     -0.346520
      3.04503     14.03710      3.03641        -0.091823     -0.269506      1.383815
      7.12988      6.09024     10.14850        -0.435022      0.051780     -0.391678
      7.28581      9.99579      9.16730        -0.578378      1.068792      0.630242
     10.94570      5.55682      0.43906         0.927849      0.506327     -0.072893
      1.53803     12.57690      1.92229         0.652744      0.134835     -0.719974
      7.72052     10.49360      4.67356        -0.327914      0.225886      0.767049
      6.48386     12.67830      7.19030         0.834225      0.736697      0.237411
      7.57222     10.13690      2.37583        -0.254260     -1.483315      1.020766
      2.79590     13.35540     11.26550         0.046091      0.135643      1.551000
      7.15157      1.48750      5.38252         0.080596      1.555198     -0.722891
      7.86086      0.83246     11.07650         0.745762      0.320569      0.461424
      3.93093      7.81407      8.29170         0.190626      0.597807     -0.666295
      9.71755      4.31168      3.82731        -0.758196      1.288826     -1.159907
      1.57211      3.11683      6.53501        -0.470224     -1.245904     -0.970834
      2.21553     14.39140      7.15817         0.186228      0.544056      0.000469
      6.55422     11.78950      1.36962        -0.898636      1.000693     -1.072249
      9.37877     10.95690      6.30587         1.118375     -0.339161     -0.041111
     13.93080      7.04397      9.94420         0.266117      0.177309      0.744788
      1.89060      9.06528      7.99537         0.121814     -0.038474     -0.486895
      4.43589      1.10593      7.75842        -1.425563     -0.059197     -0.102293
      3.41481      3.84288      1.58367         0.661764      0.316963     -0.905021
      5.89090      4.90380      6.79540         1.001214     -0.281412      1.364596
      4.17354     12.53370      4.60009        -0.254783     -0.598367     -1.363057
      6.55977      8.73482      5.87944        -1.104878      0.975022     -1.298736
      4.75300      6.86457     10.25410         0.218361     -0.999597      0.292842
      0.60014      2.61292     11.11950         1.125949      0.360121      0.230558
     14.26760      8.14580      7.81778         0.430851     -1.417930      0.726488
     13.01770      2.39572      5.77298         0.119238      1.254364     -0.177233
      1.90210     10.28210      2.45336        -0.555964      0.060698     -0.026296
      2.97290     12.36610      6.56869        -1.102139      0.219007     -1.482524
     10.87310      9.40697      3.08128        -0.293828     -0.645697     -0.671101
      4.50918     11.74110      7.94784         1.407466     -0.042947      0.076167
     11.58340      5.73253      4.21120        -1.245155      0.313846     -0.633291
     11.47430      1.47936     10.20380         0.701461     -0.100683     -1.065417
     12.70980      8.66838     11.17910        -0.221542      0.139377      0.155620
      4.71899      8.59634      0.32940        -0.198145      1.127914     -0.226572
     12.83600      8.53460      2.18624         0.619719     -0.260443     -0.092104
      4.84198      4.77027      3.26857        -0.942667      0.621420      0.188901
      8.15878      6.31121      4.09821         1.770098     -0.994180      0.449292
      2.44895      9.11524      0.52847        -1.062466     -1.066376     -0.603645
      9.53641      3.86196      1.34720         0.305052      0.795697      0.416365
      2.07852      4.11360      9.56527        -0.179374     -1.068659      0.538575
      0.30095     14.39220      8.56653        -0.031681     -0.021384     -1.110935
      4.49280      2.22134      0.11909        -0.853965      1.018337      0.500737
      7.40729      6.63324      6.25428         0.529890     -0.424328      0.132032
      6.49003     12.53050      4.86249         0.390891      0.081840     -0.430908
      8.34922     14.40230      8.93622         0.176684      0.504027     -0.181418
      4.35932      0.20162      1.18677        -0.523812     -1.031096     -0.089163
      6.02113      8.29653      2.14304         0.151878      0.168427      0.480393
     10.16330      7.65526      4.53776         0.323240      0.094580     -1.723490
      2.24859      0.83854      4.93790        -0.731865     -0.482808     -1.326712
      8.58475     12.02100      8.37874        -1.401172     -0.963907     -0.830135
      7.45270      4.71473      0.66553         0.116337      0.385393      0.112457
     10.00590      1.73984      0.52981        -1.159439     -0.397913      0.428010
     12.52720      6.17498      2.16026         0.437725      0.194797     -0.015299
      3.72252      2.26839      5.87651        -0.185015      0.129396      0.771172
      9.20983      2.79944      5.44742        -1.072167     -0.094788      0.866717
      1.06214      6.94911      4.34918         0.309332     -0.760633     -1.259956
      3.60321     11.62220      9.98474         0.058709     -0.321615      0.731076
      2.98640      5.43642     11.16870         1.039918      0.480271      0.394643
     10.40480      7.87565     11.17560        -0.748140      0.847320      0.278288
     12.59230      4.91621      6.01085         0.825291     -0.753859      1.783699
      6.60013      2.87420     10.82030         0.096079     -0.164665     -0.095767
      1.65415     10.27300      9.95072         0.701033      0.543449      0.624897
     13.36410      2.93992      9.75543        -1.524687      0.224252     -0.213550
     14.15410     10.28720      5.44194        -0.249999      2.116926     -1.201828
      3.91500      5.99871      6.81994        -1.311892      0.775901     -0.513381
      3.42691      6.48763      4.43712         0.941213     -0.127710      0.701223
      8.52214      8.01740      9.59914         0.466102     -1.078000      0.226380
      0.10016      6.27823      6.36862        -0.918108     -0.153013      0.560821
      9.45901      9.85848      1.20915         2.074318      0.077176     -0.615596
      6.59606     14.13010      1.33839         0.504012     -0.147193      0.410035
      3.43444     10.20690      4.16088         0.515483      0.684649      0.218773
 -----------------------------------------------------------------------------------
    total drift:                               -0.010467      0.013807     -0.003931


--------------------------------------------------------------------------------------------------------



  FREE ENERGIE OF THE ION-ELECTRON SYSTEM (eV)
  ---------------------------------------------------
  free  energy   TOTEN  =      -984.86460475 eV

  energy  without entropy=     -984.72735170  energy(sigma->0) =     -984.79597823



--------------------------------------------------------------------------------------------------------


    POTLOK:  cpu time      2.2987: real time      2.2998


--------------------------------------------------------------------------------------------------------


     LOOP+:  cpu time   2943.9822: real time   2946.7542
    4ORBIT:  cpu time      0.0000: real time      0.0000



 total charge

# of ion       s       p       d       tot
------------------------------------------
    1        0.531   0.012   0.000   0.543
    2        0.561   0.015   0.000   0.576
    3        0.555   0.015   0.000   0.569
    4        0.554   0.014   0.000   0.568
    5        0.553   0.015   0.000   0.568
    6        0.520   0.011   0.000   0.532
    7        0.565   0.015   0.000   0.580
    8        0.547   0.014   0.000   0.561
    9        0.749   0.884   0.000   1.633
   10        0.755   0.938   0.000   1.694
   11        0.748   0.943   0.000   1.691
   12        0.790   0.822   0.000   1.611
   13        0.759   0.862   0.000   1.620
   14        0.757   0.944   0.000   1.701
   15        0.756   0.938   0.000   1.694
   16        0.754   0.856   0.000   1.610
   17        0.752   0.912   0.000   1.663
   18        0.749   0.960   0.000   1.710
   19        0.755   0.927   0.000   1.682
   20        0.745   0.970   0.000   1.715
   21        0.757   0.941   0.000   1.698
   22        0.761   0.895   0.000   1.656
   23        0.734   0.969   0.000   1.703
   24        0.748   0.957   0.000   1.705
   25        0.752   0.940   0.000   1.692
   26        0.766   0.924   0.000   1.690
   27        0.756   0.904   0.000   1.660
   28        0.770   0.823   0.000   1.593
   29        0.754   0.904   0.000   1.658
   30        0.746   0.893   0.000   1.639
   31        0.755   0.869   0.000   1.623
   32        0.756   0.918   0.000   1.675
   33        0.753   0.982   0.000   1.735
   34        0.755   0.879   0.000   1.634
   35        0.753   0.901   0.000   1.654
   36        0.757   0.876   0.000   1.633
   37        0.760   0.844   0.000   1.604
   38        0.753   0.877   0.000   1.630
   39        0.738   0.933   0.000   1.671
   40        0.752   0.924   0.000   1.676
   41        0.767   0.916   0.000   1.683
   42        0.755   0.992   0.000   1.748
   43        0.757   0.909   0.000   1.666
   44        0.754   0.876   0.000   1.630
   45        0.754   0.881   0.000   1.635
   46        0.753   0.917   0.000   1.670
   47        0.757   0.900   0.000   1.658
   48        0.768   0.927   0.000   1.695
   49        0.773   0.886   0.000   1.660
   50        0.782   0.915   0.000   1.698
   51        0.748   0.905   0.000   1.653
   52        0.748   0.885   0.000   1.632
   53        0.753   0.916   0.000   1.668
   54        0.757   0.930   0.000   1.687
   55        0.749   0.905   0.000   1.654
   56        0.753   0.957   0.000   1.710
   57        0.763   0.912   0.000   1.675
   58        0.752   0.936   0.000   1.688
   59        0.749   0.930   0.000   1.679
   60        0.759   0.883   0.000   1.642
   61        0.750   0.938   0.000   1.688
   62        0.753   0.893   0.000   1.646
   63        0.747   0.957   0.000   1.704
   64        0.766   1.037   0.000   1.803
   65        0.805   0.841   0.000   1.646
   66        0.760   1.037   0.000   1.797
   67        0.756   0.973   0.000   1.729
   68        0.743   0.963   0.000   1.706
   69        0.743   0.929   0.000   1.673
   70        0.753   0.992   0.000   1.745
   71        0.754   0.924   0.000   1.678
   72        0.748   0.896   0.000   1.644
   73        0.759   0.920   0.000   1.680
   74        0.753   0.909   0.000   1.661
   75        0.747   0.910   0.000   1.657
   76        0.761   0.903   0.000   1.664
   77        0.810   0.855   0.000   1.665
   78        0.751   0.965   0.000   1.717
   79        0.752   0.954   0.000   1.707
   80        0.752   0.924   0.000   1.677
   81        0.751   0.875   0.000   1.626
   82        0.752   0.944   0.000   1.696
   83        0.753   0.974   0.000   1.726
   84        0.760   0.916   0.000   1.677
   85        0.765   0.892   0.000   1.658
   86        0.757   0.852   0.000   1.609
   87        0.752   0.933   0.000   1.685
   88        0.780   0.879   0.000   1.659
   89        0.754   0.939   0.000   1.693
   90        0.763   0.966   0.000   1.729
   91        0.752   0.946   0.000   1.698
   92        0.746   0.912   0.000   1.658
   93        0.752   0.965   0.000   1.716
   94        0.755   0.939   0.000   1.694
   95        0.760   0.832   0.000   1.592
   96        0.752   0.890   0.000   1.642
   97        0.755   0.910   0.000   1.666
   98        0.803   0.854   0.000   1.657
   99        0.750   0.923   0.000   1.673
  100        0.739   0.999   0.000   1.738
  101        0.754   0.948   0.000   1.702
  102        0.750   0.883   0.000   1.633
  103        0.749   0.895   0.000   1.644
  104        0.749   0.917   0.000   1.667
  105        0.753   0.907   0.000   1.660
  106        0.750   0.909   0.000   1.659
  107        0.759   0.937   0.000   1.696
--------------------------------------------------
tot         79.262  90.957   0.000 170.219


 total amount of memory used by VASP MPI-rank0   212017. kBytes
=======================================================================

   base                                    :      30000. kBytes
   nonl-proj                               :      38938. kBytes
   fftplans                                :      47718. kBytes
   grid                                    :      36817. kBytes
   one-center                              :         21. kBytes
   wavefun                                 :      58523. kBytes

  
  
 General timing and accounting informations for this job:
 ========================================================
  
                  Total CPU time used (sec):     3023.379
                            User time (sec):     3013.876
                          System time (sec):        9.504
                         Elapsed time (sec):     3026.103
  
                   Maximum memory used (kb):      385784.
                   Average memory used (kb):          N/A
  
                          Minor page faults:       337920
                          Major page faults:         1146
                 Voluntary context switches:         2384
