 vasp.6.5.0 16Dec24 (build Jan 20 2025 08:32:48) complex                         
 executed on        HPECrayEX_GCC date 2025.07.21  15:17:46
 running  128 mpi-ranks, with    1 threads/rank, on    1 nodes
 distrk:  each k-point on  128 cores,    1 groups
 distr:  one band on NCORE=  16 cores,    8 groups


--------------------------------------------------------------------------------------------------------


 INCAR:
   SYSTEM = a-Si SPC
   NCORE = 16
   ISTART = 1
   ICHARG = 1
   ISPIN = 1
   ISYM = 1
   EDIFF = 1E-6
   NELM = 150
   EDIFFG = -0.01
   NSW = 0
   ISIF = 2
   IBRION = -1
   PREC = Accurate
   ENCUT = 1200
   KSPACING = 0.23
   KGAMMA = .TRUE.
   METAGGA = SCAN
   LASPH = .TRUE.
   LDIAG = .FALSE.
   LMIXTAU = .TRUE.
   ADDGRID = .TRUE.
   ALGO = Normal
   ISMEAR = 0
   SIGMA = 0.1
   LORBIT = 11
   NEDOS = 2000
   LWAVE = .FALSE.
   LCHARG = .FALSE.

 POTCAR:    PAW_PBE H 15Jun2001                   
 POTCAR:    PAW_PBE Si 05Jan2001                  
 POTCAR:    PAW_PBE H 15Jun2001                   
   SHA256 =  030f79b5d3ab3cf0e668861823c8fb652ff669f3e15e46930bd03bfd63a607b6 H/POTCAR              
   COPYR  = (c) Copyright 15Jun2001 Georg Kresse                                                    
   COPYR  = This file is part of the software VASP. Any use, copying, and all other rights are regul
   COPYR  = If you do not have a valid VASP license, you may not use, copy or distribute this file. 
   VRHFIN =H: ultrasoft test                                                                        
   LEXCH  = PE                                                                                      
   EATOM  =    12.4884 eV,    0.9179 Ry                                                             
                                                                                                    
   TITEL  = PAW_PBE H 15Jun2001                                                                     
   LULTRA =        F    use ultrasoft PP ?                                                          
   IUNSCR =        0    unscreen: 0-lin 1-nonlin 2-no                                               
   RPACOR =    0.000    partial core radius                                                         
   POMASS =    1.000; ZVAL   =    1.000    mass and valenz                                          
   RCORE  =    1.100    outmost cutoff radius                                                       
   RWIGS  =    0.700; RWIGS  =    0.370    wigner-seitz radius (au A)                               
   ENMAX  =  250.000; ENMIN  =  200.000 eV                                                          
   RCLOC  =    0.701    cutoff for local pot                                                        
   LCOR   =        T    correct aug charges                                                         
   LPAW   =        T    paw PP                                                                      
   EAUG   =  400.000                                                                                
   RMAX   =    1.123    core radius for proj-oper                                                   
   RAUG   =    1.200    factor for augmentation sphere                                              
   RDEP   =    1.112    radius for radial grids                                                     
   RDEPT  =    0.926    core radius for aug-charge                                                  
                                                                                                    
   Atomic configuration                                                                             
    2 entries                                                                                       
     n  l   j            E        occ.                                                              
     1  0  0.50        -6.4927   1.0000                                                             
     2  1  0.50        -3.4015   0.0000                                                             
   Description                                                                                      
     l       E           TYP  RCUT    TYP  RCUT                                                     
     0     -6.4927494     23  1.100                                                                 
     0      6.8029130     23  1.100                                                                 
     1     -4.0817478     23  1.100                                                                 
  local pseudopotential read in
  atomic valenz-charges read in
  non local Contribution for L=           0  read in
    real space projection operators read in
  non local Contribution for L=           0  read in
    real space projection operators read in
  non local Contribution for L=           1  read in
    real space projection operators read in
    PAW grid and wavefunctions read in

   number of l-projection  operators is LMAX  =           3
   number of lm-projection operators is LMMAX =           5

 POTCAR:    PAW_PBE Si 05Jan2001                  
   SHA256 =  79d9987ad8750f624c4d6acb2a16d13abf6a777132adc04dc6c8399be72b42bb Si/POTCAR             
   COPYR  = (c) Copyright 05Jan2001 Georg Kresse                                                    
   COPYR  = This file is part of the software VASP. Any use, copying, and all other rights are regul
   COPYR  = If you do not have a valid VASP license, you may not use, copy or distribute this file. 
   VRHFIN =Si: s2p2                                                                                 
   LEXCH  = PE                                                                                      
   EATOM  =   103.0669 eV,    7.5752 Ry                                                             
                                                                                                    
   TITEL  = PAW_PBE Si 05Jan2001                                                                    
   LULTRA =        F    use ultrasoft PP ?                                                          
   IUNSCR =        1    unscreen: 0-lin 1-nonlin 2-no                                               
   RPACOR =    1.500    partial core radius                                                         
   POMASS =   28.085; ZVAL   =    4.000    mass and valenz                                          
   RCORE  =    1.900    outmost cutoff radius                                                       
   RWIGS  =    2.480; RWIGS  =    1.312    wigner-seitz radius (au A)                               
   ENMAX  =  245.345; ENMIN  =  184.009 eV                                                          
   ICORE  =        2    local potential                                                             
   LCOR   =        T    correct aug charges                                                         
   LPAW   =        T    paw PP                                                                      
   EAUG   =  322.069                                                                                
   DEXC   =    0.000                                                                                
   RMAX   =    1.950    core radius for proj-oper                                                   
   RAUG   =    1.300    factor for augmentation sphere                                              
   RDEP   =    1.993    radius for radial grids                                                     
   RDEPT  =    1.837    core radius for aug-charge                                                  
                                                                                                    
   Atomic configuration                                                                             
    6 entries                                                                                       
     n  l   j            E        occ.                                                              
     1  0  0.50     -1785.8828   2.0000                                                             
     2  0  0.50      -139.4969   2.0000                                                             
     2  1  1.50       -95.5546   6.0000                                                             
     3  0  0.50       -10.8127   2.0000                                                             
     3  1  0.50        -4.0811   2.0000                                                             
     3  2  1.50        -4.0817   0.0000                                                             
   Description                                                                                      
     l       E           TYP  RCUT    TYP  RCUT                                                     
     0    -10.8127223     23  1.900                                                                 
     0     -7.6451159     23  1.900                                                                 
     1     -4.0811372     23  1.900                                                                 
     1      2.4879257     23  1.900                                                                 
     2     -4.0817478      7  1.900                                                                 
  local pseudopotential read in
  partial core-charges read in
  partial kinetic energy density read in
  atomic valenz-charges read in
  non local Contribution for L=           0  read in
    real space projection operators read in
  non local Contribution for L=           0  read in
    real space projection operators read in
  non local Contribution for L=           1  read in
    real space projection operators read in
  non local Contribution for L=           1  read in
    real space projection operators read in
    PAW grid and wavefunctions read in

   number of l-projection  operators is LMAX  =           4
   number of lm-projection operators is LMMAX =           8

 -----------------------------------------------------------------------------
|                                                                             |
|               ----> ADVICE to this user running VASP <----                  |
|                                                                             |
|     You have a (more or less) 'large supercell' and for larger cells it     |
|     might be more efficient to use real-space projection operators.         |
|     Therefore, try LREAL= Auto in the INCAR file.                           |
|     Mind: For very accurate calculation, you might also keep the            |
|     reciprocal projection scheme (i.e. LREAL=.FALSE.).                      |
|                                                                             |
 -----------------------------------------------------------------------------

 -----------------------------------------------------------------------------
|                                                                             |
|               ----> ADVICE to this user running VASP <----                  |
|                                                                             |
|     You enforced a specific xc type in the INCAR file but a different       |
|     type was found in the POTCAR file.                                      |
|     I HOPE YOU KNOW WHAT YOU ARE DOING!                                     |
|                                                                             |
 -----------------------------------------------------------------------------

  PAW_PBE H 15Jun2001                   :
 energy of atom  1       EATOM=  -12.4884
 kinetic energy error for atom=    0.0000 (will be added to EATOM!!)
  PAW_PBE Si 05Jan2001                  :
 energy of atom  2       EATOM= -103.0669
 kinetic energy error for atom=    0.0001 (will be added to EATOM!!)


 POSCAR:  H Si
  positions in cartesian coordinates
  No initial velocities read in


 exchange-correlation table for SCAN
   RHO(1)=    0.500       N(1)  =     2000
   RHO(2)=  100.500       N(2)  =     4000



--------------------------------------------------------------------------------------------------------


 ion  position               nearest neighbor table
   1  0.346  0.527  0.465-   8 0.77
   2  0.647  0.011  0.384-  26 1.45
   3  0.821  0.922  0.382- 102 1.46
   4  0.511  0.256  0.560-  30 1.42
   5  0.759  0.044  0.359-
   6  0.199  0.276  0.452-  44 1.54
   7  0.807  0.022  0.424-  32 1.54
   8  0.303  0.532  0.480-   1 0.77
   9  0.922  0.979  0.527-  68 2.30  64 2.43  52 2.48  32 2.54
  10  0.723  0.628  0.518-  42 2.26  66 2.29  79 2.32  37 2.39
  11  0.387  0.152  0.470-  29 2.14  47 2.24  44 2.34  28 2.40
  12  0.982  0.259  0.384-  63 2.34  93 2.35  46 2.46
  13  0.331  0.321  0.370-  14 2.29  18 2.38  16 2.46  44 2.94
  14  0.240  0.196  0.354-  13 2.29  38 2.33  44 2.33
  15  0.589  0.190  0.637-  50 2.33  40 2.41  97 2.46
  16  0.235  0.458  0.383- 101 2.43  13 2.46  65 2.47
  17  0.266  0.140  0.575-  22 2.27  80 2.34  29 2.41  72 2.41
  18  0.457  0.381  0.413-  35 2.35  13 2.38  28 2.40  87 2.45
  19  0.134  0.088  0.460-  80 2.32  44 2.33  63 2.38  88 2.39
  20  0.732  0.290  0.411- 105 2.25  46 2.30  76 2.46  35 2.48
  21  0.184  0.300  0.656-  51 2.36  22 2.41
  22  0.304  0.284  0.600-  17 2.27  86 2.29  40 2.34  21 2.41
  23  0.931  0.315  0.500-  53 2.34  76 2.37  89 2.37  93 2.44
  24  0.035  0.874  0.371-  57 2.22  70 2.38  62 2.38 102 2.59
  25  0.528  0.516  0.597-  37 2.33  31 2.35  95 2.41
  26  0.568  0.984  0.411-   2 1.45  47 2.27 100 2.35  67 2.42
  27  0.347  0.776  0.617-  99 2.28  96 2.64
  28  0.420  0.311  0.485-  30 2.28  86 2.36  18 2.40  11 2.40
  29  0.401  0.088  0.536-  11 2.14  41 2.38  98 2.39  17 2.41
  30  0.557  0.294  0.522-   4 1.42  95 2.24  28 2.28  77 2.30
  31  0.372  0.522  0.576-  25 2.35  81 2.36  86 2.38  96 2.48
  32  0.871  0.073  0.458-   7 1.54  76 2.30  63 2.37   9 2.54
  33  0.100  0.605  0.463-  90 2.29 101 2.38  54 2.43  94 2.46
  34  0.047  0.764  0.557-  68 2.30  94 2.34 103 2.39  43 2.42
  35  0.572  0.286  0.382-  36 2.34  18 2.35  20 2.48
  36  0.496  0.161  0.348-  35 2.34  47 2.38
  37  0.625  0.641  0.583-  73 2.27  25 2.33  10 2.39  49 2.42
  38  0.214  0.038  0.348-  45 2.26  14 2.33  57 2.36
  39  0.459  0.865  0.516-  98 2.32  67 2.34  78 2.43  49 2.50
  40  0.434  0.249  0.644-  22 2.34  15 2.41
  41  0.561  0.061  0.547-  67 2.27  97 2.37  29 2.38  77 2.52
  42  0.636  0.523  0.480-  10 2.26  91 2.33  95 2.35 105 2.44
  43  0.099  0.889  0.606-  99 2.27  64 2.33  34 2.42
  44  0.247  0.188  0.435-   6 1.54  19 2.33  14 2.33  11 2.34  13 2.94
  45  0.320  0.975  0.395-  47 2.24  56 2.25  38 2.26  88 2.31
  46  0.828  0.267  0.349-  20 2.30  12 2.46
  47  0.438  0.071  0.410-  11 2.24  45 2.24  26 2.27  36 2.38
  48  0.878  0.760  0.451-  79 2.25  54 2.31  68 2.32 102 2.36
  49  0.565  0.796  0.574-  58 2.34  82 2.41  37 2.42  39 2.50  73 3.11
  50  0.723  0.228  0.598-  77 2.30  15 2.33  83 2.37  69 2.45
  51  0.045  0.293  0.614-  53 2.22  85 2.29  21 2.36  71 2.44
  52  0.808  0.905  0.578-  82 2.28 107 2.33 104 2.39   9 2.48
  53  0.066  0.271  0.539-  51 2.22  23 2.34  80 2.39  59 2.48
  54  0.934  0.615  0.469-  66 2.21  92 2.24  48 2.31  33 2.43
  55  0.722  0.489  0.344-  74 2.35 105 2.41
  56  0.370  0.840  0.366-  45 2.25 106 2.29 100 2.64
  57  0.053  0.022  0.354-  24 2.22  63 2.27  38 2.36
  58  0.586  0.828  0.653-  49 2.34  73 2.37  97 2.96
  59  0.166  0.405  0.521-  61 2.32  86 2.36 101 2.37  53 2.48
  60  0.955  0.572  0.655- 103 2.35  85 2.38
  61  0.138  0.508  0.581-  85 2.32  59 2.32  94 2.36  81 2.41
  62  0.105  0.853  0.445-  90 2.35  88 2.37  24 2.38  68 2.40
  63  0.002  0.110  0.413-  57 2.27  12 2.34  32 2.37  19 2.38
  64  0.031  0.029  0.585-  80 2.31  43 2.33   9 2.43  71 2.52
  65  0.345  0.583  0.365-  87 2.23 106 2.33  16 2.47
  66  0.869  0.582  0.535-  54 2.21  89 2.25  10 2.29 103 2.31
  67  0.586  0.953  0.492-  41 2.27  39 2.34  82 2.36  26 2.42
  68  0.978  0.843  0.498-   9 2.30  34 2.30  48 2.32  62 2.40
  69  0.748  0.394  0.590-  89 2.31  95 2.31  50 2.45
  70  0.107  0.736  0.346-  90 2.25  24 2.38
  71  0.985  0.148  0.643-  83 2.24  51 2.44  64 2.52
  72  0.268  0.036  0.640-  99 2.38  17 2.41
  73  0.689  0.702  0.648-  37 2.27  58 2.37 104 2.37  49 3.11
  74  0.845  0.592  0.353-  75 2.31  55 2.35  92 2.41
  75  0.740  0.712  0.353-  74 2.31  84 2.37 102 2.59
  76  0.811  0.216  0.476-  32 2.30  23 2.37  20 2.46  77 2.51
  77  0.673  0.186  0.526-  50 2.30  30 2.30  76 2.51  41 2.52
  78  0.420  0.720  0.480-  96 2.36  91 2.41  39 2.43 106 2.49
  79  0.731  0.764  0.476-  82 2.19  48 2.25  10 2.32  84 2.37
  80  0.124  0.117  0.539-  64 2.31  19 2.32  17 2.34  53 2.39
  81  0.260  0.538  0.634-  31 2.36  61 2.41
  82  0.692  0.858  0.531-  79 2.19  52 2.28  67 2.36  49 2.41
  83  0.831  0.148  0.644-  71 2.24 107 2.32  50 2.37
  84  0.632  0.746  0.412- 100 2.31  91 2.36  75 2.37  79 2.37
  85  0.003  0.445  0.609-  51 2.29  61 2.32  60 2.38  89 2.41
  86  0.323  0.384  0.539-  22 2.29  59 2.36  28 2.36  31 2.38
  87  0.487  0.538  0.385-  65 2.23  91 2.31  18 2.45
  88  0.230  0.954  0.460-  45 2.31  62 2.37  98 2.39  19 2.39
  89  0.883  0.431  0.552-  66 2.25  69 2.31  23 2.37  85 2.41
  90  0.165  0.714  0.417-  70 2.25  33 2.29 106 2.33  62 2.35
  91  0.540  0.629  0.444-  87 2.31  42 2.33  84 2.36  78 2.41
  92  0.870  0.508  0.423- 105 2.22  54 2.24  93 2.33  74 2.41
  93  0.980  0.392  0.430- 101 2.29  92 2.33  12 2.35  23 2.44
  94  0.155  0.648  0.541-  34 2.34  61 2.36  33 2.46  96 2.55
  95  0.621  0.427  0.544-  30 2.24  69 2.31  42 2.35  25 2.41
  96  0.329  0.673  0.543-  78 2.36  31 2.48  94 2.55  27 2.64
  97  0.603  0.023  0.623-  41 2.37 107 2.42  15 2.46  58 2.96
  98  0.323  0.944  0.528-  39 2.32  99 2.38  88 2.39  29 2.39
  99  0.254  0.896  0.598-  43 2.27  27 2.28  72 2.38  98 2.38
 100  0.551  0.850  0.367-  84 2.31  26 2.35  56 2.64
 101  0.124  0.447  0.445-  93 2.29  59 2.37  33 2.38  16 2.43
 102  0.863  0.831  0.379-   3 1.46  48 2.36  24 2.59  75 2.59
 103  0.931  0.673  0.593- 104 2.23  66 2.31  60 2.35  34 2.39
 104  0.830  0.770  0.624- 103 2.23  73 2.37  52 2.39
 105  0.732  0.442  0.424-  92 2.22  20 2.25  55 2.41  42 2.44
 106  0.325  0.716  0.409-  56 2.29  90 2.33  65 2.33  78 2.49
 107  0.765  0.003  0.638-  83 2.32  52 2.33  97 2.42

  LATTYP: Found a simple tetragonal cell.
 ALAT       =    14.5330482480
 C/A-ratio  =     1.9999031864
  
  Lattice vectors:
  
 A1 = (  14.5330482480,   0.0000000000,   0.0000000000)
 A2 = (   0.0000000000,  14.5330482480,   0.0000000000)
 A3 = (   0.0000000000,   0.0000000000,  29.0646895000)


Analysis of symmetry for initial positions (statically):
=====================================================================
 Subroutine PRICEL returns:
 Original cell was already a primitive cell.
 

 Routine SETGRP: Setting up the symmetry group for a 
 simple tetragonal supercell.


 Subroutine GETGRP returns: Found  1 space group operations
 (whereof  1 operations were pure point group operations)
 out of a pool of 16 trial point group operations.


The static configuration has the point symmetry C_1 .


Analysis of symmetry for dynamics (positions and initial velocities):
=====================================================================
 Subroutine PRICEL returns:
 Original cell was already a primitive cell.
 

 Routine SETGRP: Setting up the symmetry group for a 
 simple tetragonal supercell.


 Subroutine GETGRP returns: Found  1 space group operations
 (whereof  1 operations were pure point group operations)
 out of a pool of 16 trial point group operations.


The dynamic configuration has the point symmetry C_1 .


 Subroutine INISYM returns: Found  1 space group operations
 (whereof  1 operations are pure point group operations),
 and found     1 'primitive' translations


----------------------------------------------------------------------------------------

                                     Primitive cell                                     

  volume of cell :    6138.7383

  direct lattice vectors                    reciprocal lattice vectors
    14.533048248  0.000000000  0.000000000     0.068808689  0.000000000  0.000000000
     0.000000000 14.533048248  0.000000000     0.000000000  0.068808689  0.000000000
     0.000000000  0.000000000 29.064689500     0.000000000  0.000000000  0.034406010

  length of vectors
    14.533048248 14.533048248 29.064689500     0.068808689  0.068808689  0.034406010

  position of ions in fractional coordinates (direct lattice)
     0.346154497  0.526754599  0.464856144
     0.647482196  0.010909893  0.383951100
     0.820509214  0.921637345  0.382068747
     0.511229982  0.255618776  0.560340736
     0.759159387  0.043660834  0.358545874
     0.199037391  0.276444414  0.451697566
     0.807201614  0.022105067  0.424394333
     0.302575201  0.532343929  0.479835489
     0.921843771  0.978906817  0.526866440
     0.722656377  0.627599238  0.517518328
     0.387430077  0.152134636  0.469745583
     0.982072017  0.258805306  0.384059479
     0.330622999  0.320633354  0.370318269
     0.240361825  0.195722188  0.354464358
     0.588864074  0.189552113  0.637167636
     0.235342231  0.458225273  0.383289128
     0.265854068  0.140360093  0.575359647
     0.457136719  0.381262066  0.412863502
     0.133721430  0.087566626  0.460309390
     0.732069406  0.289598571  0.411252957
     0.183739155  0.299792578  0.655939899
     0.304294731  0.283937680  0.599571501
     0.931476987  0.314933930  0.500258897
     0.034978828  0.873925400  0.371300629
     0.527982146  0.516431231  0.596819020
     0.568022610  0.984370227  0.411032414
     0.347382732  0.776210180  0.617468819
     0.420035762  0.311021468  0.485122317
     0.401438150  0.087761355  0.535605567
     0.557465293  0.293907371  0.521739257
     0.371832523  0.521664820  0.576059810
     0.870601940  0.073434697  0.457981135
     0.100063660  0.605250175  0.463385632
     0.047245009  0.763845259  0.556968603
     0.571842869  0.286243459  0.381608051
     0.496148494  0.161196740  0.347889989
     0.624590234  0.641107759  0.583153985
     0.213713596  0.038110862  0.348042820
     0.459222999  0.865386241  0.515847228
     0.434453935  0.248823230  0.643661082
     0.561072245  0.060825230  0.547106808
     0.636310418  0.522661170  0.479695113
     0.098774185  0.889132120  0.605564340
     0.246906908  0.188468376  0.434501786
     0.320094582  0.975177386  0.395278246
     0.828140098  0.266687341  0.349374298
     0.437506289  0.070573632  0.409547451
     0.878219062  0.760411705  0.451423006
     0.564604883  0.795765610  0.574413826
     0.723000421  0.228488886  0.598113718
     0.045217905  0.293294973  0.613553415
     0.807848416  0.904806739  0.578499196
     0.065788469  0.270989949  0.538579278
     0.933727032  0.615116653  0.468597798
     0.722243525  0.489240790  0.344060101
     0.369751060  0.840298593  0.366318742
     0.052740415  0.021604621  0.353924218
     0.586451641  0.828456618  0.652573271
     0.166014724  0.404525596  0.521243122
     0.954920108  0.571617864  0.654734657
     0.137780455  0.507894137  0.580529494
     0.104918113  0.853468576  0.444820149
     0.001842786  0.109816604  0.413022802
     0.031008361  0.028710494  0.584988169
     0.345465034  0.582552941  0.365280162
     0.869177600  0.581867607  0.535409453
     0.586149571  0.952910894  0.492164195
     0.978445799  0.843257367  0.497703218
     0.747606408  0.394209797  0.589543181
     0.107378712  0.736142881  0.345888041
     0.985154646  0.148231119  0.643484235
     0.267687820  0.036256399  0.639923213
     0.689125903  0.701876153  0.647624655
     0.845287223  0.592499925  0.353020200
     0.740202593  0.712052958  0.353265652
     0.811220041  0.215696662  0.476210472
     0.673350823  0.185974749  0.526046201
     0.420257326  0.719649438  0.480127940
     0.731250583  0.763563143  0.475811362
     0.124185234  0.117327072  0.538561043
     0.259928952  0.538092207  0.634442336
     0.692160366  0.857837928  0.531279699
     0.830954373  0.147557482  0.644033011
     0.632068362  0.746367852  0.411637960
     0.002758733  0.444517206  0.608917549
     0.322927435  0.383777024  0.539273248
     0.486811843  0.537511461  0.385149117
     0.229991667  0.953956786  0.459716231
     0.882822363  0.431051345  0.552195113
     0.165447053  0.714351169  0.416820193
     0.539978941  0.629386199  0.444423447
     0.869659261  0.507821888  0.423407568
     0.979932066  0.392201959  0.429934388
     0.154973682  0.648338176  0.540617835
     0.620573870  0.427087277  0.544408345
     0.328789248  0.673299905  0.543026943
     0.602711135  0.023008662  0.623465098
     0.322510455  0.944130905  0.527561786
     0.254149022  0.896315747  0.598132297
     0.551410128  0.849684099  0.366889538
     0.124073076  0.447209002  0.445488657
     0.862833439  0.830926850  0.378765770
     0.930575594  0.672922145  0.593095946
     0.830094265  0.770120611  0.624425370
     0.731725363  0.442176334  0.423543816
     0.325101790  0.715747985  0.408933992
     0.765345288  0.002669323  0.638220804

  ion indices of the primitive-cell ions
   primitive index   ion index
                 1           1
                 2           2
                 3           3
                 4           4
                 5           5
                 6           6
                 7           7
                 8           8
                 9           9
                10          10
                11          11
                12          12
                13          13
                14          14
                15          15
                16          16
                17          17
                18          18
                19          19
                20          20
                21          21
                22          22
                23          23
                24          24
                25          25
                26          26
                27          27
                28          28
                29          29
                30          30
                31          31
                32          32
                33          33
                34          34
                35          35
                36          36
                37          37
                38          38
                39          39
                40          40
                41          41
                42          42
                43          43
                44          44
                45          45
                46          46
                47          47
                48          48
                49          49
                50          50
                51          51
                52          52
                53          53
                54          54
                55          55
                56          56
                57          57
                58          58
                59          59
                60          60
                61          61
                62          62
                63          63
                64          64
                65          65
                66          66
                67          67
                68          68
                69          69
                70          70
                71          71
                72          72
                73          73
                74          74
                75          75
                76          76
                77          77
                78          78
                79          79
                80          80
                81          81
                82          82
                83          83
                84          84
                85          85
                86          86
                87          87
                88          88
                89          89
                90          90
                91          91
                92          92
                93          93
                94          94
                95          95
                96          96
                97          97
                98          98
                99          99
               100         100
               101         101
               102         102
               103         103
               104         104
               105         105
               106         106
               107         107

----------------------------------------------------------------------------------------


 -----------------------------------------------------------------------------
|                                                                             |
|           W    W    AA    RRRRR   N    N  II  N    N   GGGG   !!!           |
|           W    W   A  A   R    R  NN   N  II  NN   N  G    G  !!!           |
|           W    W  A    A  R    R  N N  N  II  N N  N  G       !!!           |
|           W WW W  AAAAAA  RRRRR   N  N N  II  N  N N  G  GGG   !            |
|           WW  WW  A    A  R   R   N   NN  II  N   NN  G    G                |
|           W    W  A    A  R    R  N    N  II  N    N   GGGG   !!!           |
|                                                                             |
|     The requested file  could not be found or opened for reading            |
|     k-point information. Automatic k-point generation is used as a          |
|     fallback, which may lead to unwanted results.                           |
|                                                                             |
 -----------------------------------------------------------------------------



Automatic generation of k-mesh.
 Grid dimensions derived from KSPACING:
 generate k-points for:    2    2    1

 Generating k-lattice:

  Cartesian coordinates                     Fractional coordinates (reciprocal lattice)
     0.034404345  0.000000000  0.000000000     0.500000000  0.000000000  0.000000000
     0.000000000  0.034404345  0.000000000     0.000000000  0.500000000  0.000000000
     0.000000000  0.000000000  0.034406010     0.000000000  0.000000000  1.000000000

  Length of vectors
     0.034404345  0.034404345  0.034406010

  Shift w.r.t. Gamma in fractional coordinates (k-lattice)
     0.000000000  0.000000000  0.000000000

 
 Subroutine IBZKPT returns following result:
 ===========================================
 
 Found      4 irreducible k-points:
 
 Following reciprocal coordinates:
            Coordinates               Weight
  0.000000  0.000000  0.000000      1.000000
  0.500000  0.000000  0.000000      1.000000
  0.000000  0.500000  0.000000      1.000000
  0.500000  0.500000  0.000000      1.000000
 
 Following cartesian coordinates:
            Coordinates               Weight
  0.000000  0.000000  0.000000      1.000000
  0.034404  0.000000  0.000000      1.000000
  0.000000  0.034404  0.000000      1.000000
  0.034404  0.034404  0.000000      1.000000
 


--------------------------------------------------------------------------------------------------------




 Dimension of arrays:
   k-points           NKPTS =      4   k-points in BZ     NKDIM =      4   number of bands    NBANDS=    256
   number of dos      NEDOS =   2000   number of ions     NIONS =    107
   non local maximal  LDIM  =      4   non local SUM 2l+1 LMDIM =      8
   total plane-waves  NPLWV = ******
   max r-space proj   IRMAX =      1   max aug-charges    IRDMAX= 413360
   dimension x,y,z NGX =   168 NGY =  168 NGZ =  336
   dimension x,y,z NGXF=   336 NGYF=  336 NGZF=  672
   support grid    NGXF=   672 NGYF=  672 NGZF= 1344
   ions per type =               8  99
   NGX,Y,Z   is equivalent  to a cutoff of  19.22, 19.22, 19.22 a.u.
   NGXF,Y,Z  is equivalent  to a cutoff of  38.44, 38.44, 38.44 a.u.

 SYSTEM =  a-Si SPC                                
 POSCAR =   H Si                                   

 Startparameter for this run:
   NWRITE =      2    write-flag & timer
   PREC   = accura    normal or accurate (medium, high low for compatibility)
   ISTART =      1    job   : 0-new  1-cont  2-samecut
   ICHARG =      1    charge: 1-file 2-atom 10-const
   ISPIN  =      1    spin polarized calculation?
   LNONCOLLINEAR =      F non collinear calculations
   LSORBIT =      F    spin-orbit coupling
   INIWAV =      1    electr: 0-lowe 1-rand  2-diag
   LASPH  =      T    aspherical Exc in radial PAW
 Electronic Relaxation 1
   ENCUT  = 1200.0 eV  88.20 Ry    9.39 a.u.  41.05 41.05 82.09*2*pi/ulx,y,z
   ENINI  = 1200.0     initial cutoff
   ENAUG  =  400.0 eV  augmentation charge cutoff
   NELM   =    150;   NELMIN=  2; NELMDL=  0     # of ELM steps 
   EDIFF  = 0.1E-05   stopping-criterion for ELM
   LREAL  =      F    real-space projection
   NLSPLINE    = F    spline interpolate recip. space projectors
   LCOMPAT=      F    compatible to vasp.4.4
   GGA_COMPAT  = T    GGA compatible to vasp.4.4-vasp.4.6
   LMAXPAW     = -100 max onsite density
   LMAXMIX     =    2 max onsite mixed and CHGCAR
   VOSKOWN=      0    Vosko Wilk Nusair interpolation
   ROPT   =    0.00000   0.00000
 Ionic relaxation
   EDIFFG = -.1E-01   stopping-criterion for IOM
   NSW    =      0    number of steps for IOM
   NBLOCK =      1;   KBLOCK =      1    inner block; outer block 
   IBRION =     -1    ionic relax: 0-MD 1-quasi-New 2-CG
   NFREE  =      0    steps in history (QN), initial steepest desc. (CG)
   ISIF   =      2    stress and relaxation
   IWAVPR =     10    prediction:  0-non 1-charg 2-wave 3-comb
   ISYM   =      1    0-nonsym 1-usesym 2-fastsym
   LCORR  =      T    Harris-Foulkes like correction to forces

   POTIM  = 0.5000    time-step for ionic-motion
   TEIN   =    0.0    initial temperature
   TEBEG  =    0.0;   TEEND  =   0.0 temperature during run
   SMASS  =  -3.00    Nose mass-parameter (am)
   estimated Nose-frequenzy (Omega)   =  0.10E-29 period in steps = 0.13E+47 mass=  -0.483E-26a.u.
   SCALEE = 1.0000    scale energy and forces
   NPACO  =    256;   APACO  = 10.0  distance and # of slots for P.C.
   PSTRESS=    0.0 pullay stress

  Mass of Ions in am
   POMASS =   1.00 28.09
  Ionic Valenz
   ZVAL   =   1.00  4.00
  Atomic Wigner-Seitz radii
   RWIGS  =  -1.00 -1.00
  virtual crystal weights 
   VCA    =   1.00  1.00
   NELECT =     404.0000    total number of electrons
   NUPDOWN=      -1.0000    fix difference up-down

 DOS related values:
   EMIN   =  10.00;   EMAX   =-10.00  energy-range for DOS
   EFERMI =   0.00;   METHOD = LEGACY      
   ISMEAR =     0;   SIGMA  =   0.10  broadening in eV -4-tet -1-fermi 0-gaus
   EFERMI_NEDOS =   21; number of points for ismear=-14 and -15

 Electronic relaxation 2 (details)
   IALGO  =     38    algorithm
   LDIAG  =      F    sub-space diagonalisation (order eigenvalues)
   LSUBROT=      F    optimize rotation matrix (better conditioning)
   TURBO    =      0    0=normal 1=particle mesh
   IRESTART =      0    0=no restart 2=restart with 2 vectors
   NREBOOT  =      0    no. of reboots
   NMIN     =      0    reboot dimension
   EREF     =   0.00    reference energy to select bands
   IMIX   =      4    mixing-type and parameters
     AMIX     =   0.40;   BMIX     =  1.00
     AMIX_MAG =   1.60;   BMIX_MAG =  1.00
     AMIN     =   0.10
     WC   =   100.;   INIMIX=   1;  MIXPRE=   1;  MAXMIX= -45

 Intra band minimization:
   WEIMIN = 0.0000     energy-eigenvalue tresh-hold
   EBREAK =  0.98E-09  absolut break condition
   DEPER  =   0.30     relativ break condition  

   TIME   =   0.40     timestep for ELM

  volume/ion in A,a.u.               =      57.37       387.16
  Fermi-wavevector in a.u.,A,eV,Ry     =   0.660961  1.249034  5.943963  0.436869
  Thomas-Fermi vector in A             =   1.733571

 Write flags
   LWAVE        =      F    write WAVECAR
   LDOWNSAMPLE  =      F    k-point downsampling of WAVECAR
   LCHARG       =      F    write CHGCAR
   LVTOT        =      F    write LOCPOT, total local potential
   LVHAR        =      F    write LOCPOT, Hartree potential only
   WRT_POTENTIAL= false  ! write potential to hdf5 file
   LELF         =      F    write electronic localiz. function (ELF)
   LORBIT       =     11    0 simple, 1 ext, 2 COOP (PROOUT), +10 PAW based schemes


 Python interface
   PLUGINS active      =      F    recompile with -DPLUGINS to activate

 Dipole corrections
   LMONO      =      F    monopole corrections only (constant potential shift)
   LDIPOL     =      F    correct potential (dipole corrections)
   IDIPOL     =      0    1-x, 2-y, 3-z, 4-all directions 
   EPSILON    =  1.0000000 bulk dielectric constant
   LVACPOTAV  =      F  vacuum potentials using an averaging scheme for the charge density
   VACPOTFLAT =  0.1000000 required flatness to determine vacuum potential

Coulomb truncation method
  LTRUNCATE          =      F  Coulomb kernel truncation to be used
  IDIMENSIONALITY    =      3  Dimensionality of cutoff (0 molecules / 2 surfaces)
  ISURFACE           =     -1  Direction of surface normal
  LCOARSEN           =      F  Coarsen the charge grid before padding, preferred


 Exchange correlation treatment:
   METAGGA = SCAN    functional components
   XC_C    = 1    coefficients multiplying the functional components
   LIBXC   =     F    Libxc                    
   VOSKOWN =     0    Vosko Wilk Nusair interpolation
   LHFCALC =     F    Hartree Fock is set to
   LHFONE  =     F    Hartree Fock one center treatment
   AEXX    =    0.0000 exact exchange contribution

 Parameters of functionals:
   SCAN:
     P1 =  0.000000E+00
     P2 =  0.000000E+00
     P3 =  0.000000E+00

 Accuracy and mixing parameters for tau-dependent meta-GGA functionals:
   LMAXTAU = 6
   LMIXTAU = T

 Van der Waals corrections
   IVDW    =     0    specifies the selected vdW correction

 Linear response parameters
   LEPSILON=     F    determine dielectric tensor
   LRPA    =     F    only Hartree local field effects (RPA)
   LNABLA  =     F    use nabla operator in PAW spheres
   LVEL    =     F    velocity operator in full k-point grid
   CSHIFT  =0.1000    complex shift for real part using Kramers Kronig
   OMEGAMAX=  -1.0    maximum frequency
   DEG_THRESHOLD= 0.2000000E-02 threshold for treating states as degnerate
   RTIME   =   -0.100 relaxation time in fs
  (WPLASMAI=    0.000 imaginary part of plasma frequency in eV, 0.658/RTIME)
   DFIELD  = 0.0000000 0.0000000 0.0000000 field for delta impulse in time

  Optional k-point grid parameters
   LKPOINTS_OPT  =     F    use optional k-point grid
   KPOINTS_OPT_MODE=     1    mode for optional k-point grid

 Orbital magnetization related:
   ORBITALMAG=     F  switch on orbital magnetization
   LCHIMAG   =     F  perturbation theory with respect to B field
   DQ        =  0.001000  dq finite difference perturbation B field
   LLRAUG    =     F  two centre corrections for induced B field
   LBONE     =     F  B-component reconstruction in AE one-centre
   LVGVCALC  =     T  calculate vGv susceptibility
   LVGVAPPL  =     F  apply vGv susceptibility instead of pGv for G=0

 Random number generation:
   RANDOM_GENERATOR = DEFAULT
   PCG_SEED         = not used


--------------------------------------------------------------------------------------------------------


 Static calculation
 charge density and potential will be updated during run
 non-spin polarized calculation
 Variant of blocked Davidson
 perform Loewdin sub-space diagonalisation
    ordering is kept fixed
    before iterative eigenvector-optimisation
 modified Broyden-mixing scheme, WC =      100.0
 initial mixing is a Kerker type mixing with AMIX =  0.4000 and BMIX =      1.0000
 Hartree-type preconditioning will be used
 using additional bands           54
 reciprocal scheme for non local part
 use partial core corrections
 calculate Harris-corrections to forces   (improved forces if not selfconsistent)
 use gradient corrections 
 use of overlap-Matrix (Vanderbilt PP)
 Gauss-broadening in eV      SIGMA  =   0.10


--------------------------------------------------------------------------------------------------------


  energy-cutoff  :     1200.00
  volume of cell :     6138.74
      direct lattice vectors                 reciprocal lattice vectors
    14.533048248  0.000000000  0.000000000     0.068808689  0.000000000  0.000000000
     0.000000000 14.533048248  0.000000000     0.000000000  0.068808689  0.000000000
     0.000000000  0.000000000 29.064689500     0.000000000  0.000000000  0.034406010

  length of vectors
    14.533048248 14.533048248 29.064689500     0.068808689  0.068808689  0.034406010



 old parameters found on file WAVECAR:
  energy-cutoff  :     1200.00
  volume of cell :     6138.74
      direct lattice vectors                 reciprocal lattice vectors
    14.533048248  0.000000000  0.000000000     0.068808689  0.000000000  0.000000000
     0.000000000 14.533048248  0.000000000     0.000000000  0.068808689  0.000000000
     0.000000000  0.000000000 29.064689500     0.000000000  0.000000000  0.034406010

  length of vectors


 k-points in units of 2pi/SCALE and weight: read from INCAR                         
   0.00000000  0.00000000  0.00000000       0.250
   0.03440434  0.00000000  0.00000000       0.250
   0.00000000  0.03440434  0.00000000       0.250
   0.03440434  0.03440434  0.00000000       0.250

 k-points in reciprocal lattice and weights: read from INCAR                         
   0.00000000  0.00000000  0.00000000       0.250
   0.50000000  0.00000000  0.00000000       0.250
   0.00000000  0.50000000  0.00000000       0.250
   0.50000000  0.50000000  0.00000000       0.250

 position of ions in fractional coordinates (direct lattice) 
   0.34615450  0.52675460  0.46485614
   0.64748220  0.01090989  0.38395110
   0.82050921  0.92163734  0.38206875
   0.51122998  0.25561878  0.56034074
   0.75915939  0.04366083  0.35854587
   0.19903739  0.27644441  0.45169757
   0.80720161  0.02210507  0.42439433
   0.30257520  0.53234393  0.47983549
   0.92184377  0.97890682  0.52686644
   0.72265638  0.62759924  0.51751833
   0.38743008  0.15213464  0.46974558
   0.98207202  0.25880531  0.38405948
   0.33062300  0.32063335  0.37031827
   0.24036183  0.19572219  0.35446436
   0.58886407  0.18955211  0.63716764
   0.23534223  0.45822527  0.38328913
   0.26585407  0.14036009  0.57535965
   0.45713672  0.38126207  0.41286350
   0.13372143  0.08756663  0.46030939
   0.73206941  0.28959857  0.41125296
   0.18373915  0.29979258  0.65593990
   0.30429473  0.28393768  0.59957150
   0.93147699  0.31493393  0.50025890
   0.03497883  0.87392540  0.37130063
   0.52798215  0.51643123  0.59681902
   0.56802261  0.98437023  0.41103241
   0.34738273  0.77621018  0.61746882
   0.42003576  0.31102147  0.48512232
   0.40143815  0.08776135  0.53560557
   0.55746529  0.29390737  0.52173926
   0.37183252  0.52166482  0.57605981
   0.87060194  0.07343470  0.45798114
   0.10006366  0.60525018  0.46338563
   0.04724501  0.76384526  0.55696860
   0.57184287  0.28624346  0.38160805
   0.49614849  0.16119674  0.34788999
   0.62459023  0.64110776  0.58315398
   0.21371360  0.03811086  0.34804282
   0.45922300  0.86538624  0.51584723
   0.43445394  0.24882323  0.64366108
   0.56107224  0.06082523  0.54710681
   0.63631042  0.52266117  0.47969511
   0.09877419  0.88913212  0.60556434
   0.24690691  0.18846838  0.43450179
   0.32009458  0.97517739  0.39527825
   0.82814010  0.26668734  0.34937430
   0.43750629  0.07057363  0.40954745
   0.87821906  0.76041171  0.45142301
   0.56460488  0.79576561  0.57441383
   0.72300042  0.22848889  0.59811372
   0.04521791  0.29329497  0.61355342
   0.80784842  0.90480674  0.57849920
   0.06578847  0.27098995  0.53857928
   0.93372703  0.61511665  0.46859780
   0.72224353  0.48924079  0.34406010
   0.36975106  0.84029859  0.36631874
   0.05274042  0.02160462  0.35392422
   0.58645164  0.82845662  0.65257327
   0.16601472  0.40452560  0.52124312
   0.95492011  0.57161786  0.65473466
   0.13778045  0.50789414  0.58052949
   0.10491811  0.85346858  0.44482015
   0.00184279  0.10981660  0.41302280
   0.03100836  0.02871049  0.58498817
   0.34546503  0.58255294  0.36528016
   0.86917760  0.58186761  0.53540945
   0.58614957  0.95291089  0.49216419
   0.97844580  0.84325737  0.49770322
   0.74760641  0.39420980  0.58954318
   0.10737871  0.73614288  0.34588804
   0.98515465  0.14823112  0.64348424
   0.26768782  0.03625640  0.63992321
   0.68912590  0.70187615  0.64762465
   0.84528722  0.59249993  0.35302020
   0.74020259  0.71205296  0.35326565
   0.81122004  0.21569666  0.47621047
   0.67335082  0.18597475  0.52604620
   0.42025733  0.71964944  0.48012794
   0.73125058  0.76356314  0.47581136
   0.12418523  0.11732707  0.53856104
   0.25992895  0.53809221  0.63444234
   0.69216037  0.85783793  0.53127970
   0.83095437  0.14755748  0.64403301
   0.63206836  0.74636785  0.41163796
   0.00275873  0.44451721  0.60891755
   0.32292744  0.38377702  0.53927325
   0.48681184  0.53751146  0.38514912
   0.22999167  0.95395679  0.45971623
   0.88282236  0.43105135  0.55219511
   0.16544705  0.71435117  0.41682019
   0.53997894  0.62938620  0.44442345
   0.86965926  0.50782189  0.42340757
   0.97993207  0.39220196  0.42993439
   0.15497368  0.64833818  0.54061783
   0.62057387  0.42708728  0.54440834
   0.32878925  0.67329990  0.54302694
   0.60271113  0.02300866  0.62346510
   0.32251045  0.94413091  0.52756179
   0.25414902  0.89631575  0.59813230
   0.55141013  0.84968410  0.36688954
   0.12407308  0.44720900  0.44548866
   0.86283344  0.83092685  0.37876577
   0.93057559  0.67292214  0.59309595
   0.83009426  0.77012061  0.62442537
   0.73172536  0.44217633  0.42354382
   0.32510179  0.71574799  0.40893399
   0.76534529  0.00266932  0.63822080

 position of ions in cartesian coordinates  (Angst):
   5.03068000  7.65535000 13.51089950
   9.40989000  0.15855400 11.15941950
  11.92450000 13.39420000 11.10470950
   7.42973000  3.71492000 16.28612950
  11.03290000  0.63452500 10.42102450
   2.89262000  4.01758000 13.12844950
  11.73110000  0.32125400 12.33488950
   4.39734000  7.73658000 13.94626950
  13.39720000 14.22650000 15.31320950
  10.50240000  9.12093000 15.04150950
   5.63054000  2.21098000 13.65300950
  14.27250000  3.76123000 11.16256950
   4.80496000  4.65978000 10.76318550
   3.49319000  2.84444000 10.30239650
   8.55799000  2.75477000 18.51907950
   3.42024000  6.65941000 11.14017950
   3.86367000  2.03986000 16.72264950
   6.64359000  5.54090000 11.99974950
   1.94338000  1.27261000 13.37874950
  10.63920000  4.20875000 11.95293950
   2.67029000  4.35690000 19.06468950
   4.42233000  4.12648000 17.42635950
  13.53720000  4.57695000 14.53986950
   0.50834900 12.70080000 10.79173750
   7.67319000  7.50532000 17.34635950
   8.25510000 14.30590000 11.94652950
   5.04853000 11.28070000 17.94653950
   6.10440000  4.52009000 14.09992950
   5.83412000  1.27544000 15.56720950
   8.10167000  4.27137000 15.16418950
   5.40386000  7.58138000 16.74299950
  12.65250000  1.06723000 13.31107950
   1.45423000  8.79613000 13.46815950
   0.68661400 11.10100000 16.18811950
   8.31062000  4.15999000 11.09131950
   7.21055000  2.34268000 10.11131450
   9.07720000  9.31725000 16.94918950
   3.10591000  0.55386700 10.11575650
   6.67391000 12.57670000 14.99293950
   6.31394000  3.61616000 18.70780950
   8.15409000  0.88397600 15.90148950
   9.24753000  7.59586000 13.94218950
   1.43549000 12.92180000 17.60053950
   3.58831000  2.73902000 12.62865950
   4.65195000 14.17230000 11.48863950
  12.03540000  3.87578000 10.15445550
   6.35830000  1.02565000 11.90336950
  12.76320000 11.05110000 13.12046950
   8.20543000 11.56490000 16.69515950
  10.50740000  3.32064000 17.38398950
   0.65715400  4.26247000 17.83273950
  11.74050000 13.14960000 16.81389950
   0.95610700  3.93831000 15.65363950
  13.56990000  8.93952000 13.61964950
  10.49640000  7.11016000 10.00000000
   5.37361000 12.21210000 10.64694050
   0.76647900  0.31398100 10.28669750
   8.52293000 12.04000000 18.96683950
   2.41270000  5.87899000 15.14976950
  13.87790000  8.30735000 19.02965950
   2.00237000  7.38125000 16.87290950
   1.52478000 12.40350000 12.92855950
   0.02678130  1.59597000 12.00437950
   0.45064600  0.41725100 17.00249950
   5.02066000  8.46627000 10.61675450
  12.63180000  8.45631000 15.56150950
   8.51854000 13.84870000 14.30459950
  14.21980000 12.25510000 14.46558950
  10.86500000  5.72907000 17.13488950
   1.56054000 10.69840000 10.05312850
  14.31730000  2.15425000 18.70266950
   3.89032000  0.52691600 18.59916950
  10.01510000 10.20040000 18.82300950
  12.28460000  8.61083000 10.26042250
  10.75740000 10.34830000 10.26755650
  11.78950000  3.13473000 13.84090950
   9.78584000  2.70278000 15.28936950
   6.10762000 10.45870000 13.95476950
  10.62730000 11.09690000 13.82930950
   1.80479000  1.70512000 15.65310950
   3.77756000  7.82012000 18.43986950
  10.05920000 12.46700000 15.44147950
  12.07630000  2.14446000 18.71861950
   9.18588000 10.84700000 11.96412950
   0.04009280  6.46019000 17.69799950
   4.69312000  5.57745000 15.67380950
   7.07486000  7.81168000 11.19423950
   3.34248000 13.86390000 13.36150950
  12.83010000  6.26449000 16.04937950
   2.40445000 10.38170000 12.11474950
   7.84754000  9.14690000 12.91702950
  12.63880000  7.38020000 12.30620950
  14.24140000  5.69989000 12.49590950
   2.25224000  9.42233000 15.71288950
   9.01883000  6.20688000 15.82305950
   4.77831000  9.78510000 15.78290950
   8.75923000  0.33438600 18.12081950
   4.68706000 13.72110000 15.33341950
   3.69356000 13.02620000 17.38452950
   8.01367000 12.34850000 10.66353050
   1.80316000  6.49931000 12.94798950
  12.53960000 12.07590000 11.00870950
  13.52410000  9.77961000 17.23814950
  12.06380000 11.19220000 18.14872950
  10.63420000  6.42617000 12.31016950
   4.72472000 10.40200000 11.88553950
  11.12280000  0.03879340 18.54968950



--------------------------------------------------------------------------------------------------------


 k-point     1 :   0.0000 0.0000 0.0000  plane waves:  578957
 k-point     2 :   0.5000 0.0000 0.0000  plane waves:  579334
 k-point     3 :   0.0000 0.5000 0.0000  plane waves:  579334
 k-point     4 :   0.5000 0.5000 0.0000  plane waves:  579916

 maximum and minimum number of plane-waves per node :     36272    36121

 maximum number of plane-waves:    579916
 maximum index in each direction: 
   IXMAX=   41   IYMAX=   41   IZMAX=   82
   IXMIN=  -41   IYMIN=  -41   IZMIN=  -82


 parallel 3D FFT for wavefunctions:
    minimum data exchange during FFTs selected (reduces bandwidth)
 parallel 3D FFT for charge:
    minimum data exchange during FFTs selected (reduces bandwidth)


 total amount of memory used by VASP MPI-rank0   387448. kBytes
=======================================================================

   base                                    :      30000. kBytes
   nonl-proj                               :      80615. kBytes
   fftplans                                :     114278. kBytes
   grid                                    :      88184. kBytes
   one-center                              :         21. kBytes
   wavefun                                 :      74350. kBytes

     INWAV:  cpu time     21.3215: real time     21.3341
 Broyden mixing: mesh for mixing (old mesh)
   NGX = 83   NGY = 83   NGZ =165
  (NGX  =336   NGY  =336   NGZ  =672)
  gives a total of ****** points

 initial charge density was supplied:
 number of electron     403.9999999 magnetization 
 keeping initial charge density in first step


--------------------------------------------------------------------------------------------------------


 Maximum index for augmentation-charges        11529 (set IRDMAX)


--------------------------------------------------------------------------------------------------------


 First call to EWALD:  gamma=   0.097
 Maximum number of real-space cells   3x   3x   2
 Maximum number of reciprocal cells   2x   2x   4

    FEWALD:  cpu time      0.0182: real time      0.0187


--------------------------------------- Ionic step        1  -------------------------------------------




--------------------------------------- Iteration      1(   1)  ---------------------------------------


    POTLOK:  cpu time      2.2890: real time      2.2902
    SETDIJ:  cpu time      1.7487: real time      1.7506
    EDDIAG:  cpu time     43.2310: real time     43.2579
     EDDAV:  cpu time    204.5627: real time    204.6740
       DOS:  cpu time      0.0118: real time      0.0122
    CHARGE:  cpu time     25.0837: real time     25.1094
    MIXING:  cpu time      0.0594: real time      0.0599
    --------------------------------------------
      LOOP:  cpu time    276.9864: real time    277.1542

 eigenvalue-minimisations  :  2048
 total energy-change (2. order) :-0.1013916E+04  (-0.1142329E+01)
 number of electron     403.9999999 magnetization 
 augmentation part      -22.5198963 magnetization 

 Broyden mixing:
  rms(total) = 0.12123E+01    rms(broyden)= 0.12123E+01
  rms(prec ) = 0.12139E+01
  weight for this iteration     100.00

 Free energy of the ion-electron system (eV)
  ---------------------------------------------------
  alpha Z        PSCENC =        56.11435480
  Ewald energy   TEWEN  =     65029.64746498
  -Hartree energ DENC   =    -74212.21481072
  -exchange      EXHF   =         0.00000000
  -V(xc)+E(xc)   XCENC  =      -471.08011463
  PAW double counting   =     36197.38373800   -35210.26088312
  entropy T*S    EENTRO =        -0.24674157
  eigenvalues    EBANDS =     -2706.78219567
  atomic energy  EATOM  =     10303.52363856
  Solvation  Ediel_sol  =         0.00000000
  ---------------------------------------------------
  free energy    TOTEN  =     -1013.91554937 eV

  energy without entropy =    -1013.66880779  energy(sigma->0) =    -1013.79217858


--------------------------------------------------------------------------------------------------------




--------------------------------------- Iteration      1(   2)  ---------------------------------------


    POTLOK:  cpu time      2.2593: real time      2.2610
    SETDIJ:  cpu time      1.7539: real time      1.7550
    EDDIAG:  cpu time     43.1912: real time     43.2185
     EDDAV:  cpu time    204.3681: real time    204.4862
       DOS:  cpu time      0.0047: real time      0.0047
    CHARGE:  cpu time     24.9976: real time     25.0209
    MIXING:  cpu time      0.0444: real time      0.0444
    --------------------------------------------
      LOOP:  cpu time    276.6192: real time    276.7908

 eigenvalue-minimisations  :  2048
 total energy-change (2. order) : 0.7200444E+02  (-0.1085702E+01)
 number of electron     403.9999999 magnetization 
 augmentation part      -22.4499337 magnetization 

 Broyden mixing:
  rms(total) = 0.81973E+00    rms(broyden)= 0.81973E+00
  rms(prec ) = 0.82217E+00
  weight for this iteration     100.00

 eigenvalues of (default mixing * dielectric matrix)
  average eigenvalue GAMMA=   2.5110
  2.5110

 Free energy of the ion-electron system (eV)
  ---------------------------------------------------
  alpha Z        PSCENC =        56.11435480
  Ewald energy   TEWEN  =     65029.64746498
  -Hartree energ DENC   =    -74199.18278916
  -exchange      EXHF   =         0.00000000
  -V(xc)+E(xc)   XCENC  =      -460.34849515
  PAW double counting   =     43208.00744641   -42220.62734616
  entropy T*S    EENTRO =        -0.22926622
  eigenvalues    EBANDS =     -2658.81611528
  atomic energy  EATOM  =     10303.52363856
  Solvation  Ediel_sol  =         0.00000000
  ---------------------------------------------------
  free energy    TOTEN  =      -941.91110722 eV

  energy without entropy =     -941.68184100  energy(sigma->0) =     -941.79647411


--------------------------------------------------------------------------------------------------------




--------------------------------------- Iteration      1(   3)  ---------------------------------------


    POTLOK:  cpu time      2.2486: real time      2.2626
    SETDIJ:  cpu time      1.7565: real time      1.7577
    EDDIAG:  cpu time     43.2007: real time     43.2283
     EDDAV:  cpu time    205.7473: real time    205.8659
       DOS:  cpu time      0.0030: real time      0.0030
    CHARGE:  cpu time     24.9685: real time     24.9924
    MIXING:  cpu time      0.0438: real time      0.0438
    --------------------------------------------
      LOOP:  cpu time    277.9685: real time    278.1538

 eigenvalue-minimisations  :  2072
 total energy-change (2. order) :-0.3252186E+01  (-0.9176571E+00)
 number of electron     403.9999999 magnetization 
 augmentation part      -22.3486897 magnetization 

 Broyden mixing:
  rms(total) = 0.23992E+00    rms(broyden)= 0.23992E+00
  rms(prec ) = 0.28559E+00
  weight for this iteration     100.00

 eigenvalues of (default mixing * dielectric matrix)
  average eigenvalue GAMMA=   1.6915
  0.7097  2.6733

 Free energy of the ion-electron system (eV)
  ---------------------------------------------------
  alpha Z        PSCENC =        56.11435480
  Ewald energy   TEWEN  =     65029.64746498
  -Hartree energ DENC   =    -74192.99852219
  -exchange      EXHF   =         0.00000000
  -V(xc)+E(xc)   XCENC  =      -464.07903726
  PAW double counting   =     56008.07026777   -55020.98085477
  entropy T*S    EENTRO =        -0.23436277
  eigenvalues    EBANDS =     -2664.22624264
  atomic energy  EATOM  =     10303.52363856
  Solvation  Ediel_sol  =         0.00000000
  ---------------------------------------------------
  free energy    TOTEN  =      -945.16329352 eV

  energy without entropy =     -944.92893075  energy(sigma->0) =     -945.04611213


--------------------------------------------------------------------------------------------------------




--------------------------------------- Iteration      1(   4)  ---------------------------------------


    POTLOK:  cpu time      2.2344: real time      2.2582
    SETDIJ:  cpu time      1.7536: real time      1.7546
    EDDIAG:  cpu time     43.1820: real time     43.2096
     EDDAV:  cpu time    219.8503: real time    219.9794
       DOS:  cpu time      0.0079: real time      0.0084
    CHARGE:  cpu time     24.9733: real time     24.9983
    MIXING:  cpu time      0.0568: real time      0.0574
    --------------------------------------------
      LOOP:  cpu time    292.0583: real time    292.2660

 eigenvalue-minimisations  :  2328
 total energy-change (2. order) :-0.1778534E+00  (-0.1125978E+00)
 number of electron     403.9999999 magnetization 
 augmentation part      -22.3495179 magnetization 

 Broyden mixing:
  rms(total) = 0.14460E+00    rms(broyden)= 0.14460E+00
  rms(prec ) = 0.23006E+00
  weight for this iteration     100.00

 eigenvalues of (default mixing * dielectric matrix)
  average eigenvalue GAMMA=   1.3413
  2.6406  0.6916  0.6916

 Free energy of the ion-electron system (eV)
  ---------------------------------------------------
  alpha Z        PSCENC =        56.11435480
  Ewald energy   TEWEN  =     65029.64746498
  -Hartree energ DENC   =    -74195.88416894
  -exchange      EXHF   =         0.00000000
  -V(xc)+E(xc)   XCENC  =      -466.22566707
  PAW double counting   =     57640.99130485   -56653.87746269
  entropy T*S    EENTRO =        -0.20987892
  eigenvalues    EBANDS =     -2659.42073244
  atomic energy  EATOM  =     10303.52363856
  Solvation  Ediel_sol  =         0.00000000
  ---------------------------------------------------
  free energy    TOTEN  =      -945.34114688 eV

  energy without entropy =     -945.13126796  energy(sigma->0) =     -945.23620742


--------------------------------------------------------------------------------------------------------




--------------------------------------- Iteration      1(   5)  ---------------------------------------


    POTLOK:  cpu time      2.2402: real time      2.2578
    SETDIJ:  cpu time      1.7620: real time      1.7637
    EDDIAG:  cpu time     43.2124: real time     43.2430
     EDDAV:  cpu time    221.1311: real time    221.2520
       DOS:  cpu time      0.0080: real time      0.0080
    CHARGE:  cpu time     24.9603: real time     24.9832
    MIXING:  cpu time      0.0428: real time      0.0428
    --------------------------------------------
      LOOP:  cpu time    293.3571: real time    293.5507

 eigenvalue-minimisations  :  2344
 total energy-change (2. order) : 0.5162546E-02  (-0.4888228E-01)
 number of electron     403.9999999 magnetization 
 augmentation part      -22.3628656 magnetization 

 Broyden mixing:
  rms(total) = 0.10469E+00    rms(broyden)= 0.10469E+00
  rms(prec ) = 0.17172E+00
  weight for this iteration     100.00

 eigenvalues of (default mixing * dielectric matrix)
  average eigenvalue GAMMA=   1.2080
  2.5597  1.1632  0.8469  0.2623

 Free energy of the ion-electron system (eV)
  ---------------------------------------------------
  alpha Z        PSCENC =        56.11435480
  Ewald energy   TEWEN  =     65029.64746498
  -Hartree energ DENC   =    -74196.51546424
  -exchange      EXHF   =         0.00000000
  -V(xc)+E(xc)   XCENC  =      -467.33376122
  PAW double counting   =     57582.93392959   -56595.80193880
  entropy T*S    EENTRO =        -0.23908923
  eigenvalues    EBANDS =     -2657.66511876
  atomic energy  EATOM  =     10303.52363856
  Solvation  Ediel_sol  =         0.00000000
  ---------------------------------------------------
  free energy    TOTEN  =      -945.33598433 eV

  energy without entropy =     -945.09689510  energy(sigma->0) =     -945.21643972


--------------------------------------------------------------------------------------------------------




--------------------------------------- Iteration      1(   6)  ---------------------------------------


    POTLOK:  cpu time      2.2340: real time      2.2607
    SETDIJ:  cpu time      1.7575: real time      1.7585
    EDDIAG:  cpu time     43.1664: real time     43.1945
     EDDAV:  cpu time    217.0481: real time    217.1614
       DOS:  cpu time      0.0040: real time      0.0040
    CHARGE:  cpu time     24.9489: real time     24.9723
    MIXING:  cpu time      0.0432: real time      0.0432
    --------------------------------------------
      LOOP:  cpu time    289.2019: real time    289.3945

 eigenvalue-minimisations  :  2280
 total energy-change (2. order) : 0.3887834E-01  (-0.2618878E-01)
 number of electron     403.9999999 magnetization 
 augmentation part      -22.3741638 magnetization 

 Broyden mixing:
  rms(total) = 0.15159E+00    rms(broyden)= 0.15159E+00
  rms(prec ) = 0.17856E+00
  weight for this iteration     100.00

 eigenvalues of (default mixing * dielectric matrix)
  average eigenvalue GAMMA=   1.0021
  2.5431  1.2367  0.5475  0.4405  0.2426

 Free energy of the ion-electron system (eV)
  ---------------------------------------------------
  alpha Z        PSCENC =        56.11435480
  Ewald energy   TEWEN  =     65029.64746498
  -Hartree energ DENC   =    -74196.66555560
  -exchange      EXHF   =         0.00000000
  -V(xc)+E(xc)   XCENC  =      -467.40211221
  PAW double counting   =     57317.04744771   -56329.88484237
  entropy T*S    EENTRO =        -0.23368945
  eigenvalues    EBANDS =     -2657.44381240
  atomic energy  EATOM  =     10303.52363856
  Solvation  Ediel_sol  =         0.00000000
  ---------------------------------------------------
  free energy    TOTEN  =      -945.29710599 eV

  energy without entropy =     -945.06341654  energy(sigma->0) =     -945.18026126


--------------------------------------------------------------------------------------------------------




--------------------------------------- Iteration      1(   7)  ---------------------------------------


    POTLOK:  cpu time      2.2398: real time      2.2662
    SETDIJ:  cpu time      1.7515: real time      1.7531
    EDDIAG:  cpu time     43.1820: real time     43.2108
     EDDAV:  cpu time    209.0116: real time    209.1270
       DOS:  cpu time      0.0021: real time      0.0021
    CHARGE:  cpu time     24.9918: real time     25.0145
    MIXING:  cpu time      0.0441: real time      0.0441
    --------------------------------------------
      LOOP:  cpu time    281.2228: real time    281.4178

 eigenvalue-minimisations  :  2128
 total energy-change (2. order) :-0.1484049E-01  (-0.9030510E-02)
 number of electron     403.9999999 magnetization 
 augmentation part      -22.3634767 magnetization 

 Broyden mixing:
  rms(total) = 0.37628E-01    rms(broyden)= 0.37628E-01
  rms(prec ) = 0.40835E-01
  weight for this iteration     100.00

 eigenvalues of (default mixing * dielectric matrix)
  average eigenvalue GAMMA=   1.0802
  2.4578  1.9024  0.7371  0.6623  0.4794  0.2421

 Free energy of the ion-electron system (eV)
  ---------------------------------------------------
  alpha Z        PSCENC =        56.11435480
  Ewald energy   TEWEN  =     65029.64746498
  -Hartree energ DENC   =    -74197.29574934
  -exchange      EXHF   =         0.00000000
  -V(xc)+E(xc)   XCENC  =      -467.55602631
  PAW double counting   =     57246.29410733   -56259.12640891
  entropy T*S    EENTRO =        -0.23014504
  eigenvalues    EBANDS =     -2656.68318256
  atomic energy  EATOM  =     10303.52363856
  Solvation  Ediel_sol  =         0.00000000
  ---------------------------------------------------
  free energy    TOTEN  =      -945.31194648 eV

  energy without entropy =     -945.08180144  energy(sigma->0) =     -945.19687396


--------------------------------------------------------------------------------------------------------




--------------------------------------- Iteration      1(   8)  ---------------------------------------


    POTLOK:  cpu time      2.2632: real time      2.2656
    SETDIJ:  cpu time      1.7457: real time      1.7464
    EDDIAG:  cpu time     43.1912: real time     43.2204
     EDDAV:  cpu time    208.9948: real time    209.1123
       DOS:  cpu time      0.0042: real time      0.0042
    CHARGE:  cpu time     24.9946: real time     25.0173
    MIXING:  cpu time      0.0458: real time      0.0458
    --------------------------------------------
      LOOP:  cpu time    281.2395: real time    281.4121

 eigenvalue-minimisations  :  2128
 total energy-change (2. order) : 0.5689007E-02  (-0.2684459E-02)
 number of electron     403.9999999 magnetization 
 augmentation part      -22.3573955 magnetization 

 Broyden mixing:
  rms(total) = 0.24803E-01    rms(broyden)= 0.24803E-01
  rms(prec ) = 0.27363E-01
  weight for this iteration     100.00

 eigenvalues of (default mixing * dielectric matrix)
  average eigenvalue GAMMA=   1.1477
  2.5949  2.5949  0.9370  0.6174  0.5242  0.5242  0.2417

 Free energy of the ion-electron system (eV)
  ---------------------------------------------------
  alpha Z        PSCENC =        56.11435480
  Ewald energy   TEWEN  =     65029.64746498
  -Hartree energ DENC   =    -74195.85805224
  -exchange      EXHF   =         0.00000000
  -V(xc)+E(xc)   XCENC  =      -467.32336005
  PAW double counting   =     57224.36594812   -56237.18192391
  entropy T*S    EENTRO =        -0.22992101
  eigenvalues    EBANDS =     -2658.36440672
  atomic energy  EATOM  =     10303.52363856
  Solvation  Ediel_sol  =         0.00000000
  ---------------------------------------------------
  free energy    TOTEN  =      -945.30625747 eV

  energy without entropy =     -945.07633646  energy(sigma->0) =     -945.19129697


--------------------------------------------------------------------------------------------------------




--------------------------------------- Iteration      1(   9)  ---------------------------------------


    POTLOK:  cpu time      2.2357: real time      2.2600
    SETDIJ:  cpu time      1.7514: real time      1.7523
    EDDIAG:  cpu time     43.2150: real time     43.2404
     EDDAV:  cpu time    218.5795: real time    218.6971
       DOS:  cpu time      0.0027: real time      0.0027
    CHARGE:  cpu time     24.9522: real time     24.9997
    MIXING:  cpu time      0.0506: real time      0.0506
    --------------------------------------------
      LOOP:  cpu time    290.7872: real time    291.0029

 eigenvalue-minimisations  :  2304
 total energy-change (2. order) : 0.5466112E-03  (-0.1036973E-02)
 number of electron     403.9999999 magnetization 
 augmentation part      -22.3563232 magnetization 

 Broyden mixing:
  rms(total) = 0.82622E-02    rms(broyden)= 0.82622E-02
  rms(prec ) = 0.10418E-01
  weight for this iteration     100.00

 eigenvalues of (default mixing * dielectric matrix)
  average eigenvalue GAMMA=   1.1194
  2.6041  2.6041  0.9551  0.9551  0.5522  0.5522  0.4905  0.2419

 Free energy of the ion-electron system (eV)
  ---------------------------------------------------
  alpha Z        PSCENC =        56.11435480
  Ewald energy   TEWEN  =     65029.64746498
  -Hartree energ DENC   =    -74194.76539464
  -exchange      EXHF   =         0.00000000
  -V(xc)+E(xc)   XCENC  =      -467.04760965
  PAW double counting   =     57240.12839392   -56252.92538869
  entropy T*S    EENTRO =        -0.23066008
  eigenvalues    EBANDS =     -2659.75051006
  atomic energy  EATOM  =     10303.52363856
  Solvation  Ediel_sol  =         0.00000000
  ---------------------------------------------------
  free energy    TOTEN  =      -945.30571086 eV

  energy without entropy =     -945.07505078  energy(sigma->0) =     -945.19038082


--------------------------------------------------------------------------------------------------------




--------------------------------------- Iteration      1(  10)  ---------------------------------------


    POTLOK:  cpu time      2.2500: real time      2.2633
    SETDIJ:  cpu time      1.7504: real time      1.7515
    EDDIAG:  cpu time     43.2026: real time     43.2302
     EDDAV:  cpu time    220.4423: real time    220.5648
       DOS:  cpu time      0.0036: real time      0.0036
    CHARGE:  cpu time     24.9866: real time     25.0103
    MIXING:  cpu time      0.0498: real time      0.0498
    --------------------------------------------
      LOOP:  cpu time    292.6853: real time    292.8734

 eigenvalue-minimisations  :  2336
 total energy-change (2. order) : 0.5973200E-04  (-0.1271982E-03)
 number of electron     403.9999999 magnetization 
 augmentation part      -22.3566369 magnetization 

 Broyden mixing:
  rms(total) = 0.48870E-02    rms(broyden)= 0.48870E-02
  rms(prec ) = 0.57367E-02
  weight for this iteration     100.00

 eigenvalues of (default mixing * dielectric matrix)
  average eigenvalue GAMMA=   1.1095
  2.6319  2.6319  1.0701  1.0701  0.8002  0.2418  0.5369  0.5369  0.4660

 Free energy of the ion-electron system (eV)
  ---------------------------------------------------
  alpha Z        PSCENC =        56.11435480
  Ewald energy   TEWEN  =     65029.64746498
  -Hartree energ DENC   =    -74194.56251107
  -exchange      EXHF   =         0.00000000
  -V(xc)+E(xc)   XCENC  =      -467.05970616
  PAW double counting   =     57261.89294253   -56274.68552765
  entropy T*S    EENTRO =        -0.23064958
  eigenvalues    EBANDS =     -2659.94565754
  atomic energy  EATOM  =     10303.52363856
  Solvation  Ediel_sol  =         0.00000000
  ---------------------------------------------------
  free energy    TOTEN  =      -945.30565113 eV

  energy without entropy =     -945.07500155  energy(sigma->0) =     -945.19032634


--------------------------------------------------------------------------------------------------------




--------------------------------------- Iteration      1(  11)  ---------------------------------------


    POTLOK:  cpu time      2.2320: real time      2.2636
    SETDIJ:  cpu time      1.7558: real time      1.7568
    EDDIAG:  cpu time     43.1799: real time     43.2053
     EDDAV:  cpu time    212.1456: real time    212.2664
       DOS:  cpu time      0.0025: real time      0.0025
    CHARGE:  cpu time     24.9935: real time     25.0171
    MIXING:  cpu time      0.0490: real time      0.0490
    --------------------------------------------
      LOOP:  cpu time    284.3584: real time    284.5607

 eigenvalue-minimisations  :  2184
 total energy-change (2. order) : 0.8397974E-04  (-0.6002893E-04)
 number of electron     403.9999999 magnetization 
 augmentation part      -22.3572111 magnetization 

 Broyden mixing:
  rms(total) = 0.25858E-02    rms(broyden)= 0.25858E-02
  rms(prec ) = 0.29364E-02
  weight for this iteration     100.00

 eigenvalues of (default mixing * dielectric matrix)
  average eigenvalue GAMMA=   1.1283
  2.6634  2.6634  1.6857  1.0196  0.7349  0.7349  0.2418  0.5344  0.5344  0.4700

 Free energy of the ion-electron system (eV)
  ---------------------------------------------------
  alpha Z        PSCENC =        56.11435480
  Ewald energy   TEWEN  =     65029.64746498
  -Hartree energ DENC   =    -74194.32476560
  -exchange      EXHF   =         0.00000000
  -V(xc)+E(xc)   XCENC  =      -467.07222613
  PAW double counting   =     57258.99590138   -56271.78595827
  entropy T*S    EENTRO =        -0.23092971
  eigenvalues    EBANDS =     -2660.17304717
  atomic energy  EATOM  =     10303.52363856
  Solvation  Ediel_sol  =         0.00000000
  ---------------------------------------------------
  free energy    TOTEN  =      -945.30556715 eV

  energy without entropy =     -945.07463744  energy(sigma->0) =     -945.19010229


--------------------------------------------------------------------------------------------------------




--------------------------------------- Iteration      1(  12)  ---------------------------------------


    POTLOK:  cpu time      2.2607: real time      2.2623
    SETDIJ:  cpu time      1.7528: real time      1.7540
    EDDIAG:  cpu time     43.1756: real time     43.2023
     EDDAV:  cpu time    212.0075: real time    212.1212
       DOS:  cpu time      0.0022: real time      0.0022
    CHARGE:  cpu time     24.9856: real time     25.0081
    MIXING:  cpu time      0.0477: real time      0.0477
    --------------------------------------------
      LOOP:  cpu time    284.2321: real time    284.3977

 eigenvalue-minimisations  :  2184
 total energy-change (2. order) :-0.1048399E-03  (-0.3193808E-04)
 number of electron     403.9999999 magnetization 
 augmentation part      -22.3574564 magnetization 

 Broyden mixing:
  rms(total) = 0.19845E-02    rms(broyden)= 0.19845E-02
  rms(prec ) = 0.23020E-02
  weight for this iteration     100.00

 eigenvalues of (default mixing * dielectric matrix)
  average eigenvalue GAMMA=   1.1624
  2.7790  2.7790  2.1284  1.0322  0.8624  0.8624  0.2418  0.5350  0.5350  0.4652
  0.5660

 Free energy of the ion-electron system (eV)
  ---------------------------------------------------
  alpha Z        PSCENC =        56.11435480
  Ewald energy   TEWEN  =     65029.64746498
  -Hartree energ DENC   =    -74193.93982427
  -exchange      EXHF   =         0.00000000
  -V(xc)+E(xc)   XCENC  =      -467.08817409
  PAW double counting   =     57254.70166771   -56267.49012152
  entropy T*S    EENTRO =        -0.23111349
  eigenvalues    EBANDS =     -2660.54356467
  atomic energy  EATOM  =     10303.52363856
  Solvation  Ediel_sol  =         0.00000000
  ---------------------------------------------------
  free energy    TOTEN  =      -945.30567199 eV

  energy without entropy =     -945.07455850  energy(sigma->0) =     -945.19011524


--------------------------------------------------------------------------------------------------------




--------------------------------------- Iteration      1(  13)  ---------------------------------------


    POTLOK:  cpu time      2.2309: real time      2.2591
    SETDIJ:  cpu time      1.7502: real time      1.7512
    EDDIAG:  cpu time     43.1951: real time     43.2204
     EDDAV:  cpu time    208.4730: real time    208.5912
       DOS:  cpu time      0.0026: real time      0.0026
    CHARGE:  cpu time     24.9880: real time     25.0115
    MIXING:  cpu time      0.0497: real time      0.0497
    --------------------------------------------
      LOOP:  cpu time    280.6895: real time    280.8858

 eigenvalue-minimisations  :  2120
 total energy-change (2. order) :-0.1289487E-03  (-0.2398119E-04)
 number of electron     403.9999999 magnetization 
 augmentation part      -22.3574881 magnetization 

 Broyden mixing:
  rms(total) = 0.78797E-03    rms(broyden)= 0.78797E-03
  rms(prec ) = 0.10468E-02
  weight for this iteration     100.00

 eigenvalues of (default mixing * dielectric matrix)
  average eigenvalue GAMMA=   1.1589
  2.8742  2.8742  2.1542  1.1398  0.8589  0.8589  0.8402  0.2418  0.5349  0.5349
  0.4682  0.5262

 Free energy of the ion-electron system (eV)
  ---------------------------------------------------
  alpha Z        PSCENC =        56.11435480
  Ewald energy   TEWEN  =     65029.64746498
  -Hartree energ DENC   =    -74193.49697514
  -exchange      EXHF   =         0.00000000
  -V(xc)+E(xc)   XCENC  =      -467.09836094
  PAW double counting   =     57252.10023646   -56264.88789465
  entropy T*S    EENTRO =        -0.23094963
  eigenvalues    EBANDS =     -2660.97731537
  atomic energy  EATOM  =     10303.52363856
  Solvation  Ediel_sol  =         0.00000000
  ---------------------------------------------------
  free energy    TOTEN  =      -945.30580094 eV

  energy without entropy =     -945.07485130  energy(sigma->0) =     -945.19032612


--------------------------------------------------------------------------------------------------------




--------------------------------------- Iteration      1(  14)  ---------------------------------------


    POTLOK:  cpu time      2.2347: real time      2.2581
    SETDIJ:  cpu time      1.7443: real time      1.7452
    EDDIAG:  cpu time     43.2151: real time     43.2433
     EDDAV:  cpu time    207.8874: real time    208.0056
       DOS:  cpu time      0.0137: real time      0.0141
    CHARGE:  cpu time     25.0269: real time     25.0495
    MIXING:  cpu time      0.0667: real time      0.0674
    --------------------------------------------
      LOOP:  cpu time    280.1889: real time    280.3831

 eigenvalue-minimisations  :  2112
 total energy-change (2. order) :-0.1484364E-03  (-0.1723195E-04)
 number of electron     403.9999999 magnetization 
 augmentation part      -22.3575186 magnetization 

 Broyden mixing:
  rms(total) = 0.42001E-03    rms(broyden)= 0.42001E-03
  rms(prec ) = 0.62213E-03
  weight for this iteration     100.00

 eigenvalues of (default mixing * dielectric matrix)
  average eigenvalue GAMMA=   1.1781
  2.9349  2.9349  2.1397  1.5735  0.9303  0.9303  0.9059  0.2418  0.5334  0.5334
  0.6712  0.4718  0.5142

 Free energy of the ion-electron system (eV)
  ---------------------------------------------------
  alpha Z        PSCENC =        56.11435480
  Ewald energy   TEWEN  =     65029.64746498
  -Hartree energ DENC   =    -74193.17979579
  -exchange      EXHF   =         0.00000000
  -V(xc)+E(xc)   XCENC  =      -467.10229356
  PAW double counting   =     57251.24751757   -56264.03507364
  entropy T*S    EENTRO =        -0.23094872
  eigenvalues    EBANDS =     -2661.29081358
  atomic energy  EATOM  =     10303.52363856
  Solvation  Ediel_sol  =         0.00000000
  ---------------------------------------------------
  free energy    TOTEN  =      -945.30594937 eV

  energy without entropy =     -945.07500065  energy(sigma->0) =     -945.19047501


--------------------------------------------------------------------------------------------------------




--------------------------------------- Iteration      1(  15)  ---------------------------------------


    POTLOK:  cpu time      2.2433: real time      2.2674
    SETDIJ:  cpu time      1.7643: real time      1.7657
[...]
   0.125E+02 0.904E+01 -.109E+03   -.135E+02 -.901E+01 0.108E+03   0.967E+00 0.833E+00 0.262E+00   0.291E-04 0.487E-05 -.274E-04
   -.124E+02 -.246E+02 -.381E+03   0.129E+02 0.255E+02 0.384E+03   -.667E+00 -.841E+00 -.246E+01   -.124E-05 0.872E-05 -.324E-04
   -.850E+01 -.247E+02 -.835E+02   0.884E+01 0.237E+02 0.824E+02   -.142E+01 0.191E+01 0.180E+01   -.509E-04 -.430E-04 0.514E-04
   -.861E-01 -.202E+02 -.360E+03   0.272E+01 0.188E+02 0.357E+03   -.286E+01 0.868E+00 0.253E+01   0.194E-04 0.423E-04 0.298E-04
   0.879E+01 -.102E+02 0.234E+03   -.915E+01 0.103E+02 -.234E+03   0.458E+00 -.695E+00 0.741E+00   -.225E-03 -.112E-03 0.612E-04
   0.157E+02 -.259E+01 -.313E+03   -.166E+02 0.410E+01 0.313E+03   -.262E+00 -.699E+00 0.450E+00   0.850E-05 -.470E-05 -.179E-04
   -.201E+02 -.157E+02 -.995E+02   0.186E+02 0.156E+02 0.101E+03   0.156E+01 0.376E+00 -.160E+01   -.245E-04 0.129E-04 -.782E-04
   -.210E+02 0.699E+01 0.314E+03   0.194E+02 -.539E+01 -.312E+03   0.198E+01 -.280E+01 -.166E+01   -.918E-04 -.382E-04 -.166E-04
   0.552E+00 0.284E+02 0.760E+02   -.145E+01 -.271E+02 -.771E+02   -.515E-02 -.117E+01 0.134E+01   0.558E-04 -.311E-05 -.119E-03
   0.136E+02 0.178E+02 -.149E+03   -.140E+02 -.167E+02 0.151E+03   0.770E+00 -.164E+01 -.490E+00   0.293E-04 -.737E-05 -.219E-04
   -.102E+02 0.238E+02 0.208E+03   0.850E+01 -.224E+02 -.209E+03   0.167E+01 -.126E+01 0.219E+01   0.100E-03 -.116E-04 -.690E-04
   0.165E+02 0.388E+01 0.132E+03   -.153E+02 -.414E+01 -.134E+03   -.136E+01 0.469E+00 0.142E+01   -.900E-04 -.582E-04 -.244E-04
   -.166E+02 0.666E+01 0.212E+03   0.156E+02 -.658E+01 -.211E+03   0.165E+01 -.459E+00 -.242E+01   0.646E-04 -.114E-03 0.270E-04
   -.101E+02 0.302E+01 0.209E+03   0.101E+02 -.272E+01 -.208E+03   -.145E+00 -.121E+01 -.779E+00   0.738E-04 -.434E-06 -.378E-04
   -.229E+02 -.208E+02 -.127E+03   0.211E+02 0.197E+02 0.126E+03   0.228E+01 0.106E+01 -.180E+00   0.236E-04 -.339E-04 -.552E-04
   0.648E+01 -.309E+01 -.136E+03   -.742E+01 0.110E+01 0.136E+03   0.274E+00 0.285E+01 -.577E-01   -.150E-04 0.427E-04 -.402E-04
   0.126E+01 -.631E+01 -.131E+03   0.226E+00 0.654E+01 0.131E+03   -.204E+01 -.386E+00 0.136E+01   -.131E-04 -.219E-04 -.794E-04
   0.308E+02 0.172E+02 -.334E+03   -.280E+02 -.154E+02 0.332E+03   -.209E+01 -.178E+01 0.239E+01   -.432E-04 -.752E-05 0.264E-04
   0.114E+02 0.247E+02 -.896E+02   -.973E+01 -.244E+02 0.905E+02   -.165E+01 -.305E+00 -.102E+01   -.920E-05 -.403E-05 -.790E-04
   -.172E+01 0.238E+02 -.277E+03   0.165E+01 -.237E+02 0.278E+03   0.184E+00 0.840E+00 -.833E+00   -.593E-05 0.128E-04 -.263E-04
   -.602E+01 0.479E+00 0.359E+03   0.802E+01 0.161E+01 -.358E+03   -.342E+01 -.184E+01 -.449E+00   -.272E-03 -.113E-03 -.389E-04
   -.136E+02 0.555E+01 0.169E+03   0.112E+02 -.395E+01 -.167E+03   0.314E+01 -.560E+00 -.187E+01   0.574E-04 -.888E-05 -.862E-04
   0.399E+01 -.140E+02 0.327E+03   -.629E+01 0.163E+02 -.325E+03   0.291E+01 -.347E+01 -.249E+01   0.211E-03 -.125E-03 0.176E-05
   -.185E+02 -.707E+01 -.266E+03   0.172E+02 0.687E+01 0.268E+03   0.224E+01 -.168E+00 -.126E+01   0.507E-04 -.458E-04 -.173E-05
   -.202E+02 -.128E+02 -.350E+03   0.202E+02 0.107E+02 0.347E+03   -.126E+01 0.264E+01 0.274E+01   0.180E-04 -.197E-04 0.360E-04
   0.239E+02 0.122E+02 0.182E+03   -.219E+02 -.124E+02 -.184E+03   -.315E+01 0.992E+00 0.193E+01   -.408E-04 -.652E-04 0.124E-04
   -.422E+01 0.803E+01 0.220E+03   0.382E+01 -.728E+01 -.222E+03   0.364E+00 -.788E+00 0.186E+01   -.245E-04 -.386E-06 -.740E-04
   -.145E+02 0.111E+02 -.360E+03   0.146E+02 -.977E+01 0.358E+03   -.101E+01 -.976E+00 0.197E+01   0.901E-05 0.746E-06 0.342E-04
 -----------------------------------------------------------------------------------------------
   -.460E+01 0.123E+02 0.190E+02   0.941E-13 0.101E-12 0.398E-12   0.460E+01 -.123E+02 -.190E+02   -.354E-04 -.440E-03 -.160E-02


 POSITION                                       TOTAL-FORCE (eV/Angst)
 -----------------------------------------------------------------------------------
      5.03068      7.65535     13.51090        -0.676371      0.070969      0.362080
      9.40989      0.15855     11.15942         1.227333      1.065614     -0.321934
     11.92450     13.39420     11.10471        -0.414170      0.662590      0.136528
      7.42973      3.71492     16.28613        -0.760860     -0.459261      1.491128
     11.03290      0.63453     10.42102         0.135225      0.565813      0.116207
      2.89262      4.01758     13.12845         0.542173     -0.131394     -0.015740
     11.73110      0.32125     12.33489         0.210012      0.318892      0.687486
      4.39734      7.73658     13.94627         0.670479     -0.076444     -0.417948
     13.39720     14.22650     15.31321        -0.526547      0.310168      0.447325
     10.50240      9.12093     15.04151        -0.036580      0.181400      0.555791
      5.63054      2.21098     13.65301        -0.772676      2.276866     -1.406471
     14.27250      3.76123     11.16257        -0.768452      0.235511     -0.129256
      4.80496      4.65978     10.76319        -0.529855      0.642654      0.087718
      3.49319      2.84444     10.30240        -0.458650      0.225337     -0.369541
      8.55799      2.75477     18.51908        -1.827715     -0.700965     -0.122717
      3.42024      6.65941     11.14018         1.302004     -0.192586      0.023694
      3.86367      2.03986     16.72265         0.665124     -1.017982      0.561053
      6.64359      5.54090     11.99975         0.245704      0.174445     -0.814129
      1.94338      1.27261     13.37875         0.406229     -0.320939      0.004607
     10.63920      4.20875     11.95294        -0.290342     -0.927364      0.482829
      2.67029      4.35690     19.06469         0.486117      0.179566     -0.163665
      4.42233      4.12648     17.42636        -0.348813      0.488770      0.813504
     13.53720      4.57695     14.53987        -0.222562      0.313665     -0.522855
      0.50835     12.70080     10.79174        -1.004533     -1.440709     -0.043691
      7.67319      7.50532     17.34636         0.268334     -0.538978     -0.703202
      8.25510     14.30590     11.94653        -0.045151     -1.108269      0.884450
      5.04853     11.28070     17.94654         0.678097     -1.717639     -0.724454
      6.10440      4.52009     14.09993         0.295350     -0.083138     -1.017221
      5.83412      1.27544     15.56721        -0.744565     -1.286436      2.076015
      8.10167      4.27137     15.16419         0.734886      0.387613     -0.930467
      5.40386      7.58138     16.74300        -0.098499      0.478906     -0.196321
     12.65250      1.06723     13.31108         0.130438     -0.953490      0.053283
      1.45423      8.79613     13.46816        -0.359747     -0.351134      0.591033
      0.68661     11.10100     16.18812         0.210304      0.202111      1.190206
      8.31062      4.15999     11.09132         0.493154     -0.745195      0.677438
      7.21055      2.34268     10.11131        -0.330302      0.447174      0.131189
      9.07720      9.31725     16.94919        -0.736874      0.300152     -0.845583
      3.10591      0.55387     10.11576        -0.753841      0.916875     -0.589089
      6.67391     12.57670     14.99294         0.441142     -1.498783     -0.316130
      6.31394      3.61616     18.70781         1.364679     -0.681569      0.142402
      8.15409      0.88398     15.90149         0.318325      0.741414      0.251030
      9.24753      7.59586     13.94219         0.289446     -0.909694     -0.414839
      1.43549     12.92180     17.60054        -0.637552     -0.555050     -0.291354
      3.58831      2.73902     12.62866        -0.796396      0.707870      0.761163
      4.65195     14.17230     11.48864        -0.302613     -0.879233     -0.082804
     12.03540      3.87578     10.15446         0.739017     -0.389971     -0.352829
      6.35830      1.02565     11.90337         1.193649      1.074105     -0.912487
     12.76320     11.05110     13.12047         0.336471      0.488472     -0.359837
      8.20543     11.56490     16.69516        -0.130446     -0.094779     -0.146218
     10.50740      3.32064     17.38399         0.654937      1.420506      1.236215
      0.65715      4.26247     17.83274         0.129031     -0.890594      1.408318
     11.74050     13.14960     16.81390         0.800456      0.487175      0.133646
      0.95611      3.93831     15.65364         0.832857     -0.085659     -0.926391
     13.56990      8.93952     13.61965         1.559336      1.032664     -0.926530
     10.49640      7.11016     10.00000        -0.501399     -0.433731      0.506877
      5.37361     12.21210     10.64694         1.798967     -0.607671      0.088012
      0.76648      0.31398     10.28670         0.947583      0.256065     -0.865644
      8.52293     12.04000     18.96684        -0.454573      1.070678     -0.633336
      2.41270      5.87899     15.14977         0.071158     -1.216550     -0.334218
     13.87790      8.30735     19.02966         0.197435     -0.507287      0.179736
      2.00237      7.38125     16.87291         0.493153      0.403447      0.162321
      1.52478     12.40350     12.92856         0.275630     -0.236095      0.248554
      0.02678      1.59597     12.00438         0.075833      0.384125      0.905534
      0.45065      0.41725     17.00250        -0.584112      0.364307     -0.131843
      5.02066      8.46627     10.61675        -1.488981     -0.680924      0.543738
     12.63180      8.45631     15.56151        -0.585102      0.220521      0.583677
      8.51854     13.84870     14.30460        -0.098957     -0.463910     -0.750771
     14.21980     12.25510     14.46559         0.687875      0.091447     -0.502853
     10.86500      5.72907     17.13489        -0.047662     -0.666044      0.172858
      1.56054     10.69840     10.05313        -0.407641      0.323343     -1.208822
     14.31730      2.15425     18.70267         0.435453      0.154561     -0.697999
      3.89032      0.52692     18.59917         0.248283      0.575545     -0.013838
     10.01510     10.20040     18.82301         1.112575      1.202469      0.599643
     12.28460      8.61083     10.26042        -0.013389     -0.297433     -0.190593
     10.75740     10.34830     10.26756         1.027000      0.903860      0.083778
     11.78950      3.13473     13.84091        -1.433780     -0.091049      0.053692
      9.78584      2.70278     15.28937         0.164653     -0.609684     -0.467525
      6.10762     10.45870     13.95477        -0.174883      0.309329     -0.481224
     10.62730     11.09690     13.82931        -0.297194     -0.852431     -0.445386
      1.80479      1.70512     15.65311         0.023545      0.950875     -0.434296
      3.77756      7.82012     18.43987        -0.195389     -0.029168     -0.307999
     10.05920     12.46700     15.44148        -1.183566      0.959432      0.731835
     12.07630      2.14446     18.71862        -0.379119     -0.524018     -0.800856
      9.18588     10.84700     11.96413         0.148407     -0.695550      0.427845
      0.04009      6.46019     17.69800        -1.166930      0.755706      0.031862
      4.69312      5.57745     15.67381         0.203355      0.306762     -0.401113
      7.07486      7.81168     11.19424         0.278848     -1.345921      0.056954
      3.34248     13.86390     13.36151        -0.913193      0.063857      0.251181
     12.83010      6.26449     16.04938         0.407203     -0.600175      0.654233
      2.40445     10.38170     12.11475        -0.008608      0.215391      1.133266
      7.84754      9.14690     12.91703        -0.269068      0.208384     -0.044857
     12.63880      7.38020     12.30621         0.737253     -0.421948     -0.881517
     14.24140      5.69989     12.49591        -0.182008     -0.992398      0.053067
      2.25224      9.42233     15.71289         0.567311     -0.092842     -0.810992
      9.01883      6.20688     15.82306        -0.655771      1.010780      0.385667
      4.77831      9.78510     15.78291        -0.674282     -0.214514      1.568409
      8.75923      0.33439     18.12082         0.707052      0.019335      0.871432
      4.68706     13.72110     15.33342        -0.026272      0.032763     -0.172858
      3.69356     13.02620     17.38453         0.144868      0.991856     -0.501273
      8.01367     12.34850     10.66353        -1.642748      0.133288      0.087836
      1.80316      6.49931     12.94799         0.912221      1.061209     -0.112018
     12.53960     12.07590     11.00871         0.747530     -1.213249     -0.177734
     13.52410      9.77961     17.23815         0.953115     -0.370806      0.066588
     12.06380     11.19220     18.14873        -1.385899      0.619759     -0.313247
     10.63420      6.42617     12.31017        -1.270654      0.868606      0.267497
      4.72472     10.40200     11.88554        -0.043830     -0.084938      0.376486
     11.12280      0.03879     18.54969        -1.067490      0.430589     -0.652405
 -----------------------------------------------------------------------------------
    total drift:                                0.000191     -0.016966     -0.002821


--------------------------------------------------------------------------------------------------------



  FREE ENERGIE OF THE ION-ELECTRON SYSTEM (eV)
  ---------------------------------------------------
  free  energy   TOTEN  =      -945.30653239 eV

  energy  without entropy=     -945.07557278  energy(sigma->0) =     -945.19105258



--------------------------------------------------------------------------------------------------------


    POTLOK:  cpu time      3.9594: real time      3.9707


--------------------------------------------------------------------------------------------------------


     LOOP+:  cpu time   6653.7435: real time   6658.3917
    4ORBIT:  cpu time      0.0000: real time      0.0000



 total charge

# of ion       s       p       d       tot
------------------------------------------
    1        0.589   0.031   0.000   0.620
    2        0.562   0.021   0.000   0.583
    3        0.571   0.019   0.000   0.590
    4        0.597   0.023   0.000   0.620
    5        0.392   0.001   0.000   0.393
    6        0.551   0.015   0.000   0.566
    7        0.530   0.016   0.000   0.547
    8        0.596   0.030   0.000   0.627
    9        0.754   0.882   0.000   1.636
   10        0.766   0.975   0.000   1.741
   11        0.760   1.014   0.000   1.774
   12        0.791   0.837   0.000   1.628
   13        0.785   0.818   0.000   1.603
   14        0.806   0.852   0.000   1.658
   15        0.797   0.810   0.000   1.607
   16        0.794   0.785   0.000   1.579
   17        0.764   0.929   0.000   1.693
   18        0.767   0.877   0.000   1.644
   19        0.764   0.935   0.000   1.699
   20        0.763   0.909   0.000   1.672
   21        0.878   0.707   0.000   1.585
   22        0.762   0.948   0.000   1.710
   23        0.758   0.911   0.000   1.669
   24        0.760   0.922   0.000   1.683
   25        0.789   0.857   0.000   1.646
   26        0.756   0.973   0.000   1.729
   27        0.869   0.689   0.000   1.558
   28        0.762   0.922   0.000   1.685
   29        0.764   0.968   0.000   1.732
   30        0.761   1.051   0.000   1.812
   31        0.755   0.906   0.000   1.661
   32        0.747   0.927   0.000   1.674
   33        0.760   0.913   0.000   1.672
   34        0.756   0.919   0.000   1.674
   35        0.798   0.822   0.000   1.620
   36        0.858   0.732   0.000   1.590
   37        0.764   0.910   0.000   1.675
   38        0.799   0.862   0.000   1.661
   39        0.766   0.896   0.000   1.663
   40        0.838   0.736   0.000   1.573
   41        0.762   0.895   0.000   1.657
   42        0.761   0.944   0.000   1.705
   43        0.783   0.876   0.000   1.659
   44        0.752   0.950   0.000   1.702
   45        0.760   1.004   0.000   1.764
   46        0.861   0.718   0.000   1.579
   47        0.761   0.990   0.000   1.751
   48        0.755   0.987   0.000   1.742
   49        0.771   0.868   0.000   1.639
   50        0.762   0.899   0.000   1.661
   51        0.755   0.971   0.000   1.726
   52        0.755   0.916   0.000   1.671
   53        0.761   0.943   0.000   1.704
   54        0.763   0.990   0.000   1.753
   55        0.865   0.705   0.000   1.570
   56        0.798   0.848   0.000   1.646
   57        0.788   0.903   0.000   1.691
   58        0.845   0.731   0.000   1.576
   59        0.763   0.908   0.000   1.671
   60        0.883   0.710   0.000   1.592
   61        0.757   0.943   0.000   1.699
   62        0.768   0.906   0.000   1.673
   63        0.752   0.931   0.000   1.683
   64        0.752   0.893   0.000   1.645
   65        0.785   0.870   0.000   1.655
   66        0.762   1.014   0.000   1.776
   67        0.762   0.945   0.000   1.707
   68        0.759   0.953   0.000   1.713
   69        0.794   0.863   0.000   1.657
   70        0.871   0.741   0.000   1.612
   71        0.793   0.833   0.000   1.626
   72        0.872   0.710   0.000   1.582
   73        0.807   0.848   0.000   1.655
   74        0.823   0.821   0.000   1.644
   75        0.806   0.804   0.000   1.610
   76        0.758   0.891   0.000   1.649
   77        0.772   0.887   0.000   1.659
   78        0.767   0.869   0.000   1.636
   79        0.759   1.015   0.000   1.773
   80        0.757   0.947   0.000   1.703
   81        0.867   0.715   0.000   1.581
   82        0.763   0.976   0.000   1.738
   83        0.775   0.884   0.000   1.659
   84        0.760   0.925   0.000   1.686
   85        0.760   0.942   0.000   1.702
   86        0.760   0.929   0.000   1.689
   87        0.794   0.865   0.000   1.659
   88        0.757   0.927   0.000   1.685
   89        0.759   0.951   0.000   1.710
   90        0.759   0.991   0.000   1.749
   91        0.758   0.923   0.000   1.681
   92        0.773   0.961   0.000   1.733
   93        0.760   0.931   0.000   1.691
   94        0.760   0.878   0.000   1.637
   95        0.756   0.961   0.000   1.716
   96        0.772   0.823   0.000   1.595
   97        0.783   0.806   0.000   1.589
   98        0.764   0.909   0.000   1.672
   99        0.757   0.967   0.000   1.724
  100        0.809   0.811   0.000   1.621
  101        0.752   0.931   0.000   1.683
  102        0.763   0.887   0.000   1.650
  103        0.760   0.983   0.000   1.743
  104        0.791   0.863   0.000   1.654
  105        0.765   0.960   0.000   1.725
  106        0.764   0.913   0.000   1.677
  107        0.785   0.863   0.000   1.649
--------------------------------------------------
tot         81.602  88.264   0.000 169.866


 total amount of memory used by VASP MPI-rank0   387448. kBytes
=======================================================================

   base                                    :      30000. kBytes
   nonl-proj                               :      80615. kBytes
   fftplans                                :     114278. kBytes
   grid                                    :      88184. kBytes
   one-center                              :         21. kBytes
   wavefun                                 :      74350. kBytes

  
  
 General timing and accounting informations for this job:
 ========================================================
  
                  Total CPU time used (sec):     6811.890
                            User time (sec):     6076.088
                          System time (sec):      735.802
                         Elapsed time (sec):     6816.622
  
                   Maximum memory used (kb):      651056.
                   Average memory used (kb):          N/A
  
                          Minor page faults:      7416410
                          Major page faults:         1198
                 Voluntary context switches:         2938
