LAMMPS data file via write_data, version 2 Apr 2025, timestep = 1000822, units = metal

1000 atoms
2 atom types

0 25.81560722471288 xlo xhi
0 25.81560722471288 ylo yhi
0 25.81560722471288 zlo zhi

Atom Type Labels

1 H
2 Si

Masses

1 1.00784
2 28.0855

Atoms # atomic

879 2 1.2317215987507693 1.2145904738718187 2.2036225253420434 0 1 1
794 2 3.7417244878076006 2.763434914252668 2.6451961824038372 -1 0 0
998 2 2.936199125546289 0.9245055059029155 3.999564100181532 -1 1 -1
354 2 1.1018335767139646 3.69844216190506 0.6119628927997761 1 1 1
695 2 11.879810639607012 11.662010051662572 11.829107492070172 0 2 -1
911 2 3.4111613701707086 10.452039887283247 0.17651420187977881 0 0 1
412 2 5.271843593687181 1.4097296586385808 0.6991154580519708 0 0 1
522 2 7.652378874900666 2.217106739929885 1.4264544059011932 1 0 0
80 2 6.85193171491525 4.178228619639066 2.90525455972893 1 1 1
268 2 0.37102132765371515 3.848903093048254 2.626733115593105 0 1 0
721 2 6.240619036757801 1.7599866180207215 3.5104666339494126 0 -1 0
207 2 11.176305448973336 4.413171399109866 1.191006172029279 1 1 1
744 2 9.315130446139507 2.1216590087923772 3.828416604153231 0 1 1
932 2 10.55699628870915 0.9853157988137831 2.0896015294376067 1 0 1
828 2 12.80815891471159 4.6482429525589115 2.95533017770214 0 0 0
649 2 0.19077440281129598 0.14254809046695405 4.018423077155714 0 0 0
811 2 12.613409221340524 0.9926085317517606 2.105784716359 -1 3 1
836 2 4.148663980402833 5.224554066057192 2.3936408529796167 1 1 0
173 2 1.925172401764259 5.835776878940799 3.1795297288697344 2 0 1
825 2 10.28113825814199 9.621033652441305 11.156130465564688 0 2 0
28 1 3.245935339717142 7.484910902846161 1.278090472229593 0 -2 1
134 2 1.6965030433027308 6.973281823268094 0.4781528958055301 0 0 0
958 2 4.29963650607004 7.308301669511931 3.430157473974683 1 0 1
84 2 6.832292510835297 6.698932443104303 2.210540336508548 0 0 0
350 2 12.827514439934252 7.76295508159495 4.158097027318984 0 0 0
218 2 6.416072353341819 5.298887885416727 0.3796547810242258 2 0 1
339 2 4.561458928234998 8.364708259758686 1.4981702320605368 2 0 2
472 2 8.779645727760553 4.708227779023595 1.4873938085558878 -2 0 1
384 2 11.819880754004268 6.710064856854643 1.5139095576547925 0 2 -2
147 2 9.676134194593125 6.864183101697338 2.755472398486468 1 0 1
8 1 8.395670798201337 8.08737930455238 1.0241032809763237 -1 2 -2
640 2 0.6606613490032885 9.531063081934002 2.921696518298828 2 1 0
306 2 2.213641001165048 11.404236634299354 2.1870281213575877 1 0 0
81 2 6.219710630655448 7.9577453238544225 0.12054008660319519 1 1 0
214 2 8.634341873871918 9.327057219496577 1.7326776615960542 1 -1 -1
227 2 5.033945742662965 9.728129862777722 3.5342385256040743 0 0 0
624 2 7.2116784951905695 8.583304549983575 3.5178365503600526 0 0 0
957 2 4.975261471945446 11.743201959005274 2.28501918503725 0 -1 -2
614 2 7.796885600631023 11.34737893134132 2.540735835644177 1 1 0
574 2 0.016336449886033222 7.470149684747003 2.6337323364067777 0 1 1
705 2 10.385091610866132 10.76409292204876 3.0743770897068328 0 0 0
895 2 12.576991542297945 10.177817307456545 1.726161107231209 -2 1 -1
965 2 9.437141378253788 8.927903589961318 4.2481186947992144 1 0 0
170 2 0.5977843928181246 3.4032824066735574 6.617486147042345 2 0 -1
285 2 3.786946367156987 2.30009955578844 7.9213188917864485 1 -2 0
123 2 2.477201605791662 2.828718241174216 4.773235327991064 0 3 1
887 2 6.758175372881982 8.769415631512148 12.703927778535387 1 1 -2
992 2 4.68270977871186 2.574851216088095 5.193077492086351 -2 -2 -1
651 2 8.074471651244686 3.7773690601684007 4.64058772601333 2 1 3
293 2 6.617981814769028 3.7202542166753942 6.792380577752391 0 0 0
313 2 8.204354614152935 0.8228680257048712 7.104796861160771 1 0 2
402 2 8.703895526549479 3.7496339629826223 9.339803961815699 0 1 1
27 1 1.6043001157923453 9.210911122735384 11.952799875906337 2 -1 4
496 2 10.544602062380061 2.990811050550118 5.297467839258618 1 0 1
483 2 9.860397246730768 2.668528534343733 7.497111173954635 1 0 0
129 2 12.268990993112697 8.687873852561616 9.506004378081437 2 1 1
583 2 11.120653619444306 0.761637172211108 7.444843154595036 -2 2 2
184 2 12.509500860126746 1.8191174242939114 5.991821292311918 0 -1 1
563 2 3.0058174147372103 9.072160958180362 4.767419361920954 1 -1 1
476 2 4.487200536915059 6.284294288790301 6.0301238122327385 0 3 1
525 2 2.6185727732394137 7.1234207599803385 8.108517805953445 0 1 0
202 2 4.24923908991662 8.50797567848256 6.8988166639650945 1 0 1
581 2 1.9311908319126234 6.773153628847712 5.51414122208297 2 0 0
839 2 1.4988469062632654 4.650676091984207 8.199909642746041 -1 -1 1
985 2 0.44451537914042594 7.817066031316597 6.926845432553123 1 0 0
678 2 6.210464793843765 5.634000715887209 4.871366182397742 0 -1 0
272 2 4.324107456254481 5.842288133568713 8.14406025332963 1 1 1
361 2 6.240412765970442 7.665519945659695 7.0395876304342755 1 -1 -2
491 2 7.332006974861892 5.522200148577971 8.07349297953515 1 1 0
560 2 9.434209528661585 5.520735314954987 4.839158064057836 -2 1 0
676 2 11.474171567994347 7.573583241198131 7.009441625498591 -1 -1 -1
333 2 9.274655272911057 6.776139762386638 6.844691873685942 -2 -1 0
83 2 12.387443272488511 5.137120134786546 6.928265305454629 0 -1 3
407 2 2.132878833809076 11.091165531794895 4.982608331647585 0 2 -1
822 2 2.482347208149944 11.468884933117906 7.606067251464418 0 1 -1
157 2 0.3787691110770602 10.292315273493552 7.187952857462329 1 0 0
817 2 8.056471284360141 11.276245710737266 4.821513281907453 0 -1 0
843 2 8.010374374350672 8.816225824663086 6.151982838482242 0 0 -1
712 2 4.150680674000785 12.726179989992639 5.147132721696537 0 -1 0
142 2 4.4706280309040585 10.61976657524828 6.307389271258084 0 -1 -1
938 2 6.615464402412516 10.764638438372904 6.50660213394837 1 0 2
263 2 5.7708227720674845 12.578586576582822 7.68358585522533 0 1 0
34 1 5.638506468004886 12.473028335460823 3.9778664524374547 0 2 4
798 2 10.579291955778737 12.624756243807406 4.831689133534182 -2 -1 1
423 2 9.829200445556836 11.230964298652127 6.450883337289444 -1 0 1
851 2 11.346260256406067 9.214641267946837 5.6161344540227045 0 -1 1
77 2 12.331501324303275 11.143658643922993 8.799116334251938 0 0 0
296 2 9.735745013952071 12.076739130357641 10.149978360190671 0 -1 0
448 2 2.01722871030802 2.357518029999529 9.235421364067665 1 1 0
796 2 0.4882549744647982 1.291749924905844 11.427401083389222 1 1 -1
334 2 2.7389273348214864 4.249227347856289 12.439580080836212 1 0 0
352 2 4.8833742082204195 4.375752764755052 9.597437916801734 1 0 -1
463 2 4.057399041762562 4.653712613290899 0.06771143786255408 0 0 2
779 2 7.369120021366604 1.7704847712568688 9.365493599109644 0 0 0
276 2 6.387388981504135 1.9015697231226452 12.76586426549533 1 0 1
620 2 4.166664544855407 1.5925841039224815 11.757409136915188 2 1 1
471 2 8.224358374053475 0.8256045781702761 11.576917171780233 -1 0 1
95 2 4.770400620129949 0.9594528382603722 9.505221233188047 -1 2 0
741 2 6.25903451863089 3.106143715245688 10.887493043158123 1 2 0
858 2 9.779968086451593 2.3645281876223976 12.744935535959057 0 -2 -1
771 2 11.350185786148472 3.8002189504419435 10.054003162699084 0 1 1
893 2 11.464774318789024 1.1854448413075116 10.052214665799347 0 1 -1
820 2 11.837201254945693 2.6886502234269307 11.888075573332612 0 -1 0
310 2 4.266324599025059 8.389140307933278 9.597938041071869 0 1 1
514 2 1.1896332097463995 3.820431159401652 10.951730313354691 1 0 1
847 2 4.106966991434848 7.346202698245623 11.94116733745818 1 0 3
838 2 2.0435830891748483 6.43118672893292 12.113612250540895 0 1 2
704 2 5.325380529975217 5.209898884934464 11.659750026683254 1 0 1
878 2 8.449369052059255 7.468250461362762 9.576254957983505 0 -1 0
784 2 7.533669214855402 6.797620627974762 11.651292337882449 1 1 -1
362 2 9.490994017286857 5.211096650620188 10.940709140150082 1 0 1
5 1 11.093116454912474 5.696666873795154 9.263249348616833 1 -2 3
282 2 10.649158980194873 7.126373780536346 9.250225055057665 -2 -1 2
3 1 11.457975745071423 6.9853609015660645 10.61755524117724 0 3 2
373 2 2.193611221048949 8.459396898685158 10.686201291468397 -1 1 0
924 2 1.684862799848445 12.594223756599652 9.933978151312559 2 1 0
467 2 4.148780739489983 10.437552940204586 10.816497924511415 0 0 0
833 2 3.0769828529110383 11.721856961614098 12.788994188371664 0 0 0
404 2 7.8046904405286766 11.809969391662516 8.464762742653798 1 0 0
646 2 5.357305642012651 12.404657799689366 9.763001511780816 0 0 -1
317 2 8.34862394144003 10.585837500854957 11.691908446951397 1 1 1
656 2 6.9022796983560175 8.807733012140211 8.800592753385736 2 -1 0
671 2 6.262273492342136 9.523209364814141 10.683389794678542 2 -1 1
356 2 10.089515386400613 10.188906848850184 8.680022407308302 1 0 -1
67 2 3.3745613337932996 3.4923712815542487 17.208443643692764 0 0 1
92 2 1.1082275115517037 2.895801513945282 16.462146884435203 2 0 0
755 2 3.2445535236515957 3.0713018002395076 14.661214967274109 0 0 1
223 2 1.3807680307657806 2.514724796648942 13.312490975124746 0 1 0
388 2 1.2929956302796717 0.3661276644033714 16.833671606669572 1 2 -1
19 1 2.8479111600281035 1.0982006069072896 14.718288707228048 2 -2 3
6 1 12.498204754041605 10.597888088611755 14.387760468833275 1 0 -4
148 2 6.129063621484755 1.66055967198089 15.218537714989164 1 1 0
4 1 5.940450932873996 3.6428274112049843 14.815935173959513 0 -1 0
943 2 8.318701048751297 0.45619042321998365 15.671539233148177 0 0 0
950 2 9.912379398665069 0.35668445700067514 13.945174707029345 0 2 2
348 2 10.322013165905451 1.8764585282169624 15.822521377884346 -1 0 1
181 2 12.808195581918273 2.7107063293813307 14.646398235594233 -2 0 1
898 2 9.882438064458496 4.135704422861599 16.367728407098088 0 -1 0
54 2 3.6313708183208977 5.7277820687796925 14.099422772416915 2 0 0
978 2 1.7784178795723116 4.927051566188938 15.32372591185918 0 0 -1
158 2 0.2637903093314277 6.198067541060448 13.92384417576579 -1 1 0
69 2 6.960634208668442 6.2141528017920615 14.563479970571908 1 1 1
369 2 5.369841633367749 4.77947387554027 15.652276004401248 0 0 0
342 2 4.013615327594964 6.2164375003218435 17.492660720624603 0 1 1
85 2 6.498674814671121 7.424845400478539 17.51028560996859 -1 1 1
684 2 8.474484550970605 5.8950086619836535 16.246947176435146 -1 -1 -1
702 2 4.905328629242032 7.678970462139171 15.287153882430815 0 2 0
124 2 11.453457209212267 12.870785966763332 23.502671149898713 -1 -1 -1
189 2 9.423542426764486 6.0632845920948615 13.349163688845307 1 0 -1
174 2 11.95279874413332 4.604161886413556 16.043133383963514 1 -2 0
772 2 10.901437660804417 8.518582938560655 16.729392108644408 2 -1 -1
559 2 12.300858130717788 12.641907790224094 17.53437386368496 0 1 0
244 2 11.507328738729704 4.792699188803027 13.490164567511796 -1 0 0
783 2 2.4096022017735836 8.569006668837776 15.61889839157336 0 -1 -1
930 2 2.420867363982792 10.692741387494758 16.645280989543664 1 0 0
532 2 9.712486078235521 12.673112375181065 20.38981840426843 -1 0 -1
116 2 1.8829848558215783 9.825956118838226 13.632777864060655 0 1 -2
544 2 0.2711713422317743 11.299466358425587 14.308560304519924 1 0 2
548 2 4.938622965416321 12.092995589848782 13.947778411137627 0 0 -1
534 2 5.977032048883104 9.976979983797149 14.563551689851835 0 1 -1
366 2 7.8625994426868795 11.982944149538175 13.363974968575441 0 2 -1
975 2 7.523184610956867 8.3765352003674 14.759947932758662 1 0 -1
328 2 5.3088610969069965 10.81934950330762 16.748330100496794 2 1 -1
785 2 2.927674876034922 2.14229346083587 25.78043494222714 1 0 -2
13 1 11.51295575209091 11.568579606528248 16.88905258069667 2 3 -4
299 2 11.59198661633942 11.807952890829654 14.226906869786909 1 0 0
773 2 9.57564443304033 10.80429535648584 14.63430979580523 -1 0 -1
956 2 9.712243879810304 8.54119368079912 13.522258297524546 2 0 0
17 1 11.395832072404895 8.59138252424472 14.699033370954988 -2 2 -2
687 2 9.498474943428764 12.718375529535082 17.122086575979637 -1 0 -2
375 2 3.38372241854873 0.583581510933932 18.5904519959523 -1 2 0
461 2 0.07920636299465021 0.3380298703101645 19.55527872215601 0 1 1
813 2 1.6126736661582346 2.6923523294027594 20.963708555993673 1 2 0
18 1 0.5486636589889266 3.25649292442699 19.245152991591517 0 1 -3
49 1 2.6447143921721303 2.023164566846495 19.082075478487166 0 1 -1
674 2 5.788181696499866 1.0190875316900818 19.129556456469732 1 1 0
869 2 9.256492385572308 2.2445015276166087 18.07652186547175 2 0 1
608 2 6.232517147348789 3.3201773309703304 21.897250568061082 0 1 2
265 2 5.987350462320089 3.499106797585708 19.424000733588247 0 0 0
810 2 8.597632437905068 0.8224333410254416 20.320351696223618 -1 -1 -1
733 2 12.052244660354999 0.10857753518500894 25.4888664742041 1 2 0
368 2 11.787019140297426 1.1816649856957082 17.66312131933061 -1 0 -1
193 2 11.452166050695299 1.6214577373660366 20.00961246188854 0 2 0
153 2 10.45255571481607 4.023240323245467 20.45127654920684 0 0 0
734 2 2.1484756773521876 6.856439171681868 16.72254028985282 2 2 0
535 2 7.983831782238338 3.866716073953543 13.014599410846511 0 1 0
939 2 3.9746018736326154 4.529439654687047 19.22577863087623 1 1 -1
984 2 2.424243113902081 5.676450715566082 20.813301310975813 1 1 1
776 2 1.0472471806788817 7.0218982105496375 19.38011693242336 0 2 -1
892 2 7.1792749848422135 5.754687023072093 19.639155970823442 -1 0 0
636 2 5.898579271435246 7.673745586604598 20.147246642980953 2 1 1
558 2 7.1220966028381305 4.107579213910346 17.670360622973472 1 -1 -1
907 2 8.730179050714467 8.121481965595004 20.24892727773561 0 0 0
589 2 6.353013143053156 5.716255906479888 21.965765738188896 0 0 0
679 2 9.71167316850875 5.031065571919321 18.36280312528717 2 1 0
171 2 9.443182910089805 7.574742522673326 18.10679623633026 1 -1 -1
725 2 11.664881829670245 6.7417889687491925 19.278857484494726 -2 0 0
524 2 12.455120161758929 4.580271907908815 19.129689186656197 1 1 0
65 2 1.5647138468195267 9.554910150829706 18.861703645143695 -1 1 0
132 2 4.0236475356348675 11.941696057417778 18.56781999323126 -1 -2 -1
197 2 1.0792545657045145 8.874985496722575 21.08860313405027 1 -2 0
231 2 2.5091856661059055 12.477089689110729 21.202711898830177 1 -1 0
316 2 3.635811593676333 8.93692099286005 19.785686213140885 0 0 -1
433 2 4.55284694821506 8.7213833744685 17.68971456325713 1 0 -1
778 2 4.548010239013241 11.018697111272248 20.60484049226322 1 -1 0
365 2 7.937718054741718 9.994935301197593 19.513746507610477 1 -1 0
669 2 7.035438859172034 11.49365232405302 17.735532148203664 1 1 -2
711 2 8.68810426772685 10.425448825427237 16.551677304989475 0 1 0
206 2 10.02236878500908 10.70837037758289 19.54110459985602 -1 -1 0
724 2 11.841022850836191 9.737260576508847 18.615120723333924 1 1 -1
40 1 3.7870403375968023 0.9302228260878787 21.549105384521617 -1 0 2
301 2 2.758643738950816 3.062354416287975 23.321740569907696 1 0 1
812 2 1.1597260027690777 0.4151086749629966 24.55321992902692 -1 1 0
507 2 8.697840008961657 3.6106439888803203 22.195086484685035 0 -1 -2
874 2 6.254171038137359 1.7546167421351646 24.230054364160516 0 1 0
793 2 5.257671846983537 1.0436625340548038 21.42969863208945 1 1 1
195 2 8.194499264894308 2.8197115866460893 24.95177542651804 -2 -1 0
449 2 4.869892751427411 3.4453073995355306 24.035235848248853 2 0 0
731 2 9.440795018860465 0.8714706054017809 25.74575694541425 0 1 -1
626 2 11.482345157845208 3.0416093909399287 25.09435744880547 2 1 0
987 2 10.41316405769918 1.5111359091534637 22.254899988959135 1 0 -1
758 2 12.015992633144219 4.231817269778789 22.88538958910089 -1 0 -1
192 2 12.872811411505278 6.57452868206962 16.53704701033829 0 1 0
454 2 0.45288863302034515 4.59089110224791 21.7628373304307 1 -1 -1
374 2 1.7522784440304584 4.9856881818788095 24.557340717504832 0 -1 -1
980 2 4.288974565874794 7.079756855665488 21.71213770080311 0 0 -1
859 2 3.422193143873469 6.385033788330539 24.027715301862823 0 1 -1
237 2 12.89869546798485 10.721990626288541 22.488654342050737 -1 1 -1
61 2 1.2633219550134476 8.157796810478825 24.144212025465766 0 0 0
889 2 6.47351078134723 7.803923976076293 23.390934227130604 0 -2 -1
875 2 7.453108934894732 5.598316261954893 24.26119065511083 1 2 0
989 2 10.241168222176238 8.190788604680002 24.16635539887226 1 3 0
480 2 12.500182412669767 7.2263955546096685 24.1515132604007 0 1 1
809 2 10.735841266096891 7.203426807198429 21.965763883021335 1 1 1
451 2 10.480618268159377 6.098402104325624 24.91428891640957 -1 2 -1
995 2 9.43774569358665 5.531429526458043 22.985388514714383 0 -1 1
961 2 0.9366177885500128 10.081464605809032 25.569560425254164 1 -2 -2
886 2 10.752956554504877 9.55708190764368 22.11631107253401 0 0 1
230 2 1.269075663675148 11.848661977688112 23.152353099120607 2 1 0
112 2 4.323470599973888 9.180771907925129 23.83976157856307 0 1 0
804 2 2.1447932401420218 9.809081664420782 22.822890976042018 2 0 -2
867 2 7.72669337318462 10.710796901676256 21.832223608907206 1 1 0
326 2 6.019387830404692 11.08638206798487 24.735699525962314 0 1 -3
685 2 5.650238899064812 9.487368560912314 21.812635994002218 1 1 0
458 2 4.57482219567446 11.43250950423158 22.885382128143565 0 -2 -1
199 2 7.608318336041868 9.537126169109175 24.379090409272987 0 0 1
209 2 10.247710998577512 10.06613795104232 25.813662612161377 -1 1 -1
665 2 9.536167294913351 10.744346370003116 23.786346917856825 -1 2 0
499 2 2.703349464830308 12.779203203350457 25.051420093979516 3 1 -2
881 2 12.867549279523454 7.9501321644351295 14.386401185315242 -1 0 0
947 2 0.06496476698447395 12.450254894491517 24.683566722079284 -2 1 0
905 2 2.7079266991676265 13.672684302272662 2.541407313242311 -1 -1 0
613 2 0.6158523711017995 16.73818768638702 2.1163937905283774 -2 0 1
666 2 0.6325212669443759 14.623037317616996 1.809136231245284 -1 0 -1
82 2 0.8013326003809822 13.17081543804094 4.2206327667566175 1 0 1
421 2 6.474171215774568 13.351640934534068 3.18232502117358 -1 0 1
573 2 4.6723317457503635 14.054689449204512 1.0148737896215978 1 -1 1
681 2 5.036850463611757 15.14860509775906 3.4165426051300694 2 -1 0
203 2 7.524345519872916 15.673770780180943 2.502016250385213 -1 1 0
182 2 5.425184986636754 16.625035572259844 1.2748718568150574 -1 -1 1
955 2 2.611044080486668 25.648166791702423 8.177978757978567 1 -1 2
818 2 8.844293922995856 13.323403847758222 0.6984499622691795 -1 0 2
870 2 10.924175549878994 13.79178891894918 2.5881498852639577 0 2 1
60 2 12.382244968673882 15.628076794088392 2.2196490749524327 1 0 0
135 2 10.962732268350246 16.977238074884312 0.980935693794495 1 -2 -1
572 2 9.838931675061211 15.581329735909382 2.8263146988839445 1 0 1
183 2 2.359009262291188 19.74631481018078 3.5484510039091743 1 -2 2
821 2 2.48095836650393 18.199796501861908 1.8663588989927753 -1 0 1
841 2 4.183509565848095 17.266157053061203 3.4579011909752695 1 -1 0
441 2 10.000006002592205 25.551175522244964 11.101917599931348 0 -1 0
413 2 7.362651340299702 17.80749556443979 4.082572185671979 1 -1 1
468 2 4.659747764656032 19.360932493307995 0.7926185400630843 0 -1 0
630 2 6.856510496320186 18.598308750981293 1.4097393596192518 2 -1 0
464 2 5.026367498758214 19.829907153235617 3.6271332683624116 1 -1 0
456 2 9.64499297833683 19.12046940442572 4.190545900281662 0 0 -1
290 2 11.065558912309207 20.408558664183467 1.4218063590374792 -2 -1 0
604 2 11.669377874874561 21.040517461235844 4.142179278995663 -1 -1 0
176 2 7.64612817843387 25.53015009562398 1.5035457357497881 -1 0 -1
482 2 2.9179447644488854 21.270524015777823 1.5797396541044548 1 1 3
427 2 1.3426472081125487 23.05660017085984 3.2776468904299794 0 -2 1
155 2 4.412914935212053 25.81529204548984 2.5284867787986696 0 0 1
625 2 2.439271232515195 24.554302951343704 1.724860286160705 -1 -1 0
23 1 3.6771787627833947 16.27820819147001 10.837771364700073 -1 -2 -2
86 2 0.46929206912293203 25.029793596859246 0.45862328094597615 0 -1 1
689 2 6.83542073682472 20.90927598716131 2.2157575491156978 -1 -1 0
682 2 4.3900925444978895 23.417050292170718 0.9411449506257185 0 -1 2
58 2 7.697973606254657 22.7900885031087 0.6325291782324403 -1 0 1
436 2 6.016903081356787 23.867713431595444 2.8080551295808625 -2 -2 1
787 2 9.169919283507868 21.972219790760604 2.203980511659788 -2 -2 2
565 2 10.263651589578513 24.313475250239996 2.547094785420887 -1 1 2
314 2 11.608563393462044 23.045093752857035 1.037717688380053 1 -1 0
415 2 2.7655577129483646 14.87901298600125 5.524875233263894 2 -1 1
528 2 2.3792585920197524 16.380063893836297 8.139875554678389 0 0 0
994 2 1.1047354207645113 13.858977487874771 7.568742244600815 1 1 1
381 2 4.76362173700685 14.956912851890328 6.820571382124972 -1 -1 0
267 2 6.344667342721085 15.952798453887347 5.326807182612535 1 -1 0
628 2 9.572093707678444 14.43345045836635 6.148507263375019 0 0 0
488 2 7.768184851265057 14.111598237831515 4.797193558183378 0 1 2
616 2 11.801273005526033 16.047767475302603 7.258801979573359 0 -1 0
937 2 10.461684918163622 16.44672703309955 5.270993092987167 0 1 0
323 2 12.686176954463003 13.574943616199842 7.576618712830351 0 0 1
484 2 2.6504429501533266 17.01410484623609 5.311239203231074 0 0 0
762 2 3.0063531765362574 21.113751196724735 5.204107348937986 -1 0 0
200 2 0.7573050101020212 18.188700226198538 5.196535639959096 1 0 1
650 2 0.21530115141281678 20.987320163877463 5.398473869880606 1 -1 0
882 2 0.7875610003019041 18.168639172318542 7.192429354759776 0 1 0
497 2 4.393733290222527 20.342959698522773 6.996331817983563 1 1 0
438 2 4.5980732774391235 18.036239448076582 6.762083461464147 1 -1 0
942 2 7.192322707518589 17.800650455157328 7.392727789067309 0 -1 0
473 2 7.786466107230656 19.95575863986698 5.904657751931295 -1 -1 1
618 2 7.5340769604118165 20.563102312853218 8.458005401418491 1 0 -2
864 2 11.807144898460919 18.71191306183147 5.223216271736386 1 -1 0
29 1 9.046356460686047 16.99157091494789 5.7151718946203625 -2 6 -2
542 2 9.453580575285333 17.85673400488096 7.503691189817402 -1 1 0
15 1 12.446153664939844 19.270663101046267 8.72241893099748 -2 1 -1
393 2 5.254258035882079 20.745398864004734 12.496726624084133 -1 0 -1
98 2 3.0452404037407623 23.355269616538344 4.778950735367205 0 -2 -2
487 2 4.5550334272172766 23.283024853010026 7.125721000766957 3 -1 1
242 2 1.3616368979677782 22.768046885952977 7.074121582880123 0 -1 0
743 2 0.31758829960282525 24.852825334515565 7.9674595710193055 2 1 0
664 2 7.935813553823826 22.733961475079788 4.357677320264545 -1 -1 1
692 2 5.686317733428794 21.479123930259494 5.1435644110963015 1 1 1
118 2 6.822071476572826 23.74271445916259 6.880904768098337 1 -1 1
162 2 8.180620642820852 22.875650609494933 8.341278142847084 0 0 -1
284 2 11.984480621095917 23.3118372858219 5.772622951631362 0 0 -1
964 2 9.633494631909498 21.483284026171862 5.2913561630835675 0 0 0
670 2 10.84058571218637 21.887458386513053 7.542027110557333 -1 0 0
556 2 11.419320809272921 25.39776073054538 4.213574399168838 1 0 0
609 2 9.406257992235359 24.570016527511697 5.390794883936975 0 0 2
770 2 9.279227518311979 25.00645718104605 8.60225536463535 1 -1 -1
727 2 3.196148467703014 14.030165654549318 9.38932815641036 2 -1 1
240 2 1.5037430503349642 13.468379451276528 12.684122856229736 0 2 0
241 2 1.0518783041789268 14.739452857904029 10.907293278282049 -1 0 2
557 2 8.924740532191922 15.738104858980105 0.08285712073321355 0 0 0
163 2 12.774269503579301 24.494891319346614 10.547339836724879 -2 -1 1
363 2 12.613276431551823 18.335086461758983 2.8742669548919815 -1 0 -1
68 2 4.760133123682102 14.045918199469014 11.162253872644863 -1 0 -2
233 2 5.481146480818683 15.393356405766387 9.505047986507051 0 0 -1
59 2 7.393109084408864 16.29948768137798 11.01752193487655 0 1 -2
186 2 8.064191261722023 14.153276827447813 11.382250398639977 0 -1 -1
976 2 9.113674580374072 14.014642464652308 8.380846974757597 2 1 0
216 2 11.794240929975533 13.746873928699763 11.370155700445112 -1 -1 0
672 2 10.313022490510921 16.109709309538246 8.89610030420049 1 1 -1
289 2 10.024434978737014 15.236781227317424 10.958041272049472 2 0 -1
50 1 10.260988705887574 16.549994416882107 12.259201175713216 1 4 1
466 2 2.2967414418920313 21.213734767608333 9.07761307228379 1 -1 0
648 2 1.6045724163952177 22.223256104075453 12.098245326508943 0 0 -1
849 2 0.0748478197064723 17.0490446591441 10.368093352566568 3 0 1
791 2 3.5058509650229914 19.07430118027011 8.821234169913454 0 0 1
897 2 3.454315528953245 17.610116538056822 10.885737327392606 0 -1 0
511 2 2.324550556854996 20.07285937189485 11.330664296728045 1 1 1
249 2 5.222336924550223 21.272775624970098 8.791127956493824 0 -1 -1
988 2 5.046389068498435 18.05668037724317 12.385955578390666 1 -2 1
690 2 8.671571059988722 18.036754131166187 10.082991532220458 0 2 -1
347 2 6.73627133449319 21.34378281370474 10.725508030783132 -1 0 1
443 2 5.61808094523974 17.675769703870372 8.978200809341411 0 -1 -1
891 2 7.356790323630553 19.072196569414967 12.005673929967948 0 0 0
517 2 9.613087286371503 20.491878965496603 9.43374464752467 1 0 -1
62 2 10.44647452374543 19.19846679890038 11.08874386419077 -1 -2 -1
707 2 4.067835221411404 22.173888597642048 11.355293727649752 -1 0 2
151 2 2.199165622953248 25.112322418467887 10.457089413789907 2 0 1
332 2 3.8731111612983655 23.627118650698847 9.703938068113057 1 -2 -2
270 2 7.34491329575054 25.467132083210583 4.175644872738046 -1 0 0
598 2 0.35555552598191936 24.90029189908947 12.16807862754872 1 -2 0
46 1 3.3427872294127003 24.810240281886188 11.547564253732187 2 0 0
571 2 7.615972183952886 24.083632453050242 10.224691698311794 -1 -1 1
903 2 5.495267702362117 25.416459396192476 5.877735520905632 -1 0 1
450 2 5.707964179046329 24.88462160333471 9.350740236242977 2 0 -1
899 2 11.250872421267895 24.718943845191347 12.450229568017924 2 -1 -1
219 2 10.180132924738679 22.126144763778104 11.179765607986889 0 -1 0
761 2 8.667673127805251 23.797539446356193 12.293533079334402 1 -2 -1
789 2 11.194295986628687 23.45992251920176 9.413012290505044 2 1 1
42 1 0.8687443002528045 18.513764303015286 10.81289814369291 1 -1 2
748 2 12.659536106408655 20.196691748680056 7.288264185835062 1 -1 -1
564 2 12.554266596842556 18.904028292137287 11.967482559100668 -1 1 0
717 2 6.664118087613225 12.914564804682042 0.5758953358332541 1 1 1
662 2 0.8689057511069043 13.892668721055257 14.854062526411056 0 1 0
763 2 3.997924037716902 15.177380992597133 13.436664828154147 -1 -1 1
540 2 0.7620907088234742 16.18720996586604 16.77790520996186 2 0 -1
445 2 3.039572125373672 16.738642554338718 16.31090384414985 0 0 -2
340 2 2.587737419397665 17.21358994724147 13.99550536716594 -1 -2 -1
20 1 0.5777311320187 15.445667258148044 15.45182685382093 0 -2 2
302 2 4.539746001673956 14.820218712958601 17.72433189381532 -2 1 1
554 2 5.95626993281618 15.177247328083116 14.876692586871183 0 0 0
234 2 8.225656105318782 15.800503744652064 13.349874940121875 1 0 0
699 2 7.129049289700411 17.28909622838795 14.910829792380229 -1 0 -1
194 2 7.8355371302419945 13.464345261136792 15.383072893020913 1 1 0
201 2 3.2838553627513924 13.54740384080944 15.521251016250678 0 -1 2
247 2 11.637164916434942 13.926262199108189 15.603186184240325 2 -2 0
489 2 9.963993204060154 15.317544043363702 15.044730405386447 2 -1 -1
494 2 12.757931257982529 16.578118987802956 15.620436196220831 0 -1 -1
902 2 3.800013199527297 19.952909835163904 13.846864099024298 0 -1 -1
280 2 1.4935825101017322 18.93240919045667 17.922198913276826 1 0 0
196 2 1.7025498896179976 19.606272198817603 15.654905421372181 0 0 0
792 2 0.5597836469447853 18.707331887203587 13.552491753864322 1 1 -1
639 2 12.177799171400789 23.656727857496232 22.899587056986466 -1 -1 1
673 2 6.028472193692038 20.004678073285202 14.902371976216177 2 1 1
861 2 4.4368006139240705 18.083931590189746 14.83619444681624 1 0 1
226 2 8.07607852814835 19.46747000208652 15.321784165841507 0 -1 0
238 2 4.3180447080858935 19.767848822648254 17.19000075991047 0 0 0
579 2 11.154343370800984 22.181399036743727 24.90307256133731 -1 -3 -1
138 2 9.43170634772639 19.262849489729096 13.012127892189946 2 1 1
353 2 10.720133107044008 17.314272087570803 13.591630540690653 0 1 -1
378 2 11.943950466736787 18.973811515665847 16.231450567654644 -1 0 0
78 2 11.624588648346961 21.363297871508394 12.946035476909662 -1 0 -1
392 2 9.080433216783225 21.28557190967122 13.964328631585529 0 -1 0
308 2 3.4848204478118916 22.649401671879254 13.726457095893904 1 -1 0
273 2 1.353733477139076 23.31503192137654 13.859391159440904 0 -1 0
732 2 1.84255780409442 21.580654731052373 17.100928270037194 0 1 0
531 2 3.0291898299725184 25.511539175465177 15.076039346699622 1 0 1
357 2 5.692646569832313 21.708999370636477 17.047000789519046 1 0 0
166 2 7.8991150090258655 22.175640121785392 15.798740845922806 -1 0 0
150 2 5.450620489422487 23.985432605643748 14.119363429219499 1 0 0
999 2 5.084993514151152 25.5082845585889 16.269247049872035 0 1 1
149 2 10.775759660782752 24.356992833240614 16.231334116308144 -2 0 0
420 2 9.880359818791472 23.864846323518833 14.264036068171388 1 -2 1
915 2 10.807526565281082 21.1714780496182 15.192361801428255 1 -1 0
446 2 12.233266771871289 25.632475362813466 14.24283750826161 -1 -2 0
873 2 2.051091851912365 16.134902651731128 18.847741609763503 2 0 1
99 2 2.395378828834868 13.698200317325433 18.191502579717728 2 1 -1
395 2 0.2218194436464817 13.180004475221416 17.646609727962193 0 0 -2
187 2 3.5774563760545712 15.608740466874046 20.56834829599764 1 -1 -1
255 2 0.07442637121197108 14.806356146113437 20.11993357949853 -2 1 -1
590 2 1.319747166104956 16.615284593641316 21.19642015777225 0 -1 -1
541 2 7.095007402508537 14.95129512476769 16.887242904981708 1 1 0
553 2 7.2764167109431 15.97177306962344 20.190418137009697 1 -2 1
740 2 5.217463833373842 17.05691669060881 20.574284794004257 0 0 1
57 2 7.887189348407291 13.450289569337324 19.077203823907837 -1 1 0
180 2 5.90398534503389 17.423371868227868 17.821742306604477 -1 0 0
133 2 5.351049747622989 13.657462411342056 19.654337658682902 0 -1 -2
406 2 12.499743525608665 16.854187737296062 20.856483004306906 0 1 0
644 2 11.43681910045915 16.467681498527703 18.7643958344104 0 0 -1
235 2 11.553693443043421 14.06033552779149 19.76525887717006 -1 1 -1
788 2 9.212612617627931 17.05255802359689 20.069976555355353 1 0 -1
653 2 0.48094759857207126 20.281207178315718 21.538900880873708 1 -1 0
253 2 3.5802763359644207 18.135501576299045 18.80769692860575 0 3 0