 vasp.6.5.0 16Dec24 (build Jan 20 2025 08:32:48) complex                         
 executed on        HPECrayEX_GCC date 2025.07.28  20:44:19
 running  128 mpi-ranks, with    1 threads/rank, on    1 nodes
 distrk:  each k-point on  128 cores,    1 groups
 distr:  one band on NCORE=  16 cores,    8 groups


--------------------------------------------------------------------------------------------------------


 INCAR:
   SYSTEM = a-Si SPC
   NCORE = 16
   ISTART = 1
   ICHARG = 1
   ISPIN = 1
   ISYM = 1
   EDIFF = 1E-6
   NELM = 150
   EDIFFG = -0.01
   NSW = 0
   ISIF = 2
   IBRION = -1
   PREC = Accurate
   ENCUT = 1200
   KSPACING = 0.23
   KGAMMA = .TRUE.
   METAGGA = SCAN
   LASPH = .TRUE.
   LDIAG = .FALSE.
   LMIXTAU = .TRUE.
   ADDGRID = .TRUE.
   ALGO = Normal
   ISMEAR = 0
   SIGMA = 0.1
   LORBIT = 11
   NEDOS = 2000
   LWAVE = .FALSE.
   LCHARG = .FALSE.

 POTCAR:    PAW_PBE H 15Jun2001                   
 POTCAR:    PAW_PBE Si 05Jan2001                  
 POTCAR:    PAW_PBE H 15Jun2001                   
   SHA256 =  030f79b5d3ab3cf0e668861823c8fb652ff669f3e15e46930bd03bfd63a607b6 H/POTCAR              
   COPYR  = (c) Copyright 15Jun2001 Georg Kresse                                                    
   COPYR  = This file is part of the software VASP. Any use, copying, and all other rights are regul
   COPYR  = If you do not have a valid VASP license, you may not use, copy or distribute this file. 
   VRHFIN =H: ultrasoft test                                                                        
   LEXCH  = PE                                                                                      
   EATOM  =    12.4884 eV,    0.9179 Ry                                                             
                                                                                                    
   TITEL  = PAW_PBE H 15Jun2001                                                                     
   LULTRA =        F    use ultrasoft PP ?                                                          
   IUNSCR =        0    unscreen: 0-lin 1-nonlin 2-no                                               
   RPACOR =    0.000    partial core radius                                                         
   POMASS =    1.000; ZVAL   =    1.000    mass and valenz                                          
   RCORE  =    1.100    outmost cutoff radius                                                       
   RWIGS  =    0.700; RWIGS  =    0.370    wigner-seitz radius (au A)                               
   ENMAX  =  250.000; ENMIN  =  200.000 eV                                                          
   RCLOC  =    0.701    cutoff for local pot                                                        
   LCOR   =        T    correct aug charges                                                         
   LPAW   =        T    paw PP                                                                      
   EAUG   =  400.000                                                                                
   RMAX   =    1.123    core radius for proj-oper                                                   
   RAUG   =    1.200    factor for augmentation sphere                                              
   RDEP   =    1.112    radius for radial grids                                                     
   RDEPT  =    0.926    core radius for aug-charge                                                  
                                                                                                    
   Atomic configuration                                                                             
    2 entries                                                                                       
     n  l   j            E        occ.                                                              
     1  0  0.50        -6.4927   1.0000                                                             
     2  1  0.50        -3.4015   0.0000                                                             
   Description                                                                                      
     l       E           TYP  RCUT    TYP  RCUT                                                     
     0     -6.4927494     23  1.100                                                                 
     0      6.8029130     23  1.100                                                                 
     1     -4.0817478     23  1.100                                                                 
  local pseudopotential read in
  atomic valenz-charges read in
  non local Contribution for L=           0  read in
    real space projection operators read in
  non local Contribution for L=           0  read in
    real space projection operators read in
  non local Contribution for L=           1  read in
    real space projection operators read in
    PAW grid and wavefunctions read in

   number of l-projection  operators is LMAX  =           3
   number of lm-projection operators is LMMAX =           5

 POTCAR:    PAW_PBE Si 05Jan2001                  
   SHA256 =  79d9987ad8750f624c4d6acb2a16d13abf6a777132adc04dc6c8399be72b42bb Si/POTCAR             
   COPYR  = (c) Copyright 05Jan2001 Georg Kresse                                                    
   COPYR  = This file is part of the software VASP. Any use, copying, and all other rights are regul
   COPYR  = If you do not have a valid VASP license, you may not use, copy or distribute this file. 
   VRHFIN =Si: s2p2                                                                                 
   LEXCH  = PE                                                                                      
   EATOM  =   103.0669 eV,    7.5752 Ry                                                             
                                                                                                    
   TITEL  = PAW_PBE Si 05Jan2001                                                                    
   LULTRA =        F    use ultrasoft PP ?                                                          
   IUNSCR =        1    unscreen: 0-lin 1-nonlin 2-no                                               
   RPACOR =    1.500    partial core radius                                                         
   POMASS =   28.085; ZVAL   =    4.000    mass and valenz                                          
   RCORE  =    1.900    outmost cutoff radius                                                       
   RWIGS  =    2.480; RWIGS  =    1.312    wigner-seitz radius (au A)                               
   ENMAX  =  245.345; ENMIN  =  184.009 eV                                                          
   ICORE  =        2    local potential                                                             
   LCOR   =        T    correct aug charges                                                         
   LPAW   =        T    paw PP                                                                      
   EAUG   =  322.069                                                                                
   DEXC   =    0.000                                                                                
   RMAX   =    1.950    core radius for proj-oper                                                   
   RAUG   =    1.300    factor for augmentation sphere                                              
   RDEP   =    1.993    radius for radial grids                                                     
   RDEPT  =    1.837    core radius for aug-charge                                                  
                                                                                                    
   Atomic configuration                                                                             
    6 entries                                                                                       
     n  l   j            E        occ.                                                              
     1  0  0.50     -1785.8828   2.0000                                                             
     2  0  0.50      -139.4969   2.0000                                                             
     2  1  1.50       -95.5546   6.0000                                                             
     3  0  0.50       -10.8127   2.0000                                                             
     3  1  0.50        -4.0811   2.0000                                                             
     3  2  1.50        -4.0817   0.0000                                                             
   Description                                                                                      
     l       E           TYP  RCUT    TYP  RCUT                                                     
     0    -10.8127223     23  1.900                                                                 
     0     -7.6451159     23  1.900                                                                 
     1     -4.0811372     23  1.900                                                                 
     1      2.4879257     23  1.900                                                                 
     2     -4.0817478      7  1.900                                                                 
  local pseudopotential read in
  partial core-charges read in
  partial kinetic energy density read in
  atomic valenz-charges read in
  non local Contribution for L=           0  read in
    real space projection operators read in
  non local Contribution for L=           0  read in
    real space projection operators read in
  non local Contribution for L=           1  read in
    real space projection operators read in
  non local Contribution for L=           1  read in
    real space projection operators read in
    PAW grid and wavefunctions read in

   number of l-projection  operators is LMAX  =           4
   number of lm-projection operators is LMMAX =           8

 -----------------------------------------------------------------------------
|                                                                             |
|               ----> ADVICE to this user running VASP <----                  |
|                                                                             |
|     You have a (more or less) 'large supercell' and for larger cells it     |
|     might be more efficient to use real-space projection operators.         |
|     Therefore, try LREAL= Auto in the INCAR file.                           |
|     Mind: For very accurate calculation, you might also keep the            |
|     reciprocal projection scheme (i.e. LREAL=.FALSE.).                      |
|                                                                             |
 -----------------------------------------------------------------------------

 -----------------------------------------------------------------------------
|                                                                             |
|               ----> ADVICE to this user running VASP <----                  |
|                                                                             |
|     You enforced a specific xc type in the INCAR file but a different       |
|     type was found in the POTCAR file.                                      |
|     I HOPE YOU KNOW WHAT YOU ARE DOING!                                     |
|                                                                             |
 -----------------------------------------------------------------------------

  PAW_PBE H 15Jun2001                   :
 energy of atom  1       EATOM=  -12.4884
 kinetic energy error for atom=    0.0000 (will be added to EATOM!!)
  PAW_PBE Si 05Jan2001                  :
 energy of atom  2       EATOM= -103.0669
 kinetic energy error for atom=    0.0001 (will be added to EATOM!!)


 POSCAR:  H Si
  positions in cartesian coordinates
  No initial velocities read in


 exchange-correlation table for SCAN
   RHO(1)=    0.500       N(1)  =     2000
   RHO(2)=  100.500       N(2)  =     4000



--------------------------------------------------------------------------------------------------------


 ion  position               nearest neighbor table
   1  0.672  0.748  0.472-  40 1.50
   2  0.669  0.871  0.408-  29 1.48
   3  0.693  0.208  0.421-  48 1.50
   4  0.678  0.019  0.445-  29 1.49
   5  0.362  0.621  0.578-  56 2.33  45 2.37  10 2.39  50 2.64
   6  0.753  0.152  0.554-  22 2.35  26 2.39  48 2.41  12 2.46
   7  0.843  0.322  0.487-   8 2.35  44 2.35  12 2.43  48 2.60  33 3.01
   8  0.953  0.213  0.459-  14 2.29  25 2.31   7 2.35  22 2.55  55 2.64
   9  0.462  0.087  0.436-  43 2.30  30 2.30  54 2.32  23 3.00
  10  0.491  0.519  0.580-  46 2.33  20 2.39   5 2.39  50 2.60
  11  0.236  0.399  0.552-  21 2.26  42 2.29  45 2.30
  12  0.767  0.317  0.574-   7 2.43  35 2.45   6 2.46  33 2.72  48 2.86
  13  0.411  0.273  0.510-  54 2.34  42 2.34  46 2.34  43 2.35
  14  0.100  0.270  0.455-   8 2.29  32 2.37  21 2.39  55 2.64
  15  0.126  0.736  0.455-  34 2.31  24 2.31  19 2.35  31 2.41
  16  0.600  0.752  0.580-  56 2.35  20 2.37  28 2.44
  17  0.188  0.164  0.556-  53 2.35  32 2.36  42 2.38  55 2.38
  18  0.077  0.779  0.588-  41 2.31  31 2.31  27 2.35
  19  0.240  0.840  0.482-  15 2.35  27 2.38  39 2.38  51 2.42
  20  0.632  0.596  0.560-  16 2.37  40 2.37  35 2.38  10 2.39
  21  0.087  0.377  0.528-  11 2.26  55 2.31  36 2.32  14 2.39
  22  0.912  0.126  0.545-  38 2.34   6 2.35  55 2.41  25 2.46   8 2.55
  23  0.522  0.033  0.547-  54 2.32  26 2.33  30 2.38   9 3.00
  24  0.995  0.807  0.422-  15 2.31  52 2.32  57 2.35
  25  0.895  0.065  0.453-   8 2.31  52 2.37  22 2.46  38 3.05
  26  0.670  0.018  0.582-  23 2.33  28 2.36   6 2.39
  27  0.216  0.860  0.576-  18 2.35  53 2.36  19 2.38
  28  0.694  0.874  0.541-  37 2.28  29 2.34  26 2.36  16 2.44
  29  0.643  0.925  0.456-   2 1.48   4 1.49  30 2.32  28 2.34
  30  0.486  0.943  0.470-   9 2.30  39 2.32  29 2.32  23 2.38
  31  0.032  0.671  0.525-  18 2.31  36 2.35  15 2.41  57 2.41  34 2.69
  32  0.207  0.147  0.462-  43 2.30  17 2.36  14 2.37  51 2.38
  33  0.648  0.389  0.500-  46 2.34  48 2.35  35 2.36  12 2.72   7 3.01
  34  0.142  0.578  0.457-  15 2.31  45 2.40  36 2.40  31 2.69
  35  0.747  0.480  0.554-  33 2.36  44 2.36  20 2.38  12 2.45
  36  0.015  0.513  0.505-  21 2.32  31 2.35  44 2.35  34 2.40
  37  0.836  0.807  0.544-  28 2.28  41 2.28  57 2.30
  38  0.990  0.986  0.553-  41 2.30  22 2.34  53 2.37  52 2.39  25 3.05
  39  0.398  0.809  0.465-  56 2.31  30 2.32  19 2.38  47 2.47
  40  0.646  0.648  0.469-   1 1.50  20 2.37  49 2.40  47 2.45
  41  0.944  0.861  0.603-  37 2.28  38 2.30  18 2.31
  42  0.306  0.268  0.582-  11 2.29  13 2.34  17 2.38
  43  0.349  0.198  0.434-   9 2.30  32 2.30  13 2.35
  44  0.859  0.484  0.485-  49 2.32  36 2.35   7 2.35  35 2.36
  45  0.269  0.540  0.515-  11 2.30  50 2.33   5 2.37  34 2.40
  46  0.490  0.413  0.509-  10 2.33  13 2.34  33 2.34  50 2.35
  47  0.489  0.674  0.437-  50 2.33  40 2.45  39 2.47  56 2.57
  48  0.687  0.236  0.479-   3 1.50  33 2.35   6 2.41  54 2.45   7 2.60  12 2.86
  49  0.796  0.606  0.437-  44 2.32  57 2.38  40 2.40
  50  0.421  0.553  0.485-  45 2.33  47 2.33  46 2.35  10 2.60   5 2.64  56 2.85
  51  0.170  0.988  0.465-  52 2.35  32 2.38  53 2.40  19 2.42
  52  0.012  0.952  0.459-  24 2.32  51 2.35  25 2.37  38 2.39
  53  0.151  0.007  0.560-  17 2.35  27 2.36  38 2.37  51 2.40
  54  0.536  0.172  0.502-  23 2.32   9 2.32  13 2.34  48 2.45
  55  0.039  0.232  0.553-  21 2.31  17 2.38  22 2.41  14 2.64   8 2.64
  56  0.460  0.725  0.535-  39 2.31   5 2.33  16 2.35  47 2.57  50 2.85
  57  0.896  0.717  0.476-  37 2.30  24 2.35  49 2.38  31 2.41

  LATTYP: Found a simple tetragonal cell.
 ALAT       =    14.5342042383
 C/A-ratio  =     1.7030096450
  
  Lattice vectors:
  
 A1 = (  14.5342042383,   0.0000000000,   0.0000000000)
 A2 = (   0.0000000000,  14.5342042383,   0.0000000000)
 A3 = (   0.0000000000,   0.0000000000,  24.7518900000)


Analysis of symmetry for initial positions (statically):
=====================================================================
 Subroutine PRICEL returns:
 Original cell was already a primitive cell.
 

 Routine SETGRP: Setting up the symmetry group for a 
 simple tetragonal supercell.


 Subroutine GETGRP returns: Found  1 space group operations
 (whereof  1 operations were pure point group operations)
 out of a pool of 16 trial point group operations.


The static configuration has the point symmetry C_1 .


Analysis of symmetry for dynamics (positions and initial velocities):
=====================================================================
 Subroutine PRICEL returns:
 Original cell was already a primitive cell.
 

 Routine SETGRP: Setting up the symmetry group for a 
 simple tetragonal supercell.


 Subroutine GETGRP returns: Found  1 space group operations
 (whereof  1 operations were pure point group operations)
 out of a pool of 16 trial point group operations.


The dynamic configuration has the point symmetry C_1 .


 Subroutine INISYM returns: Found  1 space group operations
 (whereof  1 operations are pure point group operations),
 and found     1 'primitive' translations


----------------------------------------------------------------------------------------

                                     Primitive cell                                     

  volume of cell :    5228.6658

  direct lattice vectors                    reciprocal lattice vectors
    14.534204238  0.000000000  0.000000000     0.068803216  0.000000000  0.000000000
     0.000000000 14.534204238  0.000000000     0.000000000  0.068803216  0.000000000
     0.000000000  0.000000000 24.751890000     0.000000000  0.000000000  0.040400955

  length of vectors
    14.534204238 14.534204238 24.751890000     0.068803216  0.068803216  0.040400955

  position of ions in fractional coordinates (direct lattice)
     0.671593668  0.748394663  0.472040691
     0.668871237  0.871008095  0.407515585
     0.692808382  0.207613880  0.421432677
     0.678141803  0.019200669  0.445399734
     0.361897918  0.620855788  0.577679106
     0.752850407  0.151803378  0.553521310
     0.843494807  0.322492366  0.486995814
     0.953076071  0.213012997  0.459220448
     0.462101374  0.087431327  0.435740445
     0.490933435  0.519233558  0.579751083
     0.235590941  0.398977171  0.551638019
     0.766721985  0.316580795  0.573922371
     0.410981993  0.272568901  0.510450661
     0.100159911  0.269758946  0.454770216
     0.126006183  0.735563816  0.454530325
     0.599941055  0.752160672  0.579998237
     0.187697732  0.163749351  0.555993460
     0.077420782  0.778971182  0.587893143
     0.240221317  0.839897736  0.482017053
     0.631833260  0.596351389  0.559591502
     0.087456810  0.376681297  0.527557418
     0.911620854  0.126248614  0.545296629
     0.521580907  0.033264654  0.547434276
     0.994762538  0.806767328  0.421981725
     0.895194608  0.065179833  0.452979976
     0.670106753  0.018065976  0.582265371
     0.215507089  0.860329484  0.576116863
     0.694468526  0.873904061  0.540641152
     0.643180610  0.924690367  0.455998649
     0.486092262  0.942583353  0.470223945
     0.031865767  0.670649828  0.524935609
     0.206819849  0.147380968  0.461802867
     0.648493228  0.389262866  0.500168527
     0.142177185  0.577602765  0.456624538
     0.746549289  0.480348694  0.553889086
     0.014515569  0.513325698  0.505395826
     0.836375473  0.807100921  0.544061765
     0.989692364  0.985779183  0.552628192
     0.398239309  0.809492512  0.464661515
     0.646146151  0.648386497  0.469144658
     0.943928309  0.861453051  0.603175489
     0.305966412  0.267531580  0.581908737
     0.349307249  0.198165508  0.434498644
     0.859105016  0.483692570  0.484974076
     0.269172745  0.540300212  0.514567326
     0.489747203  0.412823131  0.509228488
     0.488671707  0.673648893  0.437325198
     0.686912124  0.236496358  0.479360928
     0.796229533  0.606018636  0.437165957
     0.420823841  0.552936093  0.484972316
     0.169569265  0.987793381  0.464530305
     0.012078649  0.952088432  0.459135504
     0.150874147  0.006742337  0.560393769
     0.535962452  0.172418222  0.502437650
     0.038762001  0.231666497  0.552514478
     0.459704315  0.725336269  0.535318610
     0.896000074  0.717382638  0.476008785

  ion indices of the primitive-cell ions
   primitive index   ion index
                 1           1
                 2           2
                 3           3
                 4           4
                 5           5
                 6           6
                 7           7
                 8           8
                 9           9
                10          10
                11          11
                12          12
                13          13
                14          14
                15          15
                16          16
                17          17
                18          18
                19          19
                20          20
                21          21
                22          22
                23          23
                24          24
                25          25
                26          26
                27          27
                28          28
                29          29
                30          30
                31          31
                32          32
                33          33
                34          34
                35          35
                36          36
                37          37
                38          38
                39          39
                40          40
                41          41
                42          42
                43          43
                44          44
                45          45
                46          46
                47          47
                48          48
                49          49
                50          50
                51          51
                52          52
                53          53
                54          54
                55          55
                56          56
                57          57

----------------------------------------------------------------------------------------


 -----------------------------------------------------------------------------
|                                                                             |
|           W    W    AA    RRRRR   N    N  II  N    N   GGGG   !!!           |
|           W    W   A  A   R    R  NN   N  II  NN   N  G    G  !!!           |
|           W    W  A    A  R    R  N N  N  II  N N  N  G       !!!           |
|           W WW W  AAAAAA  RRRRR   N  N N  II  N  N N  G  GGG   !            |
|           WW  WW  A    A  R   R   N   NN  II  N   NN  G    G                |
|           W    W  A    A  R    R  N    N  II  N    N   GGGG   !!!           |
|                                                                             |
|     The requested file  could not be found or opened for reading            |
|     k-point information. Automatic k-point generation is used as a          |
|     fallback, which may lead to unwanted results.                           |
|                                                                             |
 -----------------------------------------------------------------------------



Automatic generation of k-mesh.
 Grid dimensions derived from KSPACING:
 generate k-points for:    2    2    2

 Generating k-lattice:

  Cartesian coordinates                     Fractional coordinates (reciprocal lattice)
     0.034401608  0.000000000  0.000000000     0.500000000  0.000000000  0.000000000
     0.000000000  0.034401608  0.000000000     0.000000000  0.500000000  0.000000000
     0.000000000  0.000000000  0.020200478     0.000000000  0.000000000  0.500000000

  Length of vectors
     0.034401608  0.034401608  0.020200478

  Shift w.r.t. Gamma in fractional coordinates (k-lattice)
     0.000000000  0.000000000  0.000000000

 
 Subroutine IBZKPT returns following result:
 ===========================================
 
 Found      8 irreducible k-points:
 
 Following reciprocal coordinates:
            Coordinates               Weight
  0.000000  0.000000  0.000000      1.000000
  0.500000  0.000000  0.000000      1.000000
  0.000000  0.500000  0.000000      1.000000
  0.500000  0.500000  0.000000      1.000000
  0.000000  0.000000  0.500000      1.000000
  0.500000  0.000000  0.500000      1.000000
  0.000000  0.500000  0.500000      1.000000
  0.500000  0.500000  0.500000      1.000000
 
 Following cartesian coordinates:
            Coordinates               Weight
  0.000000  0.000000  0.000000      1.000000
  0.034402  0.000000  0.000000      1.000000
  0.000000  0.034402  0.000000      1.000000
  0.034402  0.034402  0.000000      1.000000
  0.000000  0.000000  0.020200      1.000000
  0.034402  0.000000  0.020200      1.000000
  0.000000  0.034402  0.020200      1.000000
  0.034402  0.034402  0.020200      1.000000
 


--------------------------------------------------------------------------------------------------------




 Dimension of arrays:
   k-points           NKPTS =      8   k-points in BZ     NKDIM =      8   number of bands    NBANDS=    144
   number of dos      NEDOS =   2000   number of ions     NIONS =     57
   non local maximal  LDIM  =      4   non local SUM 2l+1 LMDIM =      8
   total plane-waves  NPLWV = ******
   max r-space proj   IRMAX =      1   max aug-charges    IRDMAX= 404427
   dimension x,y,z NGX =   168 NGY =  168 NGZ =  280
   dimension x,y,z NGXF=   336 NGYF=  336 NGZF=  560
   support grid    NGXF=   672 NGYF=  672 NGZF= 1120
   ions per type =               4  53
   NGX,Y,Z   is equivalent  to a cutoff of  19.22, 19.22, 18.81 a.u.
   NGXF,Y,Z  is equivalent  to a cutoff of  38.43, 38.43, 37.61 a.u.

 SYSTEM =  a-Si SPC                                
 POSCAR =   H Si                                   

 Startparameter for this run:
   NWRITE =      2    write-flag & timer
   PREC   = accura    normal or accurate (medium, high low for compatibility)
   ISTART =      1    job   : 0-new  1-cont  2-samecut
   ICHARG =      1    charge: 1-file 2-atom 10-const
   ISPIN  =      1    spin polarized calculation?
   LNONCOLLINEAR =      F non collinear calculations
   LSORBIT =      F    spin-orbit coupling
   INIWAV =      1    electr: 0-lowe 1-rand  2-diag
   LASPH  =      T    aspherical Exc in radial PAW
 Electronic Relaxation 1
   ENCUT  = 1200.0 eV  88.20 Ry    9.39 a.u.  41.05 41.05 69.91*2*pi/ulx,y,z
   ENINI  = 1200.0     initial cutoff
   ENAUG  =  400.0 eV  augmentation charge cutoff
   NELM   =    150;   NELMIN=  2; NELMDL=  0     # of ELM steps 
   EDIFF  = 0.1E-05   stopping-criterion for ELM
   LREAL  =      F    real-space projection
   NLSPLINE    = F    spline interpolate recip. space projectors
   LCOMPAT=      F    compatible to vasp.4.4
   GGA_COMPAT  = T    GGA compatible to vasp.4.4-vasp.4.6
   LMAXPAW     = -100 max onsite density
   LMAXMIX     =    2 max onsite mixed and CHGCAR
   VOSKOWN=      0    Vosko Wilk Nusair interpolation
   ROPT   =    0.00000   0.00000
 Ionic relaxation
   EDIFFG = -.1E-01   stopping-criterion for IOM
   NSW    =      0    number of steps for IOM
   NBLOCK =      1;   KBLOCK =      1    inner block; outer block 
   IBRION =     -1    ionic relax: 0-MD 1-quasi-New 2-CG
   NFREE  =      0    steps in history (QN), initial steepest desc. (CG)
   ISIF   =      2    stress and relaxation
   IWAVPR =     10    prediction:  0-non 1-charg 2-wave 3-comb
   ISYM   =      1    0-nonsym 1-usesym 2-fastsym
   LCORR  =      T    Harris-Foulkes like correction to forces

   POTIM  = 0.5000    time-step for ionic-motion
   TEIN   =    0.0    initial temperature
   TEBEG  =    0.0;   TEEND  =   0.0 temperature during run
   SMASS  =  -3.00    Nose mass-parameter (am)
   estimated Nose-frequenzy (Omega)   =  0.10E-29 period in steps = 0.13E+47 mass=  -0.483E-26a.u.
   SCALEE = 1.0000    scale energy and forces
   NPACO  =    256;   APACO  = 10.0  distance and # of slots for P.C.
   PSTRESS=    0.0 pullay stress

  Mass of Ions in am
   POMASS =   1.00 28.09
  Ionic Valenz
   ZVAL   =   1.00  4.00
  Atomic Wigner-Seitz radii
   RWIGS  =  -1.00 -1.00
  virtual crystal weights 
   VCA    =   1.00  1.00
   NELECT =     216.0000    total number of electrons
   NUPDOWN=      -1.0000    fix difference up-down

 DOS related values:
   EMIN   =  10.00;   EMAX   =-10.00  energy-range for DOS
   EFERMI =   0.00;   METHOD = LEGACY      
   ISMEAR =     0;   SIGMA  =   0.10  broadening in eV -4-tet -1-fermi 0-gaus
   EFERMI_NEDOS =   21; number of points for ismear=-14 and -15

 Electronic relaxation 2 (details)
   IALGO  =     38    algorithm
   LDIAG  =      F    sub-space diagonalisation (order eigenvalues)
   LSUBROT=      F    optimize rotation matrix (better conditioning)
   TURBO    =      0    0=normal 1=particle mesh
   IRESTART =      0    0=no restart 2=restart with 2 vectors
   NREBOOT  =      0    no. of reboots
   NMIN     =      0    reboot dimension
   EREF     =   0.00    reference energy to select bands
   IMIX   =      4    mixing-type and parameters
     AMIX     =   0.40;   BMIX     =  1.00
     AMIX_MAG =   1.60;   BMIX_MAG =  1.00
     AMIN     =   0.10
     WC   =   100.;   INIMIX=   1;  MIXPRE=   1;  MAXMIX= -45

 Intra band minimization:
   WEIMIN = 0.0000     energy-eigenvalue tresh-hold
   EBREAK =  0.17E-08  absolut break condition
   DEPER  =   0.30     relativ break condition  

   TIME   =   0.40     timestep for ELM

  volume/ion in A,a.u.               =      91.73       619.03
  Fermi-wavevector in a.u.,A,eV,Ry     =   0.565930  1.069452  4.357625  0.320276
  Thomas-Fermi vector in A             =   1.604114

 Write flags
   LWAVE        =      F    write WAVECAR
   LDOWNSAMPLE  =      F    k-point downsampling of WAVECAR
   LCHARG       =      F    write CHGCAR
   LVTOT        =      F    write LOCPOT, total local potential
   LVHAR        =      F    write LOCPOT, Hartree potential only
   WRT_POTENTIAL= false  ! write potential to hdf5 file
   LELF         =      F    write electronic localiz. function (ELF)
   LORBIT       =     11    0 simple, 1 ext, 2 COOP (PROOUT), +10 PAW based schemes


 Python interface
   PLUGINS active      =      F    recompile with -DPLUGINS to activate

 Dipole corrections
   LMONO      =      F    monopole corrections only (constant potential shift)
   LDIPOL     =      F    correct potential (dipole corrections)
   IDIPOL     =      0    1-x, 2-y, 3-z, 4-all directions 
   EPSILON    =  1.0000000 bulk dielectric constant
   LVACPOTAV  =      F  vacuum potentials using an averaging scheme for the charge density
   VACPOTFLAT =  0.1000000 required flatness to determine vacuum potential

Coulomb truncation method
  LTRUNCATE          =      F  Coulomb kernel truncation to be used
  IDIMENSIONALITY    =      3  Dimensionality of cutoff (0 molecules / 2 surfaces)
  ISURFACE           =     -1  Direction of surface normal
  LCOARSEN           =      F  Coarsen the charge grid before padding, preferred


 Exchange correlation treatment:
   METAGGA = SCAN    functional components
   XC_C    = 1    coefficients multiplying the functional components
   LIBXC   =     F    Libxc                    
   VOSKOWN =     0    Vosko Wilk Nusair interpolation
   LHFCALC =     F    Hartree Fock is set to
   LHFONE  =     F    Hartree Fock one center treatment
   AEXX    =    0.0000 exact exchange contribution

 Parameters of functionals:
   SCAN:
     P1 =  0.000000E+00
     P2 =  0.000000E+00
     P3 =  0.000000E+00

 Accuracy and mixing parameters for tau-dependent meta-GGA functionals:
   LMAXTAU = 6
   LMIXTAU = T

 Van der Waals corrections
   IVDW    =     0    specifies the selected vdW correction

 Linear response parameters
   LEPSILON=     F    determine dielectric tensor
   LRPA    =     F    only Hartree local field effects (RPA)
   LNABLA  =     F    use nabla operator in PAW spheres
   LVEL    =     F    velocity operator in full k-point grid
   CSHIFT  =0.1000    complex shift for real part using Kramers Kronig
   OMEGAMAX=  -1.0    maximum frequency
   DEG_THRESHOLD= 0.2000000E-02 threshold for treating states as degnerate
   RTIME   =   -0.100 relaxation time in fs
  (WPLASMAI=    0.000 imaginary part of plasma frequency in eV, 0.658/RTIME)
   DFIELD  = 0.0000000 0.0000000 0.0000000 field for delta impulse in time

  Optional k-point grid parameters
   LKPOINTS_OPT  =     F    use optional k-point grid
   KPOINTS_OPT_MODE=     1    mode for optional k-point grid

 Orbital magnetization related:
   ORBITALMAG=     F  switch on orbital magnetization
   LCHIMAG   =     F  perturbation theory with respect to B field
   DQ        =  0.001000  dq finite difference perturbation B field
   LLRAUG    =     F  two centre corrections for induced B field
   LBONE     =     F  B-component reconstruction in AE one-centre
   LVGVCALC  =     T  calculate vGv susceptibility
   LVGVAPPL  =     F  apply vGv susceptibility instead of pGv for G=0

 Random number generation:
   RANDOM_GENERATOR = DEFAULT
   PCG_SEED         = not used


--------------------------------------------------------------------------------------------------------


 Static calculation
 charge density and potential will be updated during run
 non-spin polarized calculation
 Variant of blocked Davidson
 perform Loewdin sub-space diagonalisation
    ordering is kept fixed
    before iterative eigenvector-optimisation
 modified Broyden-mixing scheme, WC =      100.0
 initial mixing is a Kerker type mixing with AMIX =  0.4000 and BMIX =      1.0000
 Hartree-type preconditioning will be used
 using additional bands           36
 reciprocal scheme for non local part
 use partial core corrections
 calculate Harris-corrections to forces   (improved forces if not selfconsistent)
 use gradient corrections 
 use of overlap-Matrix (Vanderbilt PP)
 Gauss-broadening in eV      SIGMA  =   0.10


--------------------------------------------------------------------------------------------------------


  energy-cutoff  :     1200.00
  volume of cell :     5228.67
      direct lattice vectors                 reciprocal lattice vectors
    14.534204238  0.000000000  0.000000000     0.068803216  0.000000000  0.000000000
     0.000000000 14.534204238  0.000000000     0.000000000  0.068803216  0.000000000
     0.000000000  0.000000000 24.751890000     0.000000000  0.000000000  0.040400955

  length of vectors
    14.534204238 14.534204238 24.751890000     0.068803216  0.068803216  0.040400955



 old parameters found on file WAVECAR:
  energy-cutoff  :     1200.00
  volume of cell :     5228.67
      direct lattice vectors                 reciprocal lattice vectors
    14.534204238  0.000000000  0.000000000     0.068803216  0.000000000  0.000000000
     0.000000000 14.534204238  0.000000000     0.000000000  0.068803216  0.000000000
     0.000000000  0.000000000 24.751890000     0.000000000  0.000000000  0.040400955

  length of vectors


 k-points in units of 2pi/SCALE and weight: read from INCAR                         
   0.00000000  0.00000000  0.00000000       0.125
   0.03440161  0.00000000  0.00000000       0.125
   0.00000000  0.03440161  0.00000000       0.125
   0.03440161  0.03440161  0.00000000       0.125
   0.00000000  0.00000000  0.02020048       0.125
   0.03440161  0.00000000  0.02020048       0.125
   0.00000000  0.03440161  0.02020048       0.125
   0.03440161  0.03440161  0.02020048       0.125

 k-points in reciprocal lattice and weights: read from INCAR                         
   0.00000000  0.00000000  0.00000000       0.125
   0.50000000  0.00000000  0.00000000       0.125
   0.00000000  0.50000000  0.00000000       0.125
   0.50000000  0.50000000  0.00000000       0.125
   0.00000000  0.00000000  0.50000000       0.125
   0.50000000  0.00000000  0.50000000       0.125
   0.00000000  0.50000000  0.50000000       0.125
   0.50000000  0.50000000  0.50000000       0.125

 position of ions in fractional coordinates (direct lattice) 
   0.67159367  0.74839466  0.47204069
   0.66887124  0.87100809  0.40751558
   0.69280838  0.20761388  0.42143268
   0.67814180  0.01920067  0.44539973
   0.36189792  0.62085579  0.57767911
   0.75285041  0.15180338  0.55352131
   0.84349481  0.32249237  0.48699581
   0.95307607  0.21301300  0.45922045
   0.46210137  0.08743133  0.43574044
   0.49093343  0.51923356  0.57975108
   0.23559094  0.39897717  0.55163802
   0.76672199  0.31658079  0.57392237
   0.41098199  0.27256890  0.51045066
   0.10015991  0.26975895  0.45477022
   0.12600618  0.73556382  0.45453033
   0.59994105  0.75216067  0.57999824
   0.18769773  0.16374935  0.55599346
   0.07742078  0.77897118  0.58789314
   0.24022132  0.83989774  0.48201705
   0.63183326  0.59635139  0.55959150
   0.08745681  0.37668130  0.52755742
   0.91162085  0.12624861  0.54529663
   0.52158091  0.03326465  0.54743428
   0.99476254  0.80676733  0.42198173
   0.89519461  0.06517983  0.45297998
   0.67010675  0.01806598  0.58226537
   0.21550709  0.86032948  0.57611686
   0.69446853  0.87390406  0.54064115
   0.64318061  0.92469037  0.45599865
   0.48609226  0.94258335  0.47022395
   0.03186577  0.67064983  0.52493561
   0.20681985  0.14738097  0.46180287
   0.64849323  0.38926287  0.50016853
   0.14217718  0.57760277  0.45662454
   0.74654929  0.48034869  0.55388909
   0.01451557  0.51332570  0.50539583
   0.83637547  0.80710092  0.54406176
   0.98969236  0.98577918  0.55262819
   0.39823931  0.80949251  0.46466152
   0.64614615  0.64838650  0.46914466
   0.94392831  0.86145305  0.60317549
   0.30596641  0.26753158  0.58190874
   0.34930725  0.19816551  0.43449864
   0.85910502  0.48369257  0.48497408
   0.26917274  0.54030021  0.51456733
   0.48974720  0.41282313  0.50922849
   0.48867171  0.67364889  0.43732520
   0.68691212  0.23649636  0.47936093
   0.79622953  0.60601864  0.43716596
   0.42082384  0.55293609  0.48497232
   0.16956926  0.98779338  0.46453031
   0.01207865  0.95208843  0.45913550
   0.15087415  0.00674234  0.56039377
   0.53596245  0.17241822  0.50243765
   0.03876200  0.23166650  0.55251448
   0.45970432  0.72533627  0.53531861
   0.89600007  0.71738264  0.47600878

 position of ions in cartesian coordinates  (Angst):
   9.76107953 10.87732089 11.68389927
   9.72151117 12.65940954 10.08678093
  10.06941852  3.01750254 10.43125526
   9.85625147  0.27906645 11.02448523
   5.25989826  9.02364482 14.29864969
  10.94208157  2.20634130 13.70069857
  12.25952580  4.68716992 12.05406682
  13.85220227  3.09597440 11.36657402
   6.71627575  1.27074476 10.78539956
   7.13532681  7.54664658 14.34993503
   3.42412685  5.79881569 13.65408357
  11.14369393  4.60124993 14.20566339
   5.97329622  3.96157208 12.63461861
   1.45574460  3.92073161 11.25642237
   1.83139960 10.69083473 11.25048461
   8.71966582 10.93205682 14.35605257
   2.72803717  2.37996651 13.76188896
   1.12524946 11.32172626 14.55146641
   3.49142568 12.20724523 11.93083307
   9.18319365  8.66749288 13.85094730
   1.27111514  5.47476291 13.05804317
  13.24968368  1.83492314 13.49712218
   7.58076343  0.48347528 13.55003298
  14.45808190 11.72572112 10.44484525
  13.01094127  0.94733701 11.21211055
   9.73946841  0.26257459 14.41216842
   3.13222405 12.50420443 14.25998122
  10.09354739 12.70150011 13.38189033
   9.34811835 13.43963865 11.28682839
   7.06496421 13.69969897 11.63893137
   0.46314356  9.74736157 12.99314844
   3.00596193  2.14206509 11.43049377
   9.42533302  5.65762600 12.38011635
   2.06643224  8.39499656 11.30232034
  10.85049984  6.98148603 13.70980172
   0.21097225  7.46078053 12.50950188
  12.15605194 11.73056962 13.46655695
  14.38439095 14.32751598 13.67859223
   5.78809146 11.76532950 11.50125071
   9.39122012  9.42378177 11.61221697
  13.71924683 12.52053459 14.92973336
   4.44697832  3.88835863 14.40334105
   5.07690290  2.88017796 10.75466263
  12.48640777  7.03008660 12.00402497
   3.91221165  7.85283363 12.73651384
   7.11808587  6.00005570 12.60436751
   7.10245440  9.79095060 10.82462519
   9.98372111  3.43728637 11.86508897
  11.57256265  8.80799863 10.82068368
   6.11633965  8.03648611 12.00398141
   2.46455433 14.35679075 11.49800302
   0.17555355 13.83784772 11.36447150
   2.19283566  0.09799450 13.87080493
   7.78978774  2.50596166 12.43628145
   0.56337484  3.36708818 13.67577759
   6.68143641 10.54218547 13.25014735
  13.02264807 10.42658578 11.78211708



--------------------------------------------------------------------------------------------------------


 k-point     1 :   0.0000 0.0000 0.0000  plane waves:  493523
 k-point     2 :   0.5000 0.0000 0.0000  plane waves:  493558
 k-point     3 :   0.0000 0.5000 0.0000  plane waves:  493558
 k-point     4 :   0.5000 0.5000 0.0000  plane waves:  493660
 k-point     5 :   0.0000 0.0000 0.5000  plane waves:  493508
 k-point     6 :   0.5000 0.0000 0.5000  plane waves:  493584
 k-point     7 :   0.0000 0.5000 0.5000  plane waves:  493584
 k-point     8 :   0.5000 0.5000 0.5000  plane waves:  493544

 maximum and minimum number of plane-waves per node :     30921    30762

 maximum number of plane-waves:    493660
 maximum index in each direction: 
   IXMAX=   41   IYMAX=   41   IZMAX=   69
   IXMIN=  -41   IYMIN=  -41   IZMIN=  -70


 parallel 3D FFT for wavefunctions:
    minimum data exchange during FFTs selected (reduces bandwidth)
 parallel 3D FFT for charge:
    minimum data exchange during FFTs selected (reduces bandwidth)


 total amount of memory used by VASP MPI-rank0   329879. kBytes
=======================================================================

   base                                    :      30000. kBytes
   nonl-proj                               :      59814. kBytes
   fftplans                                :      95287. kBytes
   grid                                    :      73508. kBytes
   one-center                              :         12. kBytes
   wavefun                                 :      71258. kBytes

     INWAV:  cpu time     21.1629: real time     21.1778
 Broyden mixing: mesh for mixing (old mesh)
   NGX = 83   NGY = 83   NGZ =139
  (NGX  =336   NGY  =336   NGZ  =560)
  gives a total of 957571 points

 initial charge density was supplied:
 number of electron     215.9999999 magnetization 
 keeping initial charge density in first step


--------------------------------------------------------------------------------------------------------


 Maximum index for augmentation-charges        10778 (set IRDMAX)


--------------------------------------------------------------------------------------------------------


 First call to EWALD:  gamma=   0.102
 Maximum number of real-space cells   3x   3x   2
 Maximum number of reciprocal cells   2x   2x   4

    FEWALD:  cpu time      0.0122: real time      0.0123


--------------------------------------- Ionic step        1  -------------------------------------------




--------------------------------------- Iteration      1(   1)  ---------------------------------------


    POTLOK:  cpu time      1.8363: real time      1.8371
    SETDIJ:  cpu time      1.1836: real time      1.1846
    EDDIAG:  cpu time     39.6955: real time     39.7185
     EDDAV:  cpu time    172.3002: real time    172.3942
       DOS:  cpu time      0.0102: real time      0.0102
    CHARGE:  cpu time     22.5004: real time     22.5196
    MIXING:  cpu time      0.0454: real time      0.0459
    --------------------------------------------
      LOOP:  cpu time    237.5717: real time    237.7101

 eigenvalue-minimisations  :  2304
 total energy-change (2. order) :-0.5418345E+03  (-0.6284536E+00)
 number of electron     215.9999999 magnetization 
 augmentation part      -12.0279281 magnetization 

 Broyden mixing:
  rms(total) = 0.87371E+00    rms(broyden)= 0.27883E+02
  rms(prec ) = 0.91873E+00
  weight for this iteration     100.00
  WARNING: grid for Broyden might be to small

 Free energy of the ion-electron system (eV)
  ---------------------------------------------------
  alpha Z        PSCENC =        18.82865207
  Ewald energy   TEWEN  =     22131.13806485
  -Hartree energ DENC   =    -26787.79019916
  -exchange      EXHF   =         0.00000000
  -V(xc)+E(xc)   XCENC  =      -252.00089380
  PAW double counting   =     19307.41299531   -18778.81856202
  entropy T*S    EENTRO =        -0.09720071
  eigenvalues    EBANDS =     -1693.00308787
  atomic energy  EATOM  =      5512.49574450
  Solvation  Ediel_sol  =         0.00000000
  ---------------------------------------------------
  free energy    TOTEN  =      -541.83448684 eV

  energy without entropy =     -541.73728613  energy(sigma->0) =     -541.78588648


--------------------------------------------------------------------------------------------------------




--------------------------------------- Iteration      1(   2)  ---------------------------------------


    POTLOK:  cpu time      1.8015: real time      1.8256
    SETDIJ:  cpu time      1.1908: real time      1.1914
    EDDIAG:  cpu time     39.9820: real time     40.0039
     EDDAV:  cpu time    175.3660: real time    175.4656
       DOS:  cpu time      0.0023: real time      0.0023
    CHARGE:  cpu time     22.4003: real time     22.4190
    MIXING:  cpu time      0.0371: real time      0.0372
    --------------------------------------------
      LOOP:  cpu time    240.7800: real time    240.9450

 eigenvalue-minimisations  :  2368
 total energy-change (2. order) : 0.3755628E+02  (-0.5925543E+00)
 number of electron     215.9999999 magnetization 
 augmentation part      -11.9805739 magnetization 

 Broyden mixing:
  rms(total) = 0.59892E+00    rms(broyden)= 0.16012E+02
  rms(prec ) = 0.62103E+00
  weight for this iteration     100.00
  WARNING: grid for Broyden might be to small

 eigenvalues of (default mixing * dielectric matrix)
  average eigenvalue GAMMA=   0.6352
  0.6352

 Free energy of the ion-electron system (eV)
  ---------------------------------------------------
  alpha Z        PSCENC =        18.82865207
  Ewald energy   TEWEN  =     22131.13806485
  -Hartree energ DENC   =    -26778.83004259
  -exchange      EXHF   =         0.00000000
  -V(xc)+E(xc)   XCENC  =      -247.03426739
  PAW double counting   =     22999.46468033   -22470.74551502
  entropy T*S    EENTRO =        -0.09336051
  eigenvalues    EBANDS =     -1669.50216482
  atomic energy  EATOM  =      5512.49574450
  Solvation  Ediel_sol  =         0.00000000
  ---------------------------------------------------
  free energy    TOTEN  =      -504.27820858 eV

  energy without entropy =     -504.18484807  energy(sigma->0) =     -504.23152833


--------------------------------------------------------------------------------------------------------




--------------------------------------- Iteration      1(   3)  ---------------------------------------


    POTLOK:  cpu time      1.8365: real time      1.8606
    SETDIJ:  cpu time      1.1889: real time      1.1897
    EDDIAG:  cpu time     40.0189: real time     40.0370
     EDDAV:  cpu time    172.7422: real time    172.8400
       DOS:  cpu time      0.0027: real time      0.0028
    CHARGE:  cpu time     22.3889: real time     22.4104
    MIXING:  cpu time      0.0345: real time      0.0345
    --------------------------------------------
      LOOP:  cpu time    238.2126: real time    238.3749

 eigenvalue-minimisations  :  2304
 total energy-change (2. order) :-0.1440007E+01  (-0.4677439E+00)
 number of electron     215.9999999 magnetization 
 augmentation part      -11.9450988 magnetization 

 Broyden mixing:
  rms(total) = 0.30343E+00    rms(broyden)= 0.16885E+02
  rms(prec ) = 0.34805E+00
  weight for this iteration     100.00
  WARNING: grid for Broyden might be to small

 eigenvalues of (default mixing * dielectric matrix)
  average eigenvalue GAMMA=   0.7200
  0.8138  0.6262

 Free energy of the ion-electron system (eV)
  ---------------------------------------------------
  alpha Z        PSCENC =        18.82865207
  Ewald energy   TEWEN  =     22131.13806485
  -Hartree energ DENC   =    -26779.69057801
  -exchange      EXHF   =         0.00000000
  -V(xc)+E(xc)   XCENC  =      -248.34208740
  PAW double counting   =     26650.88994345   -26122.24152240
  entropy T*S    EENTRO =        -0.09451777
  eigenvalues    EBANDS =     -1668.70191503
  atomic energy  EATOM  =      5512.49574450
  Solvation  Ediel_sol  =         0.00000000
  ---------------------------------------------------
  free energy    TOTEN  =      -505.71821574 eV

  energy without entropy =     -505.62369797  energy(sigma->0) =     -505.67095685


--------------------------------------------------------------------------------------------------------




--------------------------------------- Iteration      1(   4)  ---------------------------------------


    POTLOK:  cpu time      1.7977: real time      1.8262
    SETDIJ:  cpu time      1.2406: real time      1.2411
    EDDIAG:  cpu time     40.0117: real time     40.0322
     EDDAV:  cpu time    175.4748: real time    175.5698
       DOS:  cpu time      0.0033: real time      0.0033
    CHARGE:  cpu time     22.3865: real time     22.4088
    MIXING:  cpu time      0.0351: real time      0.0351
    --------------------------------------------
      LOOP:  cpu time    240.9497: real time    241.1165

 eigenvalue-minimisations  :  2368
 total energy-change (2. order) :-0.6113829E-02  (-0.5137343E-01)
 number of electron     215.9999999 magnetization 
 augmentation part      -11.9398562 magnetization 

 Broyden mixing:
  rms(total) = 0.41894E-01    rms(broyden)= 0.16448E+01
  rms(prec ) = 0.47543E-01
  weight for this iteration     100.00
  WARNING: grid for Broyden might be to small

 eigenvalues of (default mixing * dielectric matrix)
  average eigenvalue GAMMA=   1.0645
  1.8307  0.7384  0.6244

 Free energy of the ion-electron system (eV)
  ---------------------------------------------------
  alpha Z        PSCENC =        18.82865207
  Ewald energy   TEWEN  =     22131.13806485
  -Hartree energ DENC   =    -26780.55698684
  -exchange      EXHF   =         0.00000000
  -V(xc)+E(xc)   XCENC  =      -248.60038686
  PAW double counting   =     30881.50617289   -30352.90165229
  entropy T*S    EENTRO =        -0.09439540
  eigenvalues    EBANDS =     -1667.53954249
  atomic energy  EATOM  =      5512.49574450
  Solvation  Ediel_sol  =         0.00000000
  ---------------------------------------------------
  free energy    TOTEN  =      -505.72432957 eV

  energy without entropy =     -505.62993417  energy(sigma->0) =     -505.67713187


--------------------------------------------------------------------------------------------------------




--------------------------------------- Iteration      1(   5)  ---------------------------------------


    POTLOK:  cpu time      1.7972: real time      1.8264
    SETDIJ:  cpu time      1.1920: real time      1.1928
    EDDIAG:  cpu time     40.0316: real time     40.0533
     EDDAV:  cpu time    199.1476: real time    199.2580
       DOS:  cpu time      0.0028: real time      0.0028
    CHARGE:  cpu time     22.3758: real time     22.3970
    MIXING:  cpu time      0.0364: real time      0.0364
    --------------------------------------------
      LOOP:  cpu time    264.5834: real time    264.7666

 eigenvalue-minimisations  :  2944
 total energy-change (2. order) :-0.2130213E-01  (-0.4030367E-02)
 number of electron     215.9999999 magnetization 
 augmentation part      -11.9411048 magnetization 

 Broyden mixing:
  rms(total) = 0.23093E-01    rms(broyden)= 0.39013E+00
  rms(prec ) = 0.24631E-01
  weight for this iteration     100.00
  WARNING: grid for Broyden might be to small

 eigenvalues of (default mixing * dielectric matrix)
  average eigenvalue GAMMA=   1.1667
  2.5028  0.8836  0.6548  0.6257

 Free energy of the ion-electron system (eV)
  ---------------------------------------------------
  alpha Z        PSCENC =        18.82865207
  Ewald energy   TEWEN  =     22131.13806485
  -Hartree energ DENC   =    -26780.48210778
  -exchange      EXHF   =         0.00000000
  -V(xc)+E(xc)   XCENC  =      -249.30863178
  PAW double counting   =     30425.55811293   -29896.93301575
  entropy T*S    EENTRO =        -0.09393619
  eigenvalues    EBANDS =     -1666.94851453
  atomic energy  EATOM  =      5512.49574450
  Solvation  Ediel_sol  =         0.00000000
  ---------------------------------------------------
  free energy    TOTEN  =      -505.74563170 eV

  energy without entropy =     -505.65169550  energy(sigma->0) =     -505.69866360


--------------------------------------------------------------------------------------------------------




--------------------------------------- Iteration      1(   6)  ---------------------------------------


    POTLOK:  cpu time      1.7945: real time      1.8234
    SETDIJ:  cpu time      1.1924: real time      1.1931
    EDDIAG:  cpu time     40.0131: real time     40.0354
     EDDAV:  cpu time    188.7258: real time    188.8300
       DOS:  cpu time      0.0025: real time      0.0025
    CHARGE:  cpu time     22.3858: real time     22.4055
    MIXING:  cpu time      0.0360: real time      0.0360
    --------------------------------------------
      LOOP:  cpu time    254.1500: real time    254.3259

 eigenvalue-minimisations  :  2688
 total energy-change (2. order) :-0.3356156E-02  (-0.7905701E-03)
 number of electron     215.9999999 magnetization 
 augmentation part      -11.9406154 magnetization 

 Broyden mixing:
  rms(total) = 0.13807E-01    rms(broyden)= 0.16924E+00
  rms(prec ) = 0.14616E-01
  weight for this iteration     100.00
  WARNING: grid for Broyden might be to small

 eigenvalues of (default mixing * dielectric matrix)
  average eigenvalue GAMMA=   1.1301
  2.5202  1.0760  0.7922  0.6312  0.6312

 Free energy of the ion-electron system (eV)
  ---------------------------------------------------
  alpha Z        PSCENC =        18.82865207
  Ewald energy   TEWEN  =     22131.13806485
  -Hartree energ DENC   =    -26780.48798526
  -exchange      EXHF   =         0.00000000
  -V(xc)+E(xc)   XCENC  =      -249.41182208
  PAW double counting   =     30387.89274975   -29859.25854346
  entropy T*S    EENTRO =        -0.09427214
  eigenvalues    EBANDS =     -1666.85157609
  atomic energy  EATOM  =      5512.49574450
  Solvation  Ediel_sol  =         0.00000000
  ---------------------------------------------------
  free energy    TOTEN  =      -505.74898785 eV

  energy without entropy =     -505.65471572  energy(sigma->0) =     -505.70185179


--------------------------------------------------------------------------------------------------------




--------------------------------------- Iteration      1(   7)  ---------------------------------------


    POTLOK:  cpu time      1.8752: real time      1.9037
    SETDIJ:  cpu time      1.1849: real time      1.1855
    EDDIAG:  cpu time     40.0350: real time     40.0555
     EDDAV:  cpu time    178.1662: real time    178.2622
       DOS:  cpu time      0.0027: real time      0.0027
    CHARGE:  cpu time     22.4066: real time     22.4272
    MIXING:  cpu time      0.0366: real time      0.0366
    --------------------------------------------
      LOOP:  cpu time    243.7072: real time    243.8734

 eigenvalue-minimisations  :  2432
 total energy-change (2. order) :-0.1310100E-02  (-0.3882179E-03)
 number of electron     215.9999999 magnetization 
 augmentation part      -11.9399990 magnetization 

 Broyden mixing:
  rms(total) = 0.41171E-02    rms(broyden)= 0.22268E+00
  rms(prec ) = 0.53015E-02
  weight for this iteration     100.00
  WARNING: grid for Broyden might be to small

 eigenvalues of (default mixing * dielectric matrix)
  average eigenvalue GAMMA=   1.1406
  2.5476  1.4270  0.8991  0.7110  0.6296  0.6296

 Free energy of the ion-electron system (eV)
  ---------------------------------------------------
  alpha Z        PSCENC =        18.82865207
  Ewald energy   TEWEN  =     22131.13806485
  -Hartree energ DENC   =    -26780.37080578
  -exchange      EXHF   =         0.00000000
  -V(xc)+E(xc)   XCENC  =      -249.37674041
  PAW double counting   =     30402.21296150   -29873.57046320
  entropy T*S    EENTRO =        -0.09394881
  eigenvalues    EBANDS =     -1667.01376267
  atomic energy  EATOM  =      5512.49574450
  Solvation  Ediel_sol  =         0.00000000
  ---------------------------------------------------
  free energy    TOTEN  =      -505.75029795 eV

  energy without entropy =     -505.65634914  energy(sigma->0) =     -505.70332355


--------------------------------------------------------------------------------------------------------




--------------------------------------- Iteration      1(   8)  ---------------------------------------


    POTLOK:  cpu time      1.7960: real time      1.8253
    SETDIJ:  cpu time      1.1828: real time      1.1836
    EDDIAG:  cpu time     40.0169: real time     40.0380
     EDDAV:  cpu time    182.3557: real time    182.4611
       DOS:  cpu time      0.0032: real time      0.0032
    CHARGE:  cpu time     22.3749: real time     22.3973
    MIXING:  cpu time      0.0371: real time      0.0371
    --------------------------------------------
      LOOP:  cpu time    247.7665: real time    247.9456

 eigenvalue-minimisations  :  2536
 total energy-change (2. order) : 0.9613505E-05  (-0.1089135E-03)
 number of electron     215.9999999 magnetization 
 augmentation part      -11.9401084 magnetization 

 Broyden mixing:
  rms(total) = 0.18162E-02    rms(broyden)= 0.45965E-01
  rms(prec ) = 0.21456E-02
  weight for this iteration     100.00
  WARNING: grid for Broyden might be to small

 eigenvalues of (default mixing * dielectric matrix)
  average eigenvalue GAMMA=   1.1815
  2.5422  1.9475  1.0151  0.8553  0.6777  0.6299  0.6028

 Free energy of the ion-electron system (eV)
  ---------------------------------------------------
  alpha Z        PSCENC =        18.82865207
  Ewald energy   TEWEN  =     22131.13806485
  -Hartree energ DENC   =    -26780.20891753
  -exchange      EXHF   =         0.00000000
  -V(xc)+E(xc)   XCENC  =      -249.39532226
  PAW double counting   =     30417.01310081   -29888.36864505
  entropy T*S    EENTRO =        -0.09415234
  eigenvalues    EBANDS =     -1667.15881338
  atomic energy  EATOM  =      5512.49574450
  Solvation  Ediel_sol  =         0.00000000
  ---------------------------------------------------
  free energy    TOTEN  =      -505.75028834 eV

  energy without entropy =     -505.65613600  energy(sigma->0) =     -505.70321217


--------------------------------------------------------------------------------------------------------




--------------------------------------- Iteration      1(   9)  ---------------------------------------


    POTLOK:  cpu time      1.8036: real time      1.8306
    SETDIJ:  cpu time      1.1938: real time      1.1945
    EDDIAG:  cpu time     40.0402: real time     40.0619
     EDDAV:  cpu time    179.1628: real time    179.2645
       DOS:  cpu time      0.0024: real time      0.0024
    CHARGE:  cpu time     22.4016: real time     22.4215
    MIXING:  cpu time      0.0365: real time      0.0374
    --------------------------------------------
      LOOP:  cpu time    244.6411: real time    244.8130

 eigenvalue-minimisations  :  2456
 total energy-change (2. order) :-0.1901495E-04  (-0.4800486E-04)
 number of electron     215.9999999 magnetization 
 augmentation part      -11.9402084 magnetization 

 Broyden mixing:
  rms(total) = 0.97749E-03    rms(broyden)= 0.32197E-01
  rms(prec ) = 0.12585E-02
  weight for this iteration     100.00
  WARNING: grid for Broyden might be to small

 eigenvalues of (default mixing * dielectric matrix)
  average eigenvalue GAMMA=   1.2903
  2.8320  2.6665  1.1987  1.0015  0.7563  0.6627  0.6305  0.5745

 Free energy of the ion-electron system (eV)
  ---------------------------------------------------
  alpha Z        PSCENC =        18.82865207
  Ewald energy   TEWEN  =     22131.13806485
  -Hartree energ DENC   =    -26780.02244514
  -exchange      EXHF   =         0.00000000
  -V(xc)+E(xc)   XCENC  =      -249.40843499
  PAW double counting   =     30415.17701407   -29886.53176668
  entropy T*S    EENTRO =        -0.09414513
  eigenvalues    EBANDS =     -1667.33299090
  atomic energy  EATOM  =      5512.49574450
  Solvation  Ediel_sol  =         0.00000000
  ---------------------------------------------------
  free energy    TOTEN  =      -505.75030736 eV

  energy without entropy =     -505.65616223  energy(sigma->0) =     -505.70323479


--------------------------------------------------------------------------------------------------------




--------------------------------------- Iteration      1(  10)  ---------------------------------------


    POTLOK:  cpu time      1.8029: real time      1.8234
    SETDIJ:  cpu time      1.1940: real time      1.1950
    EDDIAG:  cpu time     40.0312: real time     40.0529
     EDDAV:  cpu time    178.1187: real time    178.2143
       DOS:  cpu time      0.0038: real time      0.0038
    CHARGE:  cpu time     22.3986: real time     22.4186
    MIXING:  cpu time      0.0381: real time      0.0381
    --------------------------------------------
      LOOP:  cpu time    243.5871: real time    243.7458

 eigenvalue-minimisations  :  2432
 total energy-change (2. order) :-0.7139807E-04  (-0.3000171E-04)
 number of electron     215.9999999 magnetization 
 augmentation part      -11.9402615 magnetization 

 Broyden mixing:
  rms(total) = 0.54012E-03    rms(broyden)= 0.28861E-01
  rms(prec ) = 0.81884E-03
  weight for this iteration     100.00
  WARNING: grid for Broyden might be to small

 eigenvalues of (default mixing * dielectric matrix)
  average eigenvalue GAMMA=   1.3790
  3.8721  2.5831  1.4576  1.0740  0.8785  0.7097  0.6404  0.6197  0.5757

 Free energy of the ion-electron system (eV)
  ---------------------------------------------------
  alpha Z        PSCENC =        18.82865207
  Ewald energy   TEWEN  =     22131.13806485
  -Hartree energ DENC   =    -26779.85952364
  -exchange      EXHF   =         0.00000000
  -V(xc)+E(xc)   XCENC  =      -249.41687546
  PAW double counting   =     30413.50153612   -29884.85585419
  entropy T*S    EENTRO =        -0.09413548
  eigenvalues    EBANDS =     -1667.48798752
  atomic energy  EATOM  =      5512.49574450
  Solvation  Ediel_sol  =         0.00000000
  ---------------------------------------------------
  free energy    TOTEN  =      -505.75037875 eV

  energy without entropy =     -505.65624327  energy(sigma->0) =     -505.70331101


--------------------------------------------------------------------------------------------------------




--------------------------------------- Iteration      1(  11)  ---------------------------------------


    POTLOK:  cpu time      1.7955: real time      1.8223
    SETDIJ:  cpu time      1.1928: real time      1.1935
    EDDIAG:  cpu time     40.0259: real time     40.0481
     EDDAV:  cpu time    178.1097: real time    178.2085
       DOS:  cpu time      0.0043: real time      0.0043
    CHARGE:  cpu time     22.3862: real time     22.4052
    MIXING:  cpu time      0.0394: real time      0.0394
    --------------------------------------------
      LOOP:  cpu time    243.5537: real time    243.7212

 eigenvalue-minimisations  :  2432
 total energy-change (2. order) :-0.8109389E-04  (-0.2369195E-04)
 number of electron     215.9999999 magnetization 
 augmentation part      -11.9403111 magnetization 

 Broyden mixing:
  rms(total) = 0.31173E-03    rms(broyden)= 0.12300E-01
  rms(prec ) = 0.52307E-03
  weight for this iteration     100.00
  WARNING: grid for Broyden might be to small

 eigenvalues of (default mixing * dielectric matrix)
  average eigenvalue GAMMA=   1.5293
  5.1192  2.5665  2.0771  1.1140  1.1140  0.8063  0.6867  0.6340  0.6052  0.5702

 Free energy of the ion-electron system (eV)
  ---------------------------------------------------
  alpha Z        PSCENC =        18.82865207
  Ewald energy   TEWEN  =     22131.13806485
  -Hartree energ DENC   =    -26779.69622347
  -exchange      EXHF   =         0.00000000
  -V(xc)+E(xc)   XCENC  =      -249.42179264
  PAW double counting   =     30413.84514804   -29885.19946095
  entropy T*S    EENTRO =        -0.09414001
  eigenvalues    EBANDS =     -1667.64645224
  atomic energy  EATOM  =      5512.49574450
  Solvation  Ediel_sol  =         0.00000000
  ---------------------------------------------------
  free energy    TOTEN  =      -505.75045985 eV

  energy without entropy =     -505.65631984  energy(sigma->0) =     -505.70338984


--------------------------------------------------------------------------------------------------------




--------------------------------------- Iteration      1(  12)  ---------------------------------------


    POTLOK:  cpu time      1.8001: real time      1.8243
    SETDIJ:  cpu time      1.1819: real time      1.1827
    EDDIAG:  cpu time     40.0163: real time     40.0370
     EDDAV:  cpu time    178.1125: real time    178.2068
       DOS:  cpu time      0.0034: real time      0.0034
    CHARGE:  cpu time     22.3764: real time     22.3977
    MIXING:  cpu time      0.0399: real time      0.0399
    --------------------------------------------
      LOOP:  cpu time    243.5305: real time    243.6918

 eigenvalue-minimisations  :  2432
 total energy-change (2. order) :-0.9088378E-04  (-0.1499389E-04)
 number of electron     215.9999999 magnetization 
 augmentation part      -11.9403549 magnetization 

 Broyden mixing:
  rms(total) = 0.20217E-03    rms(broyden)= 0.95810E-02
  rms(prec ) = 0.38579E-03
  weight for this iteration     100.00
  WARNING: grid for Broyden might be to small

 eigenvalues of (default mixing * dielectric matrix)
  average eigenvalue GAMMA=   1.7423
  7.4198  2.6351  2.6351  1.2781  1.1011  0.8652  0.7679  0.6638  0.6238  0.6238
  0.5515

 Free energy of the ion-electron system (eV)
  ---------------------------------------------------
  alpha Z        PSCENC =        18.82865207
  Ewald energy   TEWEN  =     22131.13806485
  -Hartree energ DENC   =    -26779.58049509
  -exchange      EXHF   =         0.00000000
  -V(xc)+E(xc)   XCENC  =      -249.42821503
  PAW double counting   =     30414.21343788   -29885.56804117
  entropy T*S    EENTRO =        -0.09414235
  eigenvalues    EBANDS =     -1667.75555639
  atomic energy  EATOM  =      5512.49574450
  Solvation  Ediel_sol  =         0.00000000
  ---------------------------------------------------
  free energy    TOTEN  =      -505.75055073 eV

  energy without entropy =     -505.65640838  energy(sigma->0) =     -505.70347956


--------------------------------------------------------------------------------------------------------




--------------------------------------- Iteration      1(  13)  ---------------------------------------


    POTLOK:  cpu time      1.7976: real time      1.8281
    SETDIJ:  cpu time      1.1849: real time      1.1853
    EDDIAG:  cpu time     40.0563: real time     40.0783
     EDDAV:  cpu time    178.1669: real time    178.2725
       DOS:  cpu time      0.0030: real time      0.0030
    CHARGE:  cpu time     22.3832: real time     22.4045
    MIXING:  cpu time      0.0397: real time      0.0404
    --------------------------------------------
      LOOP:  cpu time    243.6317: real time    243.8122

 eigenvalue-minimisations  :  2432
 total energy-change (2. order) :-0.1099681E-03  (-0.1941279E-04)
 number of electron     215.9999999 magnetization 
 augmentation part      -11.9403882 magnetization 

 Broyden mixing:
  rms(total) = 0.13492E-03    rms(broyden)= 0.78082E-02
  rms(prec ) = 0.25441E-03
  weight for this iteration     100.00
  WARNING: grid for Broyden might be to small

 eigenvalues of (default mixing * dielectric matrix)
  average eigenvalue GAMMA=   1.8638
  9.2456  2.7586  2.7586  1.4437  1.0853  1.0853  0.8429  0.7036  0.6509  0.6165
  0.6165  0.5585

 Free energy of the ion-electron system (eV)
  ---------------------------------------------------
  alpha Z        PSCENC =        18.82865207
  Ewald energy   TEWEN  =     22131.13806485
  -Hartree energ DENC   =    -26779.42534114
  -exchange      EXHF   =         0.00000000
  -V(xc)+E(xc)   XCENC  =      -249.43135450
  PAW double counting   =     30413.99534825   -29885.35021962
  entropy T*S    EENTRO =        -0.09414296
  eigenvalues    EBANDS =     -1667.90741215
  atomic energy  EATOM  =      5512.49574450
  Solvation  Ediel_sol  =         0.00000000
  ---------------------------------------------------
  free energy    TOTEN  =      -505.75066070 eV

  energy without entropy =     -505.65651774  energy(sigma->0) =     -505.70358922


--------------------------------------------------------------------------------------------------------




--------------------------------------- Iteration      1(  14)  ---------------------------------------


    POTLOK:  cpu time      1.8266: real time      1.8275
    SETDIJ:  cpu time      1.1864: real time      1.1871
    EDDIAG:  cpu time     40.0513: real time     40.0722
     EDDAV:  cpu time    182.7844: real time    182.8886
       DOS:  cpu time      0.0022: real time      0.0022
    CHARGE:  cpu time     22.3913: real time     22.4122
    MIXING:  cpu time      0.0409: real time      0.0409
    --------------------------------------------
      LOOP:  cpu time    248.2830: real time    248.4308

 eigenvalue-minimisations  :  2544
 total energy-change (2. order) :-0.1029099E-03  (-0.1171522E-04)
 number of electron     215.9999999 magnetization 
 augmentation part      -11.9404087 magnetization 

 Broyden mixing:
  rms(total) = 0.10218E-03    rms(broyden)= 0.48676E-02
  rms(prec ) = 0.16669E-03
  weight for this iteration     100.00
  WARNING: grid for Broyden might be to small

 eigenvalues of (default mixing * dielectric matrix)
  average eigenvalue GAMMA=   1.8435
  9.6554  2.8101  2.8101  1.6027  1.2648  1.0679  0.8208  0.8208  0.6921  0.6386
  0.6293  0.5914  0.5617

 Free energy of the ion-electron system (eV)
  ---------------------------------------------------
  alpha Z        PSCENC =        18.82865207
  Ewald energy   TEWEN  =     22131.13806485
  -Hartree energ DENC   =    -26779.31348723
  -exchange      EXHF   =         0.00000000
  -V(xc)+E(xc)   XCENC  =      -249.43303232
  PAW double counting   =     30414.01823246   -29885.37322190
  entropy T*S    EENTRO =        -0.09414371
  eigenvalues    EBANDS =     -1668.01757233
  atomic energy  EATOM  =      5512.49574450
  Solvation  Ediel_sol  =         0.00000000
  ---------------------------------------------------
  free energy    TOTEN  =      -505.75076361 eV

  energy without entropy =     -505.65661990  energy(sigma->0) =     -505.70369176


--------------------------------------------------------------------------------------------------------




--------------------------------------- Iteration      1(  15)  ---------------------------------------


    POTLOK:  cpu time      1.8012: real time      1.8264
    SETDIJ:  cpu time      1.1885: real time      1.1892
    EDDIAG:  cpu time     40.0462: real time     40.0677
     EDDAV:  cpu time    180.9401: real time    181.0371
       DOS:  cpu time      0.0024: real time      0.0024
    CHARGE:  cpu time     22.3688: real time     22.3885
    MIXING:  cpu time      0.0417: real time      0.0417
    --------------------------------------------
      LOOP:  cpu time    246.3890: real time    246.5532

 eigenvalue-minimisations  :  2496
 total energy-change (2. order) :-0.5335642E-04  (-0.5913662E-05)
 number of electron     215.9999999 magnetization 
 augmentation part      -11.9404222 magnetization 

 Broyden mixing:
  rms(total) = 0.68063E-04    rms(broyden)= 0.30502E-02
  rms(prec ) = 0.10701E-03
  weight for this iteration     100.00
  WARNING: grid for Broyden might be to small

 eigenvalues of (default mixing * dielectric matrix)
  average eigenvalue GAMMA=   1.8480
  9.8839  3.1525  2.6566  2.0283  1.4243  1.0321  0.9476  0.9476  0.7377  0.6785
  0.6255  0.6255  0.5811  0.5506

 Free energy of the ion-electron system (eV)
  ---------------------------------------------------
  alpha Z        PSCENC =        18.82865207
  Ewald energy   TEWEN  =     22131.13806485
  -Hartree energ DENC   =    -26779.24750495
  -exchange      EXHF   =         0.00000000
  -V(xc)+E(xc)   XCENC  =      -249.43370633
  PAW double counting   =     30414.10028575   -29885.45532206
  entropy T*S    EENTRO =        -0.09414330
  eigenvalues    EBANDS =     -1668.08288750
  atomic energy  EATOM  =      5512.49574450
  Solvation  Ediel_sol  =         0.00000000
  ---------------------------------------------------
  free energy    TOTEN  =      -505.75081697 eV

  energy without entropy =     -505.65667367  energy(sigma->0) =     -505.70374532


--------------------------------------------------------------------------------------------------------




--------------------------------------- Iteration      1(  16)  ---------------------------------------


    POTLOK:  cpu time      1.8239: real time      1.8251
    SETDIJ:  cpu time      1.1794: real time      1.1802
    EDDIAG:  cpu time     40.0089: real time     40.0319
     EDDAV:  cpu time    177.0799: real time    177.1811
       DOS:  cpu time      0.0107: real time      0.0110
    CHARGE:  cpu time     22.3930: real time     22.4145
    MIXING:  cpu time      0.0617: real time      0.0620
    --------------------------------------------
      LOOP:  cpu time    242.5575: real time    242.7057

 eigenvalue-minimisations  :  2400
 total energy-change (2. order) :-0.3156033E-04  (-0.4085966E-05)
 number of electron     215.9999999 magnetization 
 augmentation part      -11.9404335 magnetization 

 Broyden mixing:
  rms(total) = 0.39581E-04    rms(broyden)= 0.18903E-02
  rms(prec ) = 0.61655E-04
  weight for this iteration     100.00
  WARNING: grid for Broyden might be to small

 eigenvalues of (default mixing * dielectric matrix)
  average eigenvalue GAMMA=   1.8240
  9.9511  3.2738  2.6262  2.3229  1.3851  1.1784  1.1255  0.8685  0.8685  0.7161
  0.6616  0.6301  0.6193  0.5533  0.5802

 Free energy of the ion-electron system (eV)
  ---------------------------------------------------
  alpha Z        PSCENC =        18.82865207
  Ewald energy   TEWEN  =     22131.13806485
  -Hartree energ DENC   =    -26779.19984556
  -exchange      EXHF   =         0.00000000
  -V(xc)+E(xc)   XCENC  =      -249.43432622
  PAW double counting   =     30414.05978872   -29885.41483611
  entropy T*S    EENTRO =        -0.09414491
  eigenvalues    EBANDS =     -1668.12994587
  atomic energy  EATOM  =      5512.49574450
  Solvation  Ediel_sol  =         0.00000000
  ---------------------------------------------------
  free energy    TOTEN  =      -505.75084853 eV

  energy without entropy =     -505.65670362  energy(sigma->0) =     -505.70377607


--------------------------------------------------------------------------------------------------------




--------------------------------------- Iteration      1(  17)  ---------------------------------------


    POTLOK:  cpu time      1.8263: real time      1.8287
    SETDIJ:  cpu time      1.1946: real time      1.1964
    EDDIAG:  cpu time     40.0613: real time     40.0817
     EDDAV:  cpu time    179.4965: real time    179.5986
       DOS:  cpu time      0.0022: real time      0.0022
    CHARGE:  cpu time     22.3501: real time     22.3913
    MIXING:  cpu time      0.0442: real time      0.0443
    --------------------------------------------
      LOOP:  cpu time    244.9752: real time    245.1432

 eigenvalue-minimisations  :  2464
 total energy-change (2. order) :-0.6582559E-05  (-0.1310621E-05)
 number of electron     215.9999999 magnetization 
 augmentation part      -11.9404364 magnetization 

 Broyden mixing:
  rms(total) = 0.27241E-04    rms(broyden)= 0.13371E-02
  rms(prec ) = 0.43397E-04
  weight for this iteration     100.00
  WARNING: grid for Broyden might be to small

 eigenvalues of (default mixing * dielectric matrix)
  average eigenvalue GAMMA=   1.8042
  9.9763  3.3804  2.5896  2.5896  1.4768  1.4768  1.0683  0.9209  0.9209  0.7537
  0.6884  0.6440  0.6278  0.6202  0.5554  0.5784

 Free energy of the ion-electron system (eV)
  ---------------------------------------------------
  alpha Z        PSCENC =        18.82865207
  Ewald energy   TEWEN  =     22131.13806485
  -Hartree energ DENC   =    -26779.18640325
  -exchange      EXHF   =         0.00000000
  -V(xc)+E(xc)   XCENC  =      -249.43438967
  PAW double counting   =     30414.00224526   -29885.35726969
  entropy T*S    EENTRO =        -0.09414469
  eigenvalues    EBANDS =     -1668.14335448
  atomic energy  EATOM  =      5512.49574450
  Solvation  Ediel_sol  =         0.00000000
  ---------------------------------------------------
  free energy    TOTEN  =      -505.75085511 eV

  energy without entropy =     -505.65671042  energy(sigma->0) =     -505.70378276


--------------------------------------------------------------------------------------------------------




--------------------------------------- Iteration      1(  18)  ---------------------------------------


    POTLOK:  cpu time      1.8071: real time      1.8362
    SETDIJ:  cpu time      1.1855: real time      1.1865
    EDDIAG:  cpu time     40.0705: real time     40.0917
     EDDAV:  cpu time    173.6668: real time    173.7673
       DOS:  cpu time      0.0035: real time      0.0035
    CHARGE:  cpu time     22.3842: real time     22.4036
    MIXING:  cpu time      0.0445: real time      0.0445
    --------------------------------------------
      LOOP:  cpu time    239.1622: real time    239.3333

 eigenvalue-minimisations  :  2320
 total energy-change (2. order) :-0.1668162E-05  (-0.8180075E-06)
 number of electron     215.9999999 magnetization 
 augmentation part      -11.9404368 magnetization 

 Broyden mixing:
  rms(total) = 0.17206E-04    rms(broyden)= 0.73840E-03
  rms(prec ) = 0.27172E-04
  weight for this iteration     100.00
  WARNING: grid for Broyden might be to small

 eigenvalues of (default mixing * dielectric matrix)
  average eigenvalue GAMMA=   1.7861
  9.9851  3.5418  2.6730  2.6730  1.7922  1.3564  1.1442  0.9508  0.9508  0.8992
  0.7443  0.6714  0.6291  0.6291  0.6069  0.5521  0.5642

 Free energy of the ion-electron system (eV)
  ---------------------------------------------------
  alpha Z        PSCENC =        18.82865207
  Ewald energy   TEWEN  =     22131.13806485
  -Hartree energ DENC   =    -26779.17968488
  -exchange      EXHF   =         0.00000000
  -V(xc)+E(xc)   XCENC  =      -249.43431240
  PAW double counting   =     30413.98907624   -29885.34408277
  entropy T*S    EENTRO =        -0.09414392
  eigenvalues    EBANDS =     -1668.15017045
  atomic energy  EATOM  =      5512.49574450
  Solvation  Ediel_sol  =         0.00000000
  ---------------------------------------------------
  free energy    TOTEN  =      -505.75085678 eV

  energy without entropy =     -505.65671286  energy(sigma->0) =     -505.70378482


--------------------------------------------------------------------------------------------------------




--------------------------------------- Iteration      1(  19)  ---------------------------------------


    POTLOK:  cpu time      1.8213: real time      1.8336
    SETDIJ:  cpu time      1.1877: real time      1.1881
    EDDIAG:  cpu time     40.0662: real time     40.0861
     EDDAV:  cpu time    171.0309: real time    171.1255
       DOS:  cpu time      0.0032: real time      0.0032
[...]
--------------------------------------------------
tot         43.529  47.018   0.000  90.546

    CHARGE:  cpu time      5.6396: real time      5.6452
    FORLOC:  cpu time      0.1590: real time      0.1590
    FORNL :  cpu time     29.4445: real time     29.4601
    STRESS:  cpu time    368.0251: real time    368.3691
    FORCOR:  cpu time      1.8753: real time      1.8767
    FORHAR:  cpu time      0.5045: real time      0.5053
    MIXING:  cpu time      0.0437: real time      0.0438
    OFIELD:  cpu time      0.0024: real time      0.0024

  FORCE on cell =-STRESS in cart. coord.  units (eV):
  Direction    XX          YY          ZZ          XY          YZ          ZX
  --------------------------------------------------------------------------------------
  Alpha Z    18.82865    18.82865    18.82865
  Ewald   25814.97850 26002.27189-29686.13090    -8.88039    -2.17831    50.10569
  Hartree 26221.21743 26269.19262-25711.23453    -3.79448    -9.42044    17.37075
  E(xc)    -649.43458  -650.11997  -646.67737    -0.37767     0.02468    -0.03644
  Local  -54631.64618-54857.90044 52834.03668    12.43216    10.97896   -70.86862
  n-local  2018.12114  2030.82876  1931.84483     4.00504     1.71823     3.51857
  augment  -295.44475  -295.29865  -289.71482    -0.10547    -0.33657    -0.50362
  Kinetic  1491.15846  1466.84136  1550.95126    -2.40199     1.52535    -0.41453
  Fock        0.00000     0.00000     0.00000     0.00000     0.00000     0.00000
  -------------------------------------------------------------------------------------
  Total     -12.22133   -15.35578     1.90380     0.87719     2.31190    -0.82820
  in kB      -3.74488    -4.70535     0.58336     0.26879     0.70842    -0.25378
  external pressure =       -2.62 kB  Pullay stress =        0.00 kB


 VOLUME and BASIS-vectors are now :
 -----------------------------------------------------------------------------
  energy-cutoff  :     1200.00
  volume of cell :     5228.67
      direct lattice vectors                 reciprocal lattice vectors
    14.534204238  0.000000000  0.000000000     0.068803216  0.000000000  0.000000000
     0.000000000 14.534204238  0.000000000     0.000000000  0.068803216  0.000000000
     0.000000000  0.000000000 24.751890000     0.000000000  0.000000000  0.040400955

  length of vectors
    14.534204238 14.534204238 24.751890000     0.068803216  0.068803216  0.040400955


 FORCES acting on ions
    electron-ion (+dipol)            ewald-force                    non-local-force                 convergence-correction
 -----------------------------------------------------------------------------------------------
   -.649E+01 -.138E+02 0.286E+02   0.719E+01 0.164E+02 -.286E+02   -.725E+00 -.278E+01 -.563E-01   -.517E-05 0.443E-05 0.675E-05
   -.744E+01 0.925E+01 0.720E+02   0.830E+01 -.111E+02 -.747E+02   -.806E+00 0.164E+01 0.259E+01   0.960E-06 0.362E-05 -.573E-05
   0.268E+00 0.342E+01 0.720E+02   -.484E-01 -.430E+01 -.749E+02   -.172E+00 0.860E+00 0.297E+01   -.609E-05 0.234E-05 0.657E-05
   -.103E+02 -.177E+02 0.461E+02   0.113E+02 0.205E+02 -.466E+02   -.110E+01 -.289E+01 0.588E+00   -.360E-06 0.279E-05 -.386E-06
   0.445E+02 -.163E+02 -.202E+03   -.444E+02 0.172E+02 0.202E+03   -.613E-01 -.875E+00 -.238E+00   0.222E-04 0.653E-05 0.343E-04
   0.170E+02 0.865E+01 -.131E+03   -.168E+02 -.988E+01 0.129E+03   -.347E+00 0.953E+00 0.220E+01   -.608E-04 -.146E-04 0.352E-04
   -.108E+02 -.158E+02 0.852E+02   0.101E+02 0.163E+02 -.843E+02   0.320E+00 -.555E+00 -.892E+00   -.567E-04 -.198E-04 0.147E-04
   0.935E+01 -.207E+02 0.170E+03   -.889E+01 0.198E+02 -.171E+03   -.396E+00 0.787E+00 0.137E+00   -.154E-04 -.223E-04 -.123E-04
   0.422E+01 0.515E+01 0.202E+03   -.361E+01 -.346E+01 -.199E+03   -.777E+00 -.121E+01 -.314E+01   0.691E-05 0.807E-05 0.926E-05
   -.126E+01 0.323E+02 -.211E+03   0.700E+00 -.332E+02 0.209E+03   0.259E+00 0.932E+00 0.167E+01   -.199E-05 -.404E-05 0.338E-04
   -.706E+01 -.188E+02 -.117E+03   0.600E+01 0.161E+02 0.115E+03   0.151E+01 0.201E+01 0.147E+01   0.210E-04 -.145E-04 0.298E-04
   0.305E+00 -.703E+01 -.210E+03   0.189E+01 0.691E+01 0.209E+03   -.233E+01 0.452E+00 0.164E+00   -.579E-04 -.314E-04 0.505E-05
   -.129E+00 -.134E+02 -.868E+01   0.156E+01 0.117E+02 0.816E+01   -.112E+01 0.181E+01 0.365E+00   0.976E-05 -.232E-04 0.223E-04
   -.217E+02 -.395E+02 0.183E+03   0.206E+02 0.402E+02 -.185E+03   0.804E+00 -.504E+00 0.108E+01   0.391E-04 -.601E-05 -.153E-04
   -.360E+02 0.146E+02 0.156E+03   0.338E+02 -.132E+02 -.155E+03   0.232E+01 -.888E+00 -.785E+00   0.242E-04 -.836E-05 -.174E-04
   -.406E+01 -.224E+02 -.199E+03   0.254E+01 0.224E+02 0.203E+03   0.157E+01 0.198E+00 -.349E+01   -.133E-04 0.451E-04 0.658E-04
   -.316E+02 0.773E+00 -.152E+03   0.315E+02 -.132E+01 0.149E+03   0.254E+00 0.579E+00 0.304E+01   0.558E-04 0.158E-04 0.176E-04
   -.193E+02 0.422E+02 -.209E+03   0.186E+02 -.391E+02 0.207E+03   0.770E+00 -.245E+01 0.106E+01   0.122E-04 -.144E-04 0.529E-04
   -.345E+02 0.638E+01 0.795E+02   0.334E+02 -.596E+01 -.779E+02   0.128E+01 -.346E+00 -.179E+01   0.371E-04 0.835E-05 0.679E-05
   -.290E+02 0.937E+01 -.150E+03   0.275E+02 -.763E+01 0.147E+03   0.130E+01 -.135E+01 0.278E+01   -.169E-04 0.254E-04 0.362E-04
   0.116E+02 -.341E+02 -.617E+02   -.925E+01 0.340E+02 0.619E+02   -.249E+01 0.290E+00 0.137E+00   0.216E-04 0.110E-04 0.294E-04
   0.157E+02 -.673E+01 -.127E+03   -.169E+02 0.384E+01 0.126E+03   0.101E+01 0.262E+01 0.259E+00   -.420E-04 -.267E-04 0.283E-04
   0.458E+02 0.335E+01 -.142E+03   -.444E+02 -.221E+01 0.143E+03   -.122E+01 -.797E+00 0.464E+00   0.797E-05 0.589E-05 0.547E-04
   0.180E+02 0.970E+00 0.236E+03   -.186E+02 -.136E+01 -.237E+03   0.324E+00 0.575E+00 -.119E-01   -.141E-04 0.242E-04 -.606E-04
   0.412E+02 0.148E+02 0.177E+03   -.455E+02 -.157E+02 -.178E+03   0.354E+01 0.706E+00 0.454E+00   -.153E-04 -.163E-04 0.851E-05
   0.696E+00 -.632E+01 -.203E+03   -.267E+01 0.522E+01 0.203E+03   0.155E+01 0.114E+01 0.151E-01   -.110E-04 0.170E-05 0.869E-04
   -.585E+02 0.104E+02 -.189E+03   0.598E+02 -.932E+01 0.189E+03   -.115E+01 -.123E+01 0.654E+00   0.421E-04 -.394E-06 0.440E-04
   -.199E+01 -.269E+00 -.878E+02   0.307E+01 0.114E+01 0.857E+02   -.106E+01 -.743E+00 0.199E+01   -.344E-04 0.202E-04 0.742E-04
   -.131E+02 0.233E+01 0.142E+03   0.138E+02 -.111E+01 -.144E+03   -.522E+00 -.121E+01 0.171E+01   -.520E-06 0.135E-04 0.806E-05
   0.307E+02 0.959E+01 0.923E+02   -.282E+02 -.804E+01 -.925E+02   -.234E+01 -.172E+01 0.259E-01   -.400E-05 0.236E-04 0.247E-04
   0.186E+01 0.353E+02 -.785E+02   -.341E+01 -.339E+02 0.787E+02   0.105E+01 -.187E+01 0.218E-01   0.216E-04 -.195E-04 0.380E-04
   -.168E+02 0.896E+00 0.145E+03   0.191E+02 0.166E+00 -.143E+03   -.190E+01 -.121E+01 -.190E+01   0.429E-04 0.136E-04 -.103E-04
   0.213E+02 -.583E+01 0.544E+02   -.207E+02 0.625E+01 -.554E+02   -.347E+00 -.526E+00 0.715E+00   -.138E-04 -.580E-04 0.205E-04
   -.217E+02 0.345E+02 0.163E+03   0.214E+02 -.343E+02 -.166E+03   0.360E+00 -.272E+00 0.223E+01   0.172E-04 -.917E-05 0.896E-05
   -.224E+02 -.203E+02 -.151E+03   0.234E+02 0.197E+02 0.149E+03   -.721E+00 0.235E+00 0.211E+01   -.312E-04 -.233E-04 0.331E-04
   0.507E+01 0.132E+02 -.529E+01   -.626E+01 -.137E+02 0.619E+01   0.976E+00 0.387E+00 -.715E+00   0.205E-04 -.111E-04 0.249E-04
   0.182E+02 0.175E+02 -.933E+02   -.174E+02 -.159E+02 0.921E+02   -.607E+00 -.153E+01 0.956E+00   -.618E-04 0.328E-04 0.514E-04
   0.188E+02 -.699E+01 -.126E+03   -.171E+02 0.530E+01 0.126E+03   -.164E+01 0.154E+01 0.776E+00   -.443E-04 0.254E-04 0.206E-04
   0.213E+02 -.109E+02 0.131E+03   -.208E+02 0.118E+02 -.127E+03   -.296E+00 -.860E+00 -.299E+01   0.174E-04 0.230E-04 0.152E-04
   -.381E+01 0.229E+02 0.131E+03   0.535E+01 -.199E+02 -.129E+03   -.175E+01 -.251E+01 -.222E+01   -.198E-04 0.912E-05 0.132E-04
   0.247E+02 0.801E+01 -.244E+03   -.247E+02 -.701E+01 0.243E+03   -.230E+00 -.111E+01 0.200E+01   -.405E-04 0.176E-04 0.672E-04
   -.271E+02 0.100E+02 -.207E+03   0.281E+02 -.957E+01 0.207E+03   -.943E+00 -.134E+00 0.385E+00   0.456E-04 -.136E-04 0.322E-04
   0.293E+01 -.303E+02 0.203E+03   -.216E+01 0.299E+02 -.202E+03   -.453E+00 0.209E+00 -.144E+01   0.112E-04 0.126E-04 0.177E-05
   -.162E+02 0.128E+01 0.729E+02   0.151E+02 -.911E-01 -.728E+02   0.111E+01 -.111E+01 -.390E+00   -.214E-04 -.224E-04 0.141E-04
   0.226E+02 0.810E+00 0.663E-01   -.219E+02 -.221E+01 0.364E+00   -.881E+00 0.139E+01 -.510E+00   0.157E-04 -.499E-05 0.207E-04
   0.562E+01 0.249E+02 0.274E+02   -.547E+01 -.256E+02 -.259E+02   0.275E-01 0.337E+00 -.110E+01   0.115E-04 -.359E-04 0.122E-04
   0.477E+01 0.713E+01 0.219E+03   -.494E+01 -.900E+01 -.222E+03   0.156E+00 0.157E+01 0.234E+01   0.292E-05 -.743E-05 -.108E-04
   0.134E+02 0.179E+01 0.995E+02   -.155E+02 -.289E+01 -.102E+03   0.197E+01 0.116E+01 0.203E+01   -.330E-04 0.270E-05 0.388E-04
   0.382E+01 0.120E+02 0.201E+03   -.365E+01 -.119E+02 -.203E+03   -.208E+00 -.951E-01 0.153E+01   -.400E-04 -.235E-05 -.182E-04
   0.166E+02 0.253E+02 0.115E+03   -.169E+02 -.257E+02 -.116E+03   0.313E+00 0.482E+00 0.131E+01   0.320E-05 -.857E-05 0.184E-05
   -.406E+02 -.246E+01 0.149E+03   0.378E+02 0.203E+01 -.146E+03   0.264E+01 0.260E+00 -.279E+01   0.181E-04 0.245E-04 -.160E-04
   0.133E+02 -.476E-01 0.154E+03   -.129E+02 -.122E+00 -.152E+03   -.108E+00 0.149E+00 -.185E+01   -.233E-04 0.303E-04 -.226E-04
   -.390E+02 -.958E+01 -.164E+03   0.384E+02 0.906E+01 0.161E+03   0.555E+00 0.479E+00 0.329E+01   0.320E-04 0.116E-04 0.278E-04
   -.699E+01 -.199E+02 -.192E+01   0.495E+01 0.187E+02 0.121E+01   0.201E+01 0.112E+01 0.826E+00   0.127E-04 0.151E-04 0.324E-04
   0.135E+02 -.219E+02 -.156E+03   -.113E+02 0.223E+02 0.157E+03   -.199E+01 -.216E+00 -.546E+00   0.145E-05 0.821E-06 0.366E-04
   0.183E+02 -.335E+02 -.885E+02   -.180E+02 0.349E+02 0.879E+02   -.125E+00 -.916E+00 -.158E-01   0.290E-04 0.182E-04 0.628E-04
   0.226E+02 0.137E+02 0.899E+02   -.230E+02 -.131E+02 -.888E+02   0.967E-01 -.962E+00 -.923E+00   -.171E-04 0.176E-04 -.751E-05
 -----------------------------------------------------------------------------------------------
   0.737E+00 0.801E+01 -.186E+02   0.117E-12 -.249E-13 -.412E-12   -.739E+00 -.801E+01 0.186E+02   -.983E-04 0.590E-04 0.111E-02


 POSITION                                       TOTAL-FORCE (eV/Angst)
 -----------------------------------------------------------------------------------
      9.76108     10.87732     11.68390        -0.018763     -0.165507     -0.003307
      9.72151     12.65941     10.08678         0.052446     -0.252893     -0.173917
     10.06942      3.01750     10.43126         0.047020     -0.019878      0.086100
      9.85625      0.27907     11.02449        -0.015459     -0.040555      0.117269
      5.25990      9.02364     14.29865         0.221394     -0.175751      0.322855
     10.94208      2.20634     13.70070        -0.055140     -0.187840      0.084863
     12.25953      4.68717     12.05407        -0.337799     -0.121402      0.109105
     13.85220      3.09597     11.36657         0.054680     -0.097639      0.138188
      6.71628      1.27074     10.78540        -0.280476      0.470714     -0.040114
      7.13533      7.54665     14.34994        -0.314208      0.182056     -0.256537
      3.42413      5.79882     13.65408         0.464148     -0.631987      0.076201
     11.14369      4.60125     14.20566        -0.313803      0.382951     -0.450928
      5.97330      3.96157     12.63462         0.276575      0.174179     -0.156756
      1.45574      3.92073     11.25642        -0.409416      0.048259     -0.177669
      1.83140     10.69083     11.25048         0.223988      0.417971     -0.064733
      8.71967     10.93206     14.35605         0.124573      0.070467      0.445225
      2.72804      2.37997     13.76189         0.064294      0.054208      0.142628
      1.12525     11.32173     14.55147         0.117065      0.622278     -0.424947
      3.49143     12.20725     11.93083         0.176765      0.074892     -0.282773
      9.18319      8.66749     13.85095        -0.184004      0.300198      0.096338
      1.27112      5.47476     13.05804        -0.257277      0.093739      0.274702
     13.24968      1.83492     13.49712        -0.120169     -0.103694      0.037901
      7.58076      0.48348     13.55003         0.300082      0.360853      0.482242
     14.45808     11.72572     10.44485        -0.120078      0.228164     -0.015311
     13.01094      0.94734     11.21211        -0.281806      0.001235     -0.097595
      9.73947      0.26257     14.41217        -0.391811      0.121821     -0.018690
      3.13222     12.50420     14.25998        -0.132759     -0.187840      0.167783
     10.09355     12.70150     13.38189        -0.023603      0.102382      0.028102
      9.34812     13.43964     11.28683         0.198052     -0.028583     -0.228969
      7.06496     13.69970     11.63893         0.044746     -0.209965     -0.112237
      0.46314      9.74736     12.99315        -0.405077     -0.496998      0.106454
      3.00596      2.14207     11.43049         0.205963     -0.197892     -0.068372
      9.42533      5.65763     12.38012         0.221683     -0.234590     -0.107079
      2.06643      8.39500     11.30232         0.070310      0.087986     -0.024265
     10.85050      6.98149     13.70980         0.122903     -0.462654      0.197480
      0.21097      7.46078     12.50950        -0.102275     -0.105764      0.091198
     12.15605     11.73057     13.46656         0.254182      0.031100     -0.221549
     14.38439     14.32752     13.67859         0.076466     -0.051386      0.097642
      5.78809     11.76533     11.50125         0.294612     -0.041495      0.411947
      9.39122      9.42378     11.61222        -0.281160      0.468115      0.059205
     13.71925     12.52053     14.92973        -0.094721     -0.204906      0.245490
      4.44698      3.88836     14.40334        -0.116824      0.390667      0.080891
      5.07690      2.88018     10.75466         0.314430     -0.443562     -0.008628
     12.48641      7.03009     12.00402         0.050562      0.001615     -0.241845
      3.91221      7.85283     12.73651        -0.248634      0.015259     -0.098363
      7.11809      6.00006     12.60437         0.197761     -0.287244      0.465852
      7.10245      9.79095     10.82463        -0.024555     -0.210420     -0.192081
      9.98372      3.43729     11.86509         0.022033      0.172798     -0.283684
     11.57256      8.80800     10.82068        -0.009154     -0.063631     -0.116397
      6.11634      8.03649     12.00398         0.127971      0.191542      0.040216
      2.46455     14.35679     11.49800        -0.112875     -0.138014      0.366885
      0.17555     13.83785     11.36447         0.247054     -0.005182     -0.195151
      2.19284      0.09799     13.87080         0.007877     -0.019775     -0.111175
      7.78979      2.50596     12.43628         0.016511     -0.088712      0.114892
      0.56337      3.36709     13.67578         0.207806      0.173356     -0.198970
      6.68144     10.54219     13.25015         0.121825      0.392840     -0.658015
     13.02265     10.42659     11.78212        -0.273929     -0.355888      0.142401
 -----------------------------------------------------------------------------------
    total drift:                               -0.002022     -0.001670      0.008076


--------------------------------------------------------------------------------------------------------



  FREE ENERGIE OF THE ION-ELECTRON SYSTEM (eV)
  ---------------------------------------------------
  free  energy   TOTEN  =      -505.75085667 eV

  energy  without entropy=     -505.65671210  energy(sigma->0) =     -505.70378438



--------------------------------------------------------------------------------------------------------


    POTLOK:  cpu time      2.9817: real time      2.9835


--------------------------------------------------------------------------------------------------------


     LOOP+:  cpu time   5032.5209: real time   5036.0649
    4ORBIT:  cpu time      0.0000: real time      0.0000



 total charge

# of ion       s       p       d       tot
------------------------------------------
    1        0.569   0.018   0.000   0.586
    2        0.581   0.015   0.000   0.597
    3        0.564   0.015   0.000   0.580
    4        0.570   0.016   0.000   0.586
    5        0.821   0.828   0.000   1.649
    6        0.781   0.836   0.000   1.617
    7        0.772   0.882   0.000   1.654
    8        0.777   0.892   0.000   1.669
    9        0.795   0.874   0.000   1.670
   10        0.800   0.854   0.000   1.654
   11        0.779   0.909   0.000   1.689
   12        0.817   0.781   0.000   1.598
   13        0.755   0.916   0.000   1.672
   14        0.812   0.854   0.000   1.666
   15        0.771   0.915   0.000   1.686
   16        0.814   0.814   0.000   1.629
   17        0.763   0.908   0.000   1.670
   18        0.794   0.863   0.000   1.657
   19        0.757   0.884   0.000   1.641
   20        0.764   0.894   0.000   1.658
   21        0.758   0.947   0.000   1.705
   22        0.757   0.916   0.000   1.673
   23        0.797   0.860   0.000   1.657
   24        0.803   0.868   0.000   1.671
   25        0.841   0.796   0.000   1.637
   26        0.786   0.861   0.000   1.647
   27        0.807   0.833   0.000   1.640
   28        0.750   0.925   0.000   1.675
   29        0.746   0.983   0.000   1.729
   30        0.754   0.941   0.000   1.694
   31        0.765   0.900   0.000   1.664
   32        0.766   0.917   0.000   1.683
   33        0.770   0.896   0.000   1.666
   34        0.810   0.832   0.000   1.642
   35        0.788   0.851   0.000   1.639
   36        0.755   0.924   0.000   1.679
   37        0.780   0.898   0.000   1.678
   38        0.771   0.895   0.000   1.667
   39        0.757   0.913   0.000   1.671
   40        0.770   0.887   0.000   1.658
   41        0.789   0.897   0.000   1.686
   42        0.802   0.855   0.000   1.657
   43        0.801   0.875   0.000   1.677
   44        0.759   0.910   0.000   1.669
   45        0.749   0.927   0.000   1.677
   46        0.761   0.923   0.000   1.684
   47        0.791   0.845   0.000   1.636
   48        0.729   0.922   0.000   1.651
   49        0.809   0.841   0.000   1.650
   50        0.769   0.882   0.000   1.651
   51        0.765   0.899   0.000   1.664
   52        0.759   0.927   0.000   1.686
   53        0.772   0.902   0.000   1.674
   54        0.781   0.911   0.000   1.692
   55        0.774   0.876   0.000   1.651
   56        0.774   0.894   0.000   1.668
   57        0.753   0.920   0.000   1.673
--------------------------------------------------
tot         43.529  47.018   0.000  90.546


 total amount of memory used by VASP MPI-rank0   329879. kBytes
=======================================================================

   base                                    :      30000. kBytes
   nonl-proj                               :      59814. kBytes
   fftplans                                :      95287. kBytes
   grid                                    :      73508. kBytes
   one-center                              :         12. kBytes
   wavefun                                 :      71258. kBytes

  
  
 General timing and accounting informations for this job:
 ========================================================
  
                  Total CPU time used (sec):     5165.514
                            User time (sec):     4548.546
                          System time (sec):      616.968
                         Elapsed time (sec):     5169.073
  
                   Maximum memory used (kb):      577144.
                   Average memory used (kb):          N/A
  
                          Minor page faults:     10325557
                          Major page faults:         1155
                 Voluntary context switches:         2870
