 vasp.6.5.0 16Dec24 (build Jan 20 2025 08:32:48) complex                         
 executed on        HPECrayEX_GCC date 2025.07.21  23:29:04
 running  128 mpi-ranks, with    1 threads/rank, on    1 nodes
 distrk:  each k-point on  128 cores,    1 groups
 distr:  one band on NCORE=  16 cores,    8 groups


--------------------------------------------------------------------------------------------------------


 INCAR:
   SYSTEM = a-Si SPC
   NCORE = 16
   ISTART = 1
   ICHARG = 1
   ISPIN = 1
   ISYM = 1
   EDIFF = 1E-6
   NELM = 150
   EDIFFG = -0.01
   NSW = 0
   ISIF = 2
   IBRION = -1
   PREC = Accurate
   ENCUT = 1200
   KSPACING = 0.23
   KGAMMA = .TRUE.
   METAGGA = SCAN
   LASPH = .TRUE.
   LDIAG = .FALSE.
   LMIXTAU = .TRUE.
   ADDGRID = .TRUE.
   ALGO = Normal
   ISMEAR = 0
   SIGMA = 0.1
   LORBIT = 11
   NEDOS = 2000
   LWAVE = .FALSE.
   LCHARG = .FALSE.

 POTCAR:    PAW_PBE H 15Jun2001                   
 POTCAR:    PAW_PBE Si 05Jan2001                  
 POTCAR:    PAW_PBE H 15Jun2001                   
   SHA256 =  030f79b5d3ab3cf0e668861823c8fb652ff669f3e15e46930bd03bfd63a607b6 H/POTCAR              
   COPYR  = (c) Copyright 15Jun2001 Georg Kresse                                                    
   COPYR  = This file is part of the software VASP. Any use, copying, and all other rights are regul
   COPYR  = If you do not have a valid VASP license, you may not use, copy or distribute this file. 
   VRHFIN =H: ultrasoft test                                                                        
   LEXCH  = PE                                                                                      
   EATOM  =    12.4884 eV,    0.9179 Ry                                                             
                                                                                                    
   TITEL  = PAW_PBE H 15Jun2001                                                                     
   LULTRA =        F    use ultrasoft PP ?                                                          
   IUNSCR =        0    unscreen: 0-lin 1-nonlin 2-no                                               
   RPACOR =    0.000    partial core radius                                                         
   POMASS =    1.000; ZVAL   =    1.000    mass and valenz                                          
   RCORE  =    1.100    outmost cutoff radius                                                       
   RWIGS  =    0.700; RWIGS  =    0.370    wigner-seitz radius (au A)                               
   ENMAX  =  250.000; ENMIN  =  200.000 eV                                                          
   RCLOC  =    0.701    cutoff for local pot                                                        
   LCOR   =        T    correct aug charges                                                         
   LPAW   =        T    paw PP                                                                      
   EAUG   =  400.000                                                                                
   RMAX   =    1.123    core radius for proj-oper                                                   
   RAUG   =    1.200    factor for augmentation sphere                                              
   RDEP   =    1.112    radius for radial grids                                                     
   RDEPT  =    0.926    core radius for aug-charge                                                  
                                                                                                    
   Atomic configuration                                                                             
    2 entries                                                                                       
     n  l   j            E        occ.                                                              
     1  0  0.50        -6.4927   1.0000                                                             
     2  1  0.50        -3.4015   0.0000                                                             
   Description                                                                                      
     l       E           TYP  RCUT    TYP  RCUT                                                     
     0     -6.4927494     23  1.100                                                                 
     0      6.8029130     23  1.100                                                                 
     1     -4.0817478     23  1.100                                                                 
  local pseudopotential read in
  atomic valenz-charges read in
  non local Contribution for L=           0  read in
    real space projection operators read in
  non local Contribution for L=           0  read in
    real space projection operators read in
  non local Contribution for L=           1  read in
    real space projection operators read in
    PAW grid and wavefunctions read in

   number of l-projection  operators is LMAX  =           3
   number of lm-projection operators is LMMAX =           5

 POTCAR:    PAW_PBE Si 05Jan2001                  
   SHA256 =  79d9987ad8750f624c4d6acb2a16d13abf6a777132adc04dc6c8399be72b42bb Si/POTCAR             
   COPYR  = (c) Copyright 05Jan2001 Georg Kresse                                                    
   COPYR  = This file is part of the software VASP. Any use, copying, and all other rights are regul
   COPYR  = If you do not have a valid VASP license, you may not use, copy or distribute this file. 
   VRHFIN =Si: s2p2                                                                                 
   LEXCH  = PE                                                                                      
   EATOM  =   103.0669 eV,    7.5752 Ry                                                             
                                                                                                    
   TITEL  = PAW_PBE Si 05Jan2001                                                                    
   LULTRA =        F    use ultrasoft PP ?                                                          
   IUNSCR =        1    unscreen: 0-lin 1-nonlin 2-no                                               
   RPACOR =    1.500    partial core radius                                                         
   POMASS =   28.085; ZVAL   =    4.000    mass and valenz                                          
   RCORE  =    1.900    outmost cutoff radius                                                       
   RWIGS  =    2.480; RWIGS  =    1.312    wigner-seitz radius (au A)                               
   ENMAX  =  245.345; ENMIN  =  184.009 eV                                                          
   ICORE  =        2    local potential                                                             
   LCOR   =        T    correct aug charges                                                         
   LPAW   =        T    paw PP                                                                      
   EAUG   =  322.069                                                                                
   DEXC   =    0.000                                                                                
   RMAX   =    1.950    core radius for proj-oper                                                   
   RAUG   =    1.300    factor for augmentation sphere                                              
   RDEP   =    1.993    radius for radial grids                                                     
   RDEPT  =    1.837    core radius for aug-charge                                                  
                                                                                                    
   Atomic configuration                                                                             
    6 entries                                                                                       
     n  l   j            E        occ.                                                              
     1  0  0.50     -1785.8828   2.0000                                                             
     2  0  0.50      -139.4969   2.0000                                                             
     2  1  1.50       -95.5546   6.0000                                                             
     3  0  0.50       -10.8127   2.0000                                                             
     3  1  0.50        -4.0811   2.0000                                                             
     3  2  1.50        -4.0817   0.0000                                                             
   Description                                                                                      
     l       E           TYP  RCUT    TYP  RCUT                                                     
     0    -10.8127223     23  1.900                                                                 
     0     -7.6451159     23  1.900                                                                 
     1     -4.0811372     23  1.900                                                                 
     1      2.4879257     23  1.900                                                                 
     2     -4.0817478      7  1.900                                                                 
  local pseudopotential read in
  partial core-charges read in
  partial kinetic energy density read in
  atomic valenz-charges read in
  non local Contribution for L=           0  read in
    real space projection operators read in
  non local Contribution for L=           0  read in
    real space projection operators read in
  non local Contribution for L=           1  read in
    real space projection operators read in
  non local Contribution for L=           1  read in
    real space projection operators read in
    PAW grid and wavefunctions read in

   number of l-projection  operators is LMAX  =           4
   number of lm-projection operators is LMMAX =           8

 -----------------------------------------------------------------------------
|                                                                             |
|               ----> ADVICE to this user running VASP <----                  |
|                                                                             |
|     You have a (more or less) 'large supercell' and for larger cells it     |
|     might be more efficient to use real-space projection operators.         |
|     Therefore, try LREAL= Auto in the INCAR file.                           |
|     Mind: For very accurate calculation, you might also keep the            |
|     reciprocal projection scheme (i.e. LREAL=.FALSE.).                      |
|                                                                             |
 -----------------------------------------------------------------------------

 -----------------------------------------------------------------------------
|                                                                             |
|               ----> ADVICE to this user running VASP <----                  |
|                                                                             |
|     You enforced a specific xc type in the INCAR file but a different       |
|     type was found in the POTCAR file.                                      |
|     I HOPE YOU KNOW WHAT YOU ARE DOING!                                     |
|                                                                             |
 -----------------------------------------------------------------------------

  PAW_PBE H 15Jun2001                   :
 energy of atom  1       EATOM=  -12.4884
 kinetic energy error for atom=    0.0000 (will be added to EATOM!!)
  PAW_PBE Si 05Jan2001                  :
 energy of atom  2       EATOM= -103.0669
 kinetic energy error for atom=    0.0001 (will be added to EATOM!!)


 POSCAR:  H Si
  positions in cartesian coordinates
  No initial velocities read in


 exchange-correlation table for SCAN
   RHO(1)=    0.500       N(1)  =     2000
   RHO(2)=  100.500       N(2)  =     4000



--------------------------------------------------------------------------------------------------------


 ion  position               nearest neighbor table
   1  0.030  0.701  0.226-  26 1.48
   2  0.323  0.705  0.793-  24 1.47
   3  0.104  0.093  0.339-  52 1.48
   4  0.308  0.215  0.461-  44 1.51
   5  0.093  0.636  0.714-  30 1.49
   6  0.830  1.000  0.229-  32 2.27  37 2.34  20 2.42  34 2.42  48 2.54  53 3.01
   7  0.634  0.090  0.144-  20 2.37  32 2.39  25 2.45  21 2.52
   8  0.706  0.809  0.202-  39 2.20  14 2.28  20 2.34  42 2.53
   9  0.094  0.247  0.013-  59 2.24  57 2.26  52 2.34  49 2.46
  10  0.543  0.618  0.825-  55 2.30  45 2.32  35 2.33  54 2.45
  11  0.800  0.503  0.905-  55 2.24  23 2.31  40 2.32  13 2.39
  12  0.363  0.424  0.153-  28 2.27  46 2.29  54 2.37  56 2.38
  13  0.831  0.492  0.580-  11 2.39  15 2.46  33 2.47  36 2.50
  14  0.644  0.689  0.363-   8 2.28  43 2.28  45 2.38  36 2.43  42 3.01
  15  0.750  0.410  0.330-  22 2.36  17 2.37  13 2.46  40 2.53
  16  0.849  0.226  0.931-  32 2.26  57 2.31  40 2.36  50 2.42
  17  0.662  0.302  0.499-  31 2.26  50 2.27  21 2.34  15 2.37
  18  0.484  0.294  0.847-  41 2.37  46 2.39  56 2.40  31 2.41
  19  0.730  0.813  0.722-  42 2.33  45 2.34  39 2.43  27 2.44
  20  0.676  0.957  0.314-   8 2.34   7 2.37   6 2.42  27 2.42
  21  0.555  0.206  0.352-  17 2.34  56 2.41  41 2.41   7 2.52
  22  0.614  0.455  0.177-  55 2.25  15 2.36  43 2.42  56 2.46
  23  0.860  0.618  0.087-  11 2.31  36 2.32  39 2.50  26 2.52
  24  0.300  0.612  0.858-   2 1.47  54 2.39  29 2.42  30 2.44
  25  0.624  0.095  0.805-  50 2.37  41 2.40  27 2.44   7 2.45
  26  0.030  0.606  0.150-   1 1.48  47 2.39  30 2.45  23 2.52
  27  0.709  0.974  0.641-  34 2.37  20 2.42  19 2.44  25 2.44
  28  0.250  0.433  0.369-  12 2.27  29 2.37  44 2.41  47 2.52
  29  0.330  0.493  0.630-  28 2.37  46 2.38  24 2.42  35 2.44
  30  0.134  0.595  0.884-   5 1.49  51 2.33  24 2.44  26 2.45
  31  0.580  0.399  0.678-  17 2.26  55 2.33  35 2.35  18 2.41
  32  0.787  0.146  0.168-  16 2.26   6 2.27   7 2.39  53 2.42
  33  0.985  0.420  0.564-  51 2.36  47 2.41  13 2.47  38 2.56
  34  0.862  0.010  0.557-  58 2.26  53 2.31  27 2.37   6 2.42  48 2.56
  35  0.492  0.526  0.582-  10 2.33  43 2.35  31 2.35  29 2.44
  36  0.799  0.629  0.384-  23 2.32  42 2.33  14 2.43  13 2.50
  37  0.913  0.913  0.012-   6 2.34  58 2.38  39 2.41  48 2.62
  38  0.979  0.246  0.517-  53 2.33  52 2.44  57 2.55  33 2.56
  39  0.816  0.779  0.002-   8 2.20  37 2.41  19 2.43  23 2.50
  40  0.856  0.375  0.060-  11 2.32  16 2.36  59 2.49  15 2.53
  41  0.495  0.164  0.652-  18 2.37  25 2.40  21 2.41
  42  0.821  0.784  0.461-  19 2.33  36 2.33  48 2.42   8 2.53  14 3.01
  43  0.530  0.587  0.290-  14 2.28  54 2.33  35 2.35  22 2.42
  44  0.225  0.277  0.470-   4 1.51  49 2.40  52 2.40  28 2.41
  45  0.589  0.745  0.653-  10 2.32  19 2.34  14 2.38
  46  0.341  0.374  0.855-  12 2.29  49 2.33  29 2.38  18 2.39
  47  0.084  0.476  0.321-  59 2.35  26 2.39  33 2.41  28 2.52
  48  0.943  0.886  0.366-  42 2.42   6 2.54  34 2.56  37 2.62
  49  0.194  0.322  0.783-  46 2.33  51 2.34  44 2.40   9 2.46
  50  0.733  0.203  0.694-  17 2.27  53 2.28  25 2.37  16 2.42
  51  0.092  0.446  0.803-  30 2.33  49 2.34  33 2.36  59 2.42
  52  0.104  0.194  0.318-   3 1.48   9 2.34  44 2.40  38 2.44
  53  0.843  0.163  0.483-  50 2.28  34 2.31  38 2.33  32 2.42   6 3.01
  54  0.427  0.565  0.046-  43 2.33  12 2.37  24 2.39  10 2.45
  55  0.646  0.502  0.887-  11 2.24  22 2.25  10 2.30  31 2.33
  56  0.498  0.332  0.170-  12 2.38  18 2.40  21 2.41  22 2.46
  57  0.991  0.171  0.835-   9 2.26  16 2.31  58 2.39  38 2.55
  58  0.973  0.011  0.778-  34 2.26  37 2.38  57 2.39
  59  0.027  0.382  0.082-   9 2.24  47 2.35  51 2.42  40 2.49

  LATTYP: Found a simple tetragonal cell.
 ALAT       =    14.5469080134
 C/A-ratio  =     0.4959797728
  
  Lattice vectors:
  
 A1 = (  14.5469080134,   0.0000000000,   0.0000000000)
 A2 = (   0.0000000000,  14.5469080134,   0.0000000000)
 A3 = (   0.0000000000,   0.0000000000,   7.2149721314)


Analysis of symmetry for initial positions (statically):
=====================================================================
 Subroutine PRICEL returns:
 Original cell was already a primitive cell.
 

 Routine SETGRP: Setting up the symmetry group for a 
 simple tetragonal supercell.


 Subroutine GETGRP returns: Found  1 space group operations
 (whereof  1 operations were pure point group operations)
 out of a pool of 16 trial point group operations.


The static configuration has the point symmetry C_1 .


Analysis of symmetry for dynamics (positions and initial velocities):
=====================================================================
 Subroutine PRICEL returns:
 Original cell was already a primitive cell.
 

 Routine SETGRP: Setting up the symmetry group for a 
 simple tetragonal supercell.


 Subroutine GETGRP returns: Found  1 space group operations
 (whereof  1 operations were pure point group operations)
 out of a pool of 16 trial point group operations.


The dynamic configuration has the point symmetry C_1 .


 Subroutine INISYM returns: Found  1 space group operations
 (whereof  1 operations are pure point group operations),
 and found     1 'primitive' translations


----------------------------------------------------------------------------------------

                                     Primitive cell                                     

  volume of cell :    1526.7785

  direct lattice vectors                    reciprocal lattice vectors
    14.546908013  0.000000000  0.000000000     0.068743131  0.000000000  0.000000000
     0.000000000 14.546908013  0.000000000     0.000000000  0.068743131  0.000000000
     0.000000000  0.000000000  7.214972131     0.000000000  0.000000000  0.138600674

  length of vectors
    14.546908013 14.546908013  7.214972131     0.068743131  0.068743131  0.138600674

  position of ions in fractional coordinates (direct lattice)
     0.029636332  0.700939333  0.225748620
     0.322576454  0.705242653  0.793258781
     0.103937551  0.092544752  0.338939632
     0.307605575  0.214776913  0.461186813
     0.093197812  0.636266483  0.714375594
     0.830478889  0.999563356  0.228502615
     0.633520882  0.089984071  0.144227861
     0.706101942  0.808728562  0.202330650
     0.093749819  0.247242232  0.012943889
     0.542788886  0.618437265  0.824635202
     0.799764458  0.502631899  0.904532946
     0.363057221  0.424142367  0.152726855
     0.831159446  0.491707928  0.580007784
     0.643626810  0.688833668  0.363369387
     0.750324398  0.410151765  0.329937518
     0.849073906  0.226406189  0.930598189
     0.661855426  0.301952827  0.498507816
     0.484274733  0.293988248  0.847052475
     0.730457633  0.813045631  0.721833696
     0.675538059  0.956938752  0.313523041
     0.555333820  0.205563271  0.352177382
     0.614176565  0.454679441  0.177059589
     0.860086555  0.618200788  0.087390774
     0.300485161  0.612140394  0.857550090
     0.624276306  0.094653104  0.804704425
     0.029930553  0.606031879  0.150302729
     0.708535449  0.974378884  0.640824374
     0.250160377  0.432889931  0.369071419
     0.329518135  0.493258086  0.629556139
     0.134271833  0.595331323  0.884413673
     0.580376255  0.399275227  0.677984601
     0.787163842  0.146295694  0.167941051
     0.984786594  0.419850046  0.563722205
     0.862176346  0.010027286  0.557339644
     0.492015210  0.526016250  0.582376470
     0.799468862  0.629434103  0.384033361
     0.913231869  0.912565061  0.011912645
     0.978785319  0.245859120  0.516556396
     0.815994711  0.778708437  0.002368390
     0.856154448  0.375015089  0.060039594
     0.495303881  0.163686331  0.651680965
     0.820717364  0.783774806  0.461385012
     0.529870677  0.586778303  0.290425238
     0.224691048  0.277282980  0.469570767
     0.588579373  0.745299275  0.653062814
     0.340556220  0.373970193  0.855019242
     0.083687887  0.475782894  0.321471789
     0.943465098  0.885562759  0.366277229
     0.193718830  0.321757036  0.783095194
     0.733049249  0.203028712  0.694435115
     0.092383893  0.446462574  0.802913704
     0.103973298  0.193500914  0.317640867
     0.842639548  0.162963153  0.482901380
     0.427016517  0.564517903  0.046461025
     0.645688416  0.502476540  0.887333989
     0.498065980  0.331682856  0.169917496
     0.990657258  0.171445368  0.835368438
     0.972818415  0.010954562  0.777962811
     0.026781568  0.381971206  0.082056173

  ion indices of the primitive-cell ions
   primitive index   ion index
                 1           1
                 2           2
                 3           3
                 4           4
                 5           5
                 6           6
                 7           7
                 8           8
                 9           9
                10          10
                11          11
                12          12
                13          13
                14          14
                15          15
                16          16
                17          17
                18          18
                19          19
                20          20
                21          21
                22          22
                23          23
                24          24
                25          25
                26          26
                27          27
                28          28
                29          29
                30          30
                31          31
                32          32
                33          33
                34          34
                35          35
                36          36
                37          37
                38          38
                39          39
                40          40
                41          41
                42          42
                43          43
                44          44
                45          45
                46          46
                47          47
                48          48
                49          49
                50          50
                51          51
                52          52
                53          53
                54          54
                55          55
                56          56
                57          57
                58          58
                59          59

----------------------------------------------------------------------------------------


 -----------------------------------------------------------------------------
|                                                                             |
|           W    W    AA    RRRRR   N    N  II  N    N   GGGG   !!!           |
|           W    W   A  A   R    R  NN   N  II  NN   N  G    G  !!!           |
|           W    W  A    A  R    R  N N  N  II  N N  N  G       !!!           |
|           W WW W  AAAAAA  RRRRR   N  N N  II  N  N N  G  GGG   !            |
|           WW  WW  A    A  R   R   N   NN  II  N   NN  G    G                |
|           W    W  A    A  R    R  N    N  II  N    N   GGGG   !!!           |
|                                                                             |
|     The requested file  could not be found or opened for reading            |
|     k-point information. Automatic k-point generation is used as a          |
|     fallback, which may lead to unwanted results.                           |
|                                                                             |
 -----------------------------------------------------------------------------



Automatic generation of k-mesh.
 Grid dimensions derived from KSPACING:
 generate k-points for:    2    2    4

 Generating k-lattice:

  Cartesian coordinates                     Fractional coordinates (reciprocal lattice)
     0.034371565  0.000000000  0.000000000     0.500000000  0.000000000  0.000000000
     0.000000000  0.034371565  0.000000000     0.000000000  0.500000000  0.000000000
     0.000000000  0.000000000  0.034650168     0.000000000  0.000000000  0.250000000

  Length of vectors
     0.034371565  0.034371565  0.034650168

  Shift w.r.t. Gamma in fractional coordinates (k-lattice)
     0.000000000  0.000000000  0.000000000

 
 Subroutine IBZKPT returns following result:
 ===========================================
 
 Found     12 irreducible k-points:
 
 Following reciprocal coordinates:
            Coordinates               Weight
  0.000000  0.000000  0.000000      1.000000
  0.500000  0.000000  0.000000      1.000000
  0.000000  0.500000  0.000000      1.000000
  0.500000  0.500000  0.000000      1.000000
  0.000000  0.000000  0.250000      2.000000
  0.500000  0.000000  0.250000      2.000000
  0.000000  0.500000  0.250000      2.000000
  0.500000  0.500000  0.250000      2.000000
  0.000000  0.000000  0.500000      1.000000
  0.500000  0.000000  0.500000      1.000000
  0.000000  0.500000  0.500000      1.000000
  0.500000  0.500000  0.500000      1.000000
 
 Following cartesian coordinates:
            Coordinates               Weight
  0.000000  0.000000  0.000000      1.000000
  0.034372  0.000000  0.000000      1.000000
  0.000000  0.034372  0.000000      1.000000
  0.034372  0.034372  0.000000      1.000000
  0.000000  0.000000  0.034650      2.000000
  0.034372  0.000000  0.034650      2.000000
  0.000000  0.034372  0.034650      2.000000
  0.034372  0.034372  0.034650      2.000000
  0.000000  0.000000  0.069300      1.000000
  0.034372  0.000000  0.069300      1.000000
  0.000000  0.034372  0.069300      1.000000
  0.034372  0.034372  0.069300      1.000000
 


--------------------------------------------------------------------------------------------------------




 Dimension of arrays:
   k-points           NKPTS =     12   k-points in BZ     NKDIM =     12   number of bands    NBANDS=    144
   number of dos      NEDOS =   2000   number of ions     NIONS =     59
   non local maximal  LDIM  =      4   non local SUM 2l+1 LMDIM =      8
   total plane-waves  NPLWV = ******
   max r-space proj   IRMAX =      1   max aug-charges    IRDMAX= 415499
   dimension x,y,z NGX =   168 NGY =  168 NGZ =   84
   dimension x,y,z NGXF=   336 NGYF=  336 NGZF=  168
   support grid    NGXF=   672 NGYF=  672 NGZF=  336
   ions per type =               5  54
   NGX,Y,Z   is equivalent  to a cutoff of  19.20, 19.20, 19.36 a.u.
   NGXF,Y,Z  is equivalent  to a cutoff of  38.40, 38.40, 38.71 a.u.

 SYSTEM =  a-Si SPC                                
 POSCAR =   H Si                                   

 Startparameter for this run:
   NWRITE =      2    write-flag & timer
   PREC   = accura    normal or accurate (medium, high low for compatibility)
   ISTART =      1    job   : 0-new  1-cont  2-samecut
   ICHARG =      1    charge: 1-file 2-atom 10-const
   ISPIN  =      1    spin polarized calculation?
   LNONCOLLINEAR =      F non collinear calculations
   LSORBIT =      F    spin-orbit coupling
   INIWAV =      1    electr: 0-lowe 1-rand  2-diag
   LASPH  =      T    aspherical Exc in radial PAW
 Electronic Relaxation 1
   ENCUT  = 1200.0 eV  88.20 Ry    9.39 a.u.  41.09 41.09 20.38*2*pi/ulx,y,z
   ENINI  = 1200.0     initial cutoff
   ENAUG  =  400.0 eV  augmentation charge cutoff
   NELM   =    150;   NELMIN=  2; NELMDL=  0     # of ELM steps 
   EDIFF  = 0.1E-05   stopping-criterion for ELM
   LREAL  =      F    real-space projection
   NLSPLINE    = F    spline interpolate recip. space projectors
   LCOMPAT=      F    compatible to vasp.4.4
   GGA_COMPAT  = T    GGA compatible to vasp.4.4-vasp.4.6
   LMAXPAW     = -100 max onsite density
   LMAXMIX     =    2 max onsite mixed and CHGCAR
   VOSKOWN=      0    Vosko Wilk Nusair interpolation
   ROPT   =    0.00000   0.00000
 Ionic relaxation
   EDIFFG = -.1E-01   stopping-criterion for IOM
   NSW    =      0    number of steps for IOM
   NBLOCK =      1;   KBLOCK =      1    inner block; outer block 
   IBRION =     -1    ionic relax: 0-MD 1-quasi-New 2-CG
   NFREE  =      0    steps in history (QN), initial steepest desc. (CG)
   ISIF   =      2    stress and relaxation
   IWAVPR =     10    prediction:  0-non 1-charg 2-wave 3-comb
   ISYM   =      1    0-nonsym 1-usesym 2-fastsym
   LCORR  =      T    Harris-Foulkes like correction to forces

   POTIM  = 0.5000    time-step for ionic-motion
   TEIN   =    0.0    initial temperature
   TEBEG  =    0.0;   TEEND  =   0.0 temperature during run
   SMASS  =  -3.00    Nose mass-parameter (am)
   estimated Nose-frequenzy (Omega)   =  0.10E-29 period in steps = 0.13E+47 mass=  -0.484E-26a.u.
   SCALEE = 1.0000    scale energy and forces
   NPACO  =    256;   APACO  = 10.0  distance and # of slots for P.C.
   PSTRESS=    0.0 pullay stress

  Mass of Ions in am
   POMASS =   1.00 28.09
  Ionic Valenz
   ZVAL   =   1.00  4.00
  Atomic Wigner-Seitz radii
   RWIGS  =  -1.00 -1.00
  virtual crystal weights 
   VCA    =   1.00  1.00
   NELECT =     221.0000    total number of electrons
   NUPDOWN=      -1.0000    fix difference up-down

 DOS related values:
   EMIN   =  10.00;   EMAX   =-10.00  energy-range for DOS
   EFERMI =   0.00;   METHOD = LEGACY      
   ISMEAR =     0;   SIGMA  =   0.10  broadening in eV -4-tet -1-fermi 0-gaus
   EFERMI_NEDOS =   21; number of points for ismear=-14 and -15

 Electronic relaxation 2 (details)
   IALGO  =     38    algorithm
   LDIAG  =      F    sub-space diagonalisation (order eigenvalues)
   LSUBROT=      F    optimize rotation matrix (better conditioning)
   TURBO    =      0    0=normal 1=particle mesh
   IRESTART =      0    0=no restart 2=restart with 2 vectors
   NREBOOT  =      0    no. of reboots
   NMIN     =      0    reboot dimension
   EREF     =   0.00    reference energy to select bands
   IMIX   =      4    mixing-type and parameters
     AMIX     =   0.40;   BMIX     =  1.00
     AMIX_MAG =   1.60;   BMIX_MAG =  1.00
     AMIN     =   0.10
     WC   =   100.;   INIMIX=   1;  MIXPRE=   1;  MAXMIX= -45

 Intra band minimization:
   WEIMIN = 0.0000     energy-eigenvalue tresh-hold
   EBREAK =  0.17E-08  absolut break condition
   DEPER  =   0.30     relativ break condition  

   TIME   =   0.40     timestep for ELM

  volume/ion in A,a.u.               =      25.88       174.63
  Fermi-wavevector in a.u.,A,eV,Ry     =   0.859568  1.624348 10.052762  0.738857
  Thomas-Fermi vector in A             =   1.976942

 Write flags
   LWAVE        =      F    write WAVECAR
   LDOWNSAMPLE  =      F    k-point downsampling of WAVECAR
   LCHARG       =      F    write CHGCAR
   LVTOT        =      F    write LOCPOT, total local potential
   LVHAR        =      F    write LOCPOT, Hartree potential only
   WRT_POTENTIAL= false  ! write potential to hdf5 file
   LELF         =      F    write electronic localiz. function (ELF)
   LORBIT       =     11    0 simple, 1 ext, 2 COOP (PROOUT), +10 PAW based schemes


 Python interface
   PLUGINS active      =      F    recompile with -DPLUGINS to activate

 Dipole corrections
   LMONO      =      F    monopole corrections only (constant potential shift)
   LDIPOL     =      F    correct potential (dipole corrections)
   IDIPOL     =      0    1-x, 2-y, 3-z, 4-all directions 
   EPSILON    =  1.0000000 bulk dielectric constant
   LVACPOTAV  =      F  vacuum potentials using an averaging scheme for the charge density
   VACPOTFLAT =  0.1000000 required flatness to determine vacuum potential

Coulomb truncation method
  LTRUNCATE          =      F  Coulomb kernel truncation to be used
  IDIMENSIONALITY    =      3  Dimensionality of cutoff (0 molecules / 2 surfaces)
  ISURFACE           =     -1  Direction of surface normal
  LCOARSEN           =      F  Coarsen the charge grid before padding, preferred


 Exchange correlation treatment:
   METAGGA = SCAN    functional components
   XC_C    = 1    coefficients multiplying the functional components
   LIBXC   =     F    Libxc                    
   VOSKOWN =     0    Vosko Wilk Nusair interpolation
   LHFCALC =     F    Hartree Fock is set to
   LHFONE  =     F    Hartree Fock one center treatment
   AEXX    =    0.0000 exact exchange contribution

 Parameters of functionals:
   SCAN:
     P1 =  0.000000E+00
     P2 =  0.000000E+00
     P3 =  0.000000E+00

 Accuracy and mixing parameters for tau-dependent meta-GGA functionals:
   LMAXTAU = 6
   LMIXTAU = T

 Van der Waals corrections
   IVDW    =     0    specifies the selected vdW correction

 Linear response parameters
   LEPSILON=     F    determine dielectric tensor
   LRPA    =     F    only Hartree local field effects (RPA)
   LNABLA  =     F    use nabla operator in PAW spheres
   LVEL    =     F    velocity operator in full k-point grid
   CSHIFT  =0.1000    complex shift for real part using Kramers Kronig
   OMEGAMAX=  -1.0    maximum frequency
   DEG_THRESHOLD= 0.2000000E-02 threshold for treating states as degnerate
   RTIME   =   -0.100 relaxation time in fs
  (WPLASMAI=    0.000 imaginary part of plasma frequency in eV, 0.658/RTIME)
   DFIELD  = 0.0000000 0.0000000 0.0000000 field for delta impulse in time

  Optional k-point grid parameters
   LKPOINTS_OPT  =     F    use optional k-point grid
   KPOINTS_OPT_MODE=     1    mode for optional k-point grid

 Orbital magnetization related:
   ORBITALMAG=     F  switch on orbital magnetization
   LCHIMAG   =     F  perturbation theory with respect to B field
   DQ        =  0.001000  dq finite difference perturbation B field
   LLRAUG    =     F  two centre corrections for induced B field
   LBONE     =     F  B-component reconstruction in AE one-centre
   LVGVCALC  =     T  calculate vGv susceptibility
   LVGVAPPL  =     F  apply vGv susceptibility instead of pGv for G=0

 Random number generation:
   RANDOM_GENERATOR = DEFAULT
   PCG_SEED         = not used


--------------------------------------------------------------------------------------------------------


 Static calculation
 charge density and potential will be updated during run
 non-spin polarized calculation
 Variant of blocked Davidson
 perform Loewdin sub-space diagonalisation
    ordering is kept fixed
    before iterative eigenvector-optimisation
 modified Broyden-mixing scheme, WC =      100.0
 initial mixing is a Kerker type mixing with AMIX =  0.4000 and BMIX =      1.0000
 Hartree-type preconditioning will be used
 using additional bands           33
 reciprocal scheme for non local part
 use partial core corrections
 calculate Harris-corrections to forces   (improved forces if not selfconsistent)
 use gradient corrections 
 use of overlap-Matrix (Vanderbilt PP)
 Gauss-broadening in eV      SIGMA  =   0.10


--------------------------------------------------------------------------------------------------------


  energy-cutoff  :     1200.00
  volume of cell :     1526.78
      direct lattice vectors                 reciprocal lattice vectors
    14.546908013  0.000000000  0.000000000     0.068743131  0.000000000  0.000000000
     0.000000000 14.546908013  0.000000000     0.000000000  0.068743131  0.000000000
     0.000000000  0.000000000  7.214972131     0.000000000  0.000000000  0.138600674

  length of vectors
    14.546908013 14.546908013  7.214972131     0.068743131  0.068743131  0.138600674



 old parameters found on file WAVECAR:
  energy-cutoff  :     1200.00
  volume of cell :     1526.78
      direct lattice vectors                 reciprocal lattice vectors
    14.546908013  0.000000000  0.000000000     0.068743131  0.000000000  0.000000000
     0.000000000 14.546908013  0.000000000     0.000000000  0.068743131  0.000000000
     0.000000000  0.000000000  7.214972131     0.000000000  0.000000000  0.138600674

  length of vectors


 k-points in units of 2pi/SCALE and weight: read from INCAR                         
   0.00000000  0.00000000  0.00000000       0.062
   0.03437157  0.00000000  0.00000000       0.062
   0.00000000  0.03437157  0.00000000       0.062
   0.03437157  0.03437157  0.00000000       0.062
   0.00000000  0.00000000  0.03465017       0.125
   0.03437157  0.00000000  0.03465017       0.125
   0.00000000  0.03437157  0.03465017       0.125
   0.03437157  0.03437157  0.03465017       0.125
   0.00000000  0.00000000  0.06930034       0.062
   0.03437157  0.00000000  0.06930034       0.062
   0.00000000  0.03437157  0.06930034       0.062
   0.03437157  0.03437157  0.06930034       0.062

 k-points in reciprocal lattice and weights: read from INCAR                         
   0.00000000  0.00000000  0.00000000       0.062
   0.50000000  0.00000000  0.00000000       0.062
   0.00000000  0.50000000  0.00000000       0.062
   0.50000000  0.50000000  0.00000000       0.062
   0.00000000  0.00000000  0.25000000       0.125
   0.50000000  0.00000000  0.25000000       0.125
   0.00000000  0.50000000  0.25000000       0.125
   0.50000000  0.50000000  0.25000000       0.125
   0.00000000  0.00000000  0.50000000       0.062
   0.50000000  0.00000000  0.50000000       0.062
   0.00000000  0.50000000  0.50000000       0.062
   0.50000000  0.50000000  0.50000000       0.062

 position of ions in fractional coordinates (direct lattice) 
   0.02963633  0.70093933  0.22574862
   0.32257645  0.70524265  0.79325878
   0.10393755  0.09254475  0.33893963
   0.30760557  0.21477691  0.46118681
   0.09319781  0.63626648  0.71437559
   0.83047889  0.99956336  0.22850262
   0.63352088  0.08998407  0.14422786
   0.70610194  0.80872856  0.20233065
   0.09374982  0.24724223  0.01294389
   0.54278889  0.61843726  0.82463520
   0.79976446  0.50263190  0.90453295
   0.36305722  0.42414237  0.15272685
   0.83115945  0.49170793  0.58000778
   0.64362681  0.68883367  0.36336939
   0.75032440  0.41015177  0.32993752
   0.84907391  0.22640619  0.93059819
   0.66185543  0.30195283  0.49850782
   0.48427473  0.29398825  0.84705247
   0.73045763  0.81304563  0.72183370
   0.67553806  0.95693875  0.31352304
   0.55533382  0.20556327  0.35217738
   0.61417657  0.45467944  0.17705959
   0.86008656  0.61820079  0.08739077
   0.30048516  0.61214039  0.85755009
   0.62427631  0.09465310  0.80470442
   0.02993055  0.60603188  0.15030273
   0.70853545  0.97437888  0.64082437
   0.25016038  0.43288993  0.36907142
   0.32951814  0.49325809  0.62955614
   0.13427183  0.59533132  0.88441367
   0.58037626  0.39927523  0.67798460
   0.78716384  0.14629569  0.16794105
   0.98478659  0.41985005  0.56372221
   0.86217635  0.01002729  0.55733964
   0.49201521  0.52601625  0.58237647
   0.79946886  0.62943410  0.38403336
   0.91323187  0.91256506  0.01191264
   0.97878532  0.24585912  0.51655640
   0.81599471  0.77870844  0.00236839
   0.85615445  0.37501509  0.06003959
   0.49530388  0.16368633  0.65168096
   0.82071736  0.78377481  0.46138501
   0.52987068  0.58677830  0.29042524
   0.22469105  0.27728298  0.46957077
   0.58857937  0.74529928  0.65306281
   0.34055622  0.37397019  0.85501924
   0.08368789  0.47578289  0.32147179
   0.94346510  0.88556276  0.36627723
   0.19371883  0.32175704  0.78309519
   0.73304925  0.20302871  0.69443511
   0.09238389  0.44646257  0.80291370
   0.10397330  0.19350091  0.31764087
   0.84263955  0.16296315  0.48290138
   0.42701652  0.56451790  0.04646102
   0.64568842  0.50247654  0.88733399
   0.49806598  0.33168286  0.16991750
   0.99065726  0.17144537  0.83536844
   0.97281842  0.01095456  0.77796281
   0.02678157  0.38197121  0.08205617

 position of ions in cartesian coordinates  (Angst):
   0.43111700 10.19650000  1.62877000
   4.69249000 10.25910000  5.72334000
   1.51197000  1.34624000  2.44544000
   4.47471000  3.12434000  3.32745000
   1.35574000  9.25571000  5.15420000
  12.08090000 14.54055619  1.64864000
   9.21577000  1.30899000  1.04060000
  10.27160000 11.76450000  1.45981000
   1.36377000  3.59661000  0.09338980
   7.89590000  8.99635000  5.94972000
  11.63410000  7.31174000  6.52618000
   5.28136000  6.16996000  1.10192000
  12.09080000  7.15283000  4.18474000
   9.36278000 10.02040000  2.62170000
  10.91490000  5.96644000  2.38049000
  12.35140000  3.29351000  6.71424000
   9.62795000  4.39248000  3.59672000
   7.04470000  4.27662000  6.11146000
  10.62590000 11.82730000  5.20801000
   9.82699000 13.92050000  2.26206000
   8.07839000  2.99031000  2.54095000
   8.93437000  6.61418000  1.27748000
  12.51160000  8.99291000  0.63052200
   4.37113000  8.90475000  6.18720000
   9.08129000  1.37691000  5.80592000
   0.43539700  8.81589000  1.08443000
  10.30700000 14.17420000  4.62353000
   3.63906000  6.29721000  2.66284000
   4.79347000  7.17538000  4.54223000
   1.95324000  8.66023000  6.38102000
   8.44268000  5.80822000  4.89164000
  11.45080000  2.12815000  1.21169000
  14.32560000  6.10752000  4.06724000
  12.54200000  0.14586600  4.02119000
   7.15730000  7.65191000  4.20183000
  11.62980000  9.15632000  2.77079000
  13.28470000 13.27500000  0.08594940
  14.23830000  3.57649000  3.72694000
  11.87020000 11.32780000  0.01708787
  12.45440000  5.45531000  0.43318400
   7.20514000  2.38113000  4.70186000
  11.93890000 11.40150000  3.32888000
   7.70798000  8.53581000  2.09541000
   3.26856000  4.03361000  3.38794000
   8.56201000 10.84180000  4.71183000
   4.95404000  5.44011000  6.16894000
   1.21740000  6.92117000  2.31941000
  13.72450000 12.88220000  2.64268000
   2.81801000  4.68057000  5.65001000
  10.66360000  2.95344000  5.01033000
   1.34390000  6.49465000  5.79300000
   1.51249000  2.81484000  2.29177000
  12.25780000  2.37061000  3.48412000
   6.21177000  8.21199000  0.33521500
   9.39277000  7.30948000  6.40209000
   7.24532000  4.82496000  1.22595000
  14.41100000  2.49400000  6.02716000
  14.15150000  0.15935500  5.61298000
   0.38958900  5.55650000  0.59203300



--------------------------------------------------------------------------------------------------------


 k-point     1 :   0.0000 0.0000 0.0000  plane waves:  144057
 k-point     2 :   0.5000 0.0000 0.0000  plane waves:  144162
 k-point     3 :   0.0000 0.5000 0.0000  plane waves:  144162
 k-point     4 :   0.5000 0.5000 0.0000  plane waves:  144228
 k-point     5 :   0.0000 0.0000 0.2500  plane waves:  144073
 k-point     6 :   0.5000 0.0000 0.2500  plane waves:  144110
 k-point     7 :   0.0000 0.5000 0.2500  plane waves:  144110
 k-point     8 :   0.5000 0.5000 0.2500  plane waves:  144124
 k-point     9 :   0.0000 0.0000 0.5000  plane waves:  143928
 k-point    10 :   0.5000 0.0000 0.5000  plane waves:  144140
 k-point    11 :   0.0000 0.5000 0.5000  plane waves:  144140
 k-point    12 :   0.5000 0.5000 0.5000  plane waves:  144064

 maximum and minimum number of plane-waves per node :      9097     8911

 maximum number of plane-waves:    144228
 maximum index in each direction: 
   IXMAX=   41   IYMAX=   41   IZMAX=   20
   IXMIN=  -41   IYMIN=  -41   IZMIN=  -20


 parallel 3D FFT for wavefunctions:
    minimum data exchange during FFTs selected (reduces bandwidth)
 parallel 3D FFT for charge:
    minimum data exchange during FFTs selected (reduces bandwidth)


 total amount of memory used by VASP MPI-rank0   134412. kBytes
=======================================================================

   base                                    :      30000. kBytes
   nonl-proj                               :      22320. kBytes
   fftplans                                :      28726. kBytes
   grid                                    :      22140. kBytes
   one-center                              :         12. kBytes
   wavefun                                 :      31214. kBytes

     INWAV:  cpu time      5.5407: real time      5.5421
 Broyden mixing: mesh for mixing (old mesh)
   NGX = 83   NGY = 83   NGZ = 41
  (NGX  =336   NGY  =336   NGZ  =168)
  gives a total of 282449 points

 initial charge density was supplied:
 number of electron     220.9999999 magnetization 
 keeping initial charge density in first step


--------------------------------------------------------------------------------------------------------


 Maximum index for augmentation-charges        11591 (set IRDMAX)


--------------------------------------------------------------------------------------------------------


 First call to EWALD:  gamma=   0.154
 Maximum number of real-space cells   2x   2x   4
 Maximum number of reciprocal cells   3x   3x   2

    FEWALD:  cpu time      0.0117: real time      0.0121


--------------------------------------- Ionic step        1  -------------------------------------------




--------------------------------------- Iteration      1(   1)  ---------------------------------------


    POTLOK:  cpu time      0.5055: real time      0.5063
    SETDIJ:  cpu time      0.9153: real time      0.9155
    EDDIAG:  cpu time     11.0430: real time     11.0521
     EDDAV:  cpu time     50.4198: real time     50.4618
       DOS:  cpu time      0.0103: real time      0.0108
    CHARGE:  cpu time      4.0981: real time      4.1012
    MIXING:  cpu time      0.0191: real time      0.0193
    --------------------------------------------
      LOOP:  cpu time     67.0111: real time     67.0671

 eigenvalue-minimisations  :  3464
 total energy-change (2. order) :-0.5732693E+03  (-0.6329918E+00)
 number of electron     220.9999999 magnetization 
 augmentation part      -12.0109819 magnetization 

 Broyden mixing:
  rms(total) = 0.93064E+00    rms(broyden)= 0.42882E+02
  rms(prec ) = 0.10285E+01
  weight for this iteration     100.00
  WARNING: grid for Broyden might be to small

 Free energy of the ion-electron system (eV)
  ---------------------------------------------------
  alpha Z        PSCENC =        67.54477748
  Ewald energy   TEWEN  =     -1611.70208679
  -Hartree energ DENC   =     -4378.90185314
  -exchange      EXHF   =         0.00000000
  -V(xc)+E(xc)   XCENC  =      -247.52141654
  PAW double counting   =     20835.18597663   -20296.99381671
  entropy T*S    EENTRO =        -0.07760455
  eigenvalues    EBANDS =      -568.85421794
  atomic energy  EATOM  =      5628.05094236
  Solvation  Ediel_sol  =         0.00000000
  ---------------------------------------------------
  free energy    TOTEN  =      -573.26929920 eV

  energy without entropy =     -573.19169465  energy(sigma->0) =     -573.23049692


--------------------------------------------------------------------------------------------------------




--------------------------------------- Iteration      1(   2)  ---------------------------------------


    POTLOK:  cpu time      0.5223: real time      0.5233
    SETDIJ:  cpu time      0.9075: real time      0.9080
    EDDIAG:  cpu time     11.1743: real time     11.1835
     EDDAV:  cpu time     50.6580: real time     50.7047
       DOS:  cpu time      0.0039: real time      0.0039
    CHARGE:  cpu time      4.0294: real time      4.0324
    MIXING:  cpu time      0.0123: real time      0.0125
    --------------------------------------------
      LOOP:  cpu time     67.3076: real time     67.3684

 eigenvalue-minimisations  :  3488
 total energy-change (2. order) : 0.3933070E+02  (-0.5849143E+00)
 number of electron     220.9999999 magnetization 
 augmentation part      -11.9649545 magnetization 

 Broyden mixing:
  rms(total) = 0.62412E+00    rms(broyden)= 0.24854E+02
  rms(prec ) = 0.67410E+00
  weight for this iteration     100.00
  WARNING: grid for Broyden might be to small

 eigenvalues of (default mixing * dielectric matrix)
  average eigenvalue GAMMA=   0.6331
  0.6331

 Free energy of the ion-electron system (eV)
  ---------------------------------------------------
  alpha Z        PSCENC =        67.54477748
  Ewald energy   TEWEN  =     -1611.70208679
  -Hartree energ DENC   =     -4372.44425411
  -exchange      EXHF   =         0.00000000
  -V(xc)+E(xc)   XCENC  =      -241.76108191
  PAW double counting   =     24944.03362894   -24405.69221577
  entropy T*S    EENTRO =        -0.07654074
  eigenvalues    EBANDS =      -541.89176843
  atomic energy  EATOM  =      5628.05094236
  Solvation  Ediel_sol  =         0.00000000
  ---------------------------------------------------
  free energy    TOTEN  =      -533.93859897 eV

  energy without entropy =     -533.86205823  energy(sigma->0) =     -533.90032860


--------------------------------------------------------------------------------------------------------




--------------------------------------- Iteration      1(   3)  ---------------------------------------


    POTLOK:  cpu time      0.4944: real time      0.5230
    SETDIJ:  cpu time      0.9072: real time      0.9083
    EDDIAG:  cpu time     11.1703: real time     11.1791
     EDDAV:  cpu time     50.3587: real time     50.4022
       DOS:  cpu time      0.0032: real time      0.0033
    CHARGE:  cpu time      4.0409: real time      4.0441
    MIXING:  cpu time      0.0095: real time      0.0095
    --------------------------------------------
      LOOP:  cpu time     66.9842: real time     67.0694

 eigenvalue-minimisations  :  3456
 total energy-change (2. order) :-0.2001790E+01  (-0.4909134E+00)
 number of electron     220.9999999 magnetization 
 augmentation part      -11.9273540 magnetization 

 Broyden mixing:
  rms(total) = 0.38737E+00    rms(broyden)= 0.15624E+02
  rms(prec ) = 0.42315E+00
  weight for this iteration     100.00
  WARNING: grid for Broyden might be to small

 eigenvalues of (default mixing * dielectric matrix)
  average eigenvalue GAMMA=   0.6475
  0.6898  0.6051

 Free energy of the ion-electron system (eV)
  ---------------------------------------------------
  alpha Z        PSCENC =        67.54477748
  Ewald energy   TEWEN  =     -1611.70208679
  -Hartree energ DENC   =     -4374.06607943
  -exchange      EXHF   =         0.00000000
  -V(xc)+E(xc)   XCENC  =      -244.70083975
  PAW double counting   =     28048.55103750   -27510.25725858
  entropy T*S    EENTRO =        -0.07796753
  eigenvalues    EBANDS =      -539.28291427
  atomic energy  EATOM  =      5628.05094236
  Solvation  Ediel_sol  =         0.00000000
  ---------------------------------------------------
  free energy    TOTEN  =      -535.94038901 eV

  energy without entropy =     -535.86242149  energy(sigma->0) =     -535.90140525


--------------------------------------------------------------------------------------------------------




--------------------------------------- Iteration      1(   4)  ---------------------------------------


    POTLOK:  cpu time      0.5232: real time      0.5235
    SETDIJ:  cpu time      0.9076: real time      0.9083
    EDDIAG:  cpu time     11.1702: real time     11.1793
     EDDAV:  cpu time     53.1509: real time     53.1969
       DOS:  cpu time      0.0046: real time      0.0045
    CHARGE:  cpu time      3.9650: real time      3.9677
    MIXING:  cpu time      0.0100: real time      0.0100
    --------------------------------------------
      LOOP:  cpu time     69.7315: real time     69.7903

 eigenvalue-minimisations  :  3792
 total energy-change (2. order) :-0.2410499E+00  (-0.6684516E-01)
 number of electron     220.9999999 magnetization 
 augmentation part      -11.9196439 magnetization 

 Broyden mixing:
  rms(total) = 0.10179E+00    rms(broyden)= 0.17482E+01
  rms(prec ) = 0.19190E+00
  weight for this iteration     100.00
  WARNING: grid for Broyden might be to small

 eigenvalues of (default mixing * dielectric matrix)
  average eigenvalue GAMMA=   0.7261
  1.0645  0.6312  0.4825

 Free energy of the ion-electron system (eV)
  ---------------------------------------------------
  alpha Z        PSCENC =        67.54477748
  Ewald energy   TEWEN  =     -1611.70208679
  -Hartree energ DENC   =     -4377.40957929
  -exchange      EXHF   =         0.00000000
  -V(xc)+E(xc)   XCENC  =      -244.85594157
  PAW double counting   =     33237.00507545   -32698.74712198
  entropy T*S    EENTRO =        -0.06885589
  eigenvalues    EBANDS =      -535.99864864
  atomic energy  EATOM  =      5628.05094236
  Solvation  Ediel_sol  =         0.00000000
  ---------------------------------------------------
  free energy    TOTEN  =      -536.18143887 eV

  energy without entropy =     -536.11258298  energy(sigma->0) =     -536.14701092


--------------------------------------------------------------------------------------------------------




--------------------------------------- Iteration      1(   5)  ---------------------------------------


    POTLOK:  cpu time      0.5200: real time      0.5212
    SETDIJ:  cpu time      0.9056: real time      0.9062
    EDDIAG:  cpu time     11.1560: real time     11.1655
     EDDAV:  cpu time     55.5442: real time     55.5907
       DOS:  cpu time      0.0033: real time      0.0033
    CHARGE:  cpu time      3.9260: real time      3.9297
    MIXING:  cpu time      0.0102: real time      0.0102
    --------------------------------------------
      LOOP:  cpu time     72.0654: real time     72.1268

 eigenvalue-minimisations  :  4096
 total energy-change (2. order) : 0.5130305E-04  (-0.2456797E-01)
 number of electron     220.9999999 magnetization 
 augmentation part      -11.9215872 magnetization 

 Broyden mixing:
  rms(total) = 0.50378E-01    rms(broyden)= 0.10882E+01
  rms(prec ) = 0.88334E-01
  weight for this iteration     100.00
  WARNING: grid for Broyden might be to small

 eigenvalues of (default mixing * dielectric matrix)
  average eigenvalue GAMMA=   0.9010
  1.9273  0.7091  0.6198  0.3480

 Free energy of the ion-electron system (eV)
  ---------------------------------------------------
  alpha Z        PSCENC =        67.54477748
  Ewald energy   TEWEN  =     -1611.70208679
  -Hartree energ DENC   =     -4377.59222410
  -exchange      EXHF   =         0.00000000
  -V(xc)+E(xc)   XCENC  =      -245.54279263
  PAW double counting   =     33311.10752086   -32772.84315016
  entropy T*S    EENTRO =        -0.07762803
  eigenvalues    EBANDS =      -535.12674655
  atomic energy  EATOM  =      5628.05094236
  Solvation  Ediel_sol  =         0.00000000
  ---------------------------------------------------
  free energy    TOTEN  =      -536.18138757 eV

  energy without entropy =     -536.10375953  energy(sigma->0) =     -536.14257355


--------------------------------------------------------------------------------------------------------




--------------------------------------- Iteration      1(   6)  ---------------------------------------


    POTLOK:  cpu time      0.4973: real time      0.5262
    SETDIJ:  cpu time      0.9050: real time      0.9063
    EDDIAG:  cpu time     11.1390: real time     11.1479
     EDDAV:  cpu time     51.8110: real time     51.8549
       DOS:  cpu time      0.0038: real time      0.0038
    CHARGE:  cpu time      3.9576: real time      3.9603
    MIXING:  cpu time      0.0104: real time      0.0104
    --------------------------------------------
      LOOP:  cpu time     68.3239: real time     68.4097

 eigenvalue-minimisations  :  3632
 total energy-change (2. order) : 0.4362879E-02  (-0.4753545E-02)
 number of electron     220.9999999 magnetization 
 augmentation part      -11.9215068 magnetization 

 Broyden mixing:
  rms(total) = 0.18080E-01    rms(broyden)= 0.26273E+00
  rms(prec ) = 0.23412E-01
  weight for this iteration     100.00
  WARNING: grid for Broyden might be to small

 eigenvalues of (default mixing * dielectric matrix)
  average eigenvalue GAMMA=   1.0278
  2.5437  0.9844  0.6256  0.6256  0.3596

 Free energy of the ion-electron system (eV)
  ---------------------------------------------------
  alpha Z        PSCENC =        67.54477748
  Ewald energy   TEWEN  =     -1611.70208679
  -Hartree energ DENC   =     -4377.70615150
  -exchange      EXHF   =         0.00000000
  -V(xc)+E(xc)   XCENC  =      -245.76621858
  PAW double counting   =     33076.09375298   -32537.81652027
  entropy T*S    EENTRO =        -0.07707930
  eigenvalues    EBANDS =      -534.79844107
  atomic energy  EATOM  =      5628.05094236
  Solvation  Ediel_sol  =         0.00000000
  ---------------------------------------------------
  free energy    TOTEN  =      -536.17702469 eV

  energy without entropy =     -536.09994539  energy(sigma->0) =     -536.13848504


--------------------------------------------------------------------------------------------------------




--------------------------------------- Iteration      1(   7)  ---------------------------------------


    POTLOK:  cpu time      0.4963: real time      0.5233
    SETDIJ:  cpu time      0.9083: real time      0.9083
    EDDIAG:  cpu time     11.1640: real time     11.1735
     EDDAV:  cpu time     55.8337: real time     55.8863
       DOS:  cpu time      0.0042: real time      0.0042
    CHARGE:  cpu time      3.9456: real time      3.9481
    MIXING:  cpu time      0.0093: real time      0.0104
    --------------------------------------------
      LOOP:  cpu time     72.3614: real time     72.4541

 eigenvalue-minimisations  :  4128
 total energy-change (2. order) :-0.2525530E-03  (-0.4318808E-03)
 number of electron     220.9999999 magnetization 
 augmentation part      -11.9212739 magnetization 

 Broyden mixing:
  rms(total) = 0.11581E-01    rms(broyden)= 0.10611E+00
  rms(prec ) = 0.13806E-01
  weight for this iteration     100.00
  WARNING: grid for Broyden might be to small

 eigenvalues of (default mixing * dielectric matrix)
  average eigenvalue GAMMA=   0.9438
  2.5823  0.9482  0.6423  0.6219  0.3633  0.5046

 Free energy of the ion-electron system (eV)
  ---------------------------------------------------
  alpha Z        PSCENC =        67.54477748
  Ewald energy   TEWEN  =     -1611.70208679
  -Hartree energ DENC   =     -4377.83672727
  -exchange      EXHF   =         0.00000000
  -V(xc)+E(xc)   XCENC  =      -245.75536772
  PAW double counting   =     33074.42461791   -32536.14142049
  entropy T*S    EENTRO =        -0.07815974
  eigenvalues    EBANDS =      -534.68385299
  atomic energy  EATOM  =      5628.05094236
  Solvation  Ediel_sol  =         0.00000000
  ---------------------------------------------------
  free energy    TOTEN  =      -536.17727724 eV

  energy without entropy =     -536.09911750  energy(sigma->0) =     -536.13819737


--------------------------------------------------------------------------------------------------------




--------------------------------------- Iteration      1(   8)  ---------------------------------------


    POTLOK:  cpu time      0.4938: real time      0.5236
    SETDIJ:  cpu time      0.9084: real time      0.9091
    EDDIAG:  cpu time     11.1188: real time     11.1278
     EDDAV:  cpu time     52.0385: real time     52.0842
       DOS:  cpu time      0.0035: real time      0.0035
    CHARGE:  cpu time      3.9100: real time      3.9132
    MIXING:  cpu time      0.0102: real time      0.0102
    --------------------------------------------
      LOOP:  cpu time     68.4833: real time     68.5716

 eigenvalue-minimisations  :  3656
 total energy-change (2. order) :-0.7109866E-03  (-0.2218032E-03)
 number of electron     220.9999999 magnetization 
 augmentation part      -11.9202366 magnetization 

 Broyden mixing:
  rms(total) = 0.46427E-02    rms(broyden)= 0.72824E-01
  rms(prec ) = 0.65538E-02
  weight for this iteration     100.00
  WARNING: grid for Broyden might be to small

 eigenvalues of (default mixing * dielectric matrix)
  average eigenvalue GAMMA=   0.9808
  2.5564  1.2919  0.8704  0.3575  0.6388  0.6388  0.5118

 Free energy of the ion-electron system (eV)
  ---------------------------------------------------
  alpha Z        PSCENC =        67.54477748
  Ewald energy   TEWEN  =     -1611.70208679
  -Hartree energ DENC   =     -4378.00010880
  -exchange      EXHF   =         0.00000000
  -V(xc)+E(xc)   XCENC  =      -245.68239430
  PAW double counting   =     33066.16930900   -32527.87722213
  entropy T*S    EENTRO =        -0.07784196
  eigenvalues    EBANDS =      -534.60336308
  atomic energy  EATOM  =      5628.05094236
  Solvation  Ediel_sol  =         0.00000000
  ---------------------------------------------------
  free energy    TOTEN  =      -536.17798823 eV

  energy without entropy =     -536.10014627  energy(sigma->0) =     -536.13906725


--------------------------------------------------------------------------------------------------------




--------------------------------------- Iteration      1(   9)  ---------------------------------------


    POTLOK:  cpu time      0.4929: real time      0.5229
    SETDIJ:  cpu time      0.9069: real time      0.9070
    EDDIAG:  cpu time     11.1262: real time     11.1352
     EDDAV:  cpu time     53.0098: real time     53.0566
       DOS:  cpu time      0.0036: real time      0.0036
    CHARGE:  cpu time      3.9416: real time      3.9445
    MIXING:  cpu time      0.0106: real time      0.0106
    --------------------------------------------
      LOOP:  cpu time     69.4919: real time     69.5808

 eigenvalue-minimisations  :  3784
 total energy-change (2. order) :-0.1843681E-03  (-0.4540192E-04)
 number of electron     220.9999999 magnetization 
 augmentation part      -11.9201372 magnetization 

 Broyden mixing:
  rms(total) = 0.15512E-02    rms(broyden)= 0.64830E-01
  rms(prec ) = 0.22231E-02
  weight for this iteration     100.00
  WARNING: grid for Broyden might be to small

 eigenvalues of (default mixing * dielectric matrix)
  average eigenvalue GAMMA=   1.1138
  2.5290  2.3514  1.0071  0.8431  0.3576  0.6401  0.6269  0.5551

 Free energy of the ion-electron system (eV)
  ---------------------------------------------------
  alpha Z        PSCENC =        67.54477748
  Ewald energy   TEWEN  =     -1611.70208679
  -Hartree energ DENC   =     -4378.02430774
  -exchange      EXHF   =         0.00000000
  -V(xc)+E(xc)   XCENC  =      -245.67653348
  PAW double counting   =     33084.27317601   -32545.97777725
  entropy T*S    EENTRO =        -0.07781842
  eigenvalues    EBANDS =      -534.58854478
  atomic energy  EATOM  =      5628.05094236
  Solvation  Ediel_sol  =         0.00000000
  ---------------------------------------------------
  free energy    TOTEN  =      -536.17817259 eV

  energy without entropy =     -536.10035417  energy(sigma->0) =     -536.13926338


--------------------------------------------------------------------------------------------------------




--------------------------------------- Iteration      1(  10)  ---------------------------------------


    POTLOK:  cpu time      0.4927: real time      0.5207
    SETDIJ:  cpu time      0.9071: real time      0.9082
    EDDIAG:  cpu time     11.1360: real time     11.1457
     EDDAV:  cpu time     52.3532: real time     52.4022
       DOS:  cpu time      0.0033: real time      0.0033
    CHARGE:  cpu time      4.0042: real time      4.0074
    MIXING:  cpu time      0.0108: real time      0.0108
    --------------------------------------------
      LOOP:  cpu time     68.9071: real time     68.9981

 eigenvalue-minimisations  :  3704
 total energy-change (2. order) :-0.4513875E-04  (-0.2409091E-04)
 number of electron     220.9999999 magnetization 
 augmentation part      -11.9201882 magnetization 

 Broyden mixing:
  rms(total) = 0.10038E-02    rms(broyden)= 0.48358E-01
  rms(prec ) = 0.17594E-02
  weight for this iteration     100.00
  WARNING: grid for Broyden might be to small

 eigenvalues of (default mixing * dielectric matrix)
  average eigenvalue GAMMA=   1.1366
  2.6435  2.6435  0.9656  0.9656  0.3576  0.8397  0.5649  0.6279  0.6211

 Free energy of the ion-electron system (eV)
  ---------------------------------------------------
  alpha Z        PSCENC =        67.54477748
  Ewald energy   TEWEN  =     -1611.70208679
  -Hartree energ DENC   =     -4377.97762860
  -exchange      EXHF   =         0.00000000
  -V(xc)+E(xc)   XCENC  =      -245.68703512
  PAW double counting   =     33083.23441046   -32544.93774338
  entropy T*S    EENTRO =        -0.07780873
  eigenvalues    EBANDS =      -534.62604542
  atomic energy  EATOM  =      5628.05094236
  Solvation  Ediel_sol  =         0.00000000
  ---------------------------------------------------
  free energy    TOTEN  =      -536.17821773 eV

  energy without entropy =     -536.10040900  energy(sigma->0) =     -536.13931337


--------------------------------------------------------------------------------------------------------




--------------------------------------- Iteration      1(  11)  ---------------------------------------


    POTLOK:  cpu time      0.4943: real time      0.5227
    SETDIJ:  cpu time      0.9055: real time      0.9068
    EDDIAG:  cpu time     11.1568: real time     11.1663
     EDDAV:  cpu time     54.0526: real time     54.0976
       DOS:  cpu time      0.0039: real time      0.0039
    CHARGE:  cpu time      3.9308: real time      3.9342
    MIXING:  cpu time      0.0110: real time      0.0110
    --------------------------------------------
      LOOP:  cpu time     70.5548: real time     70.6425

 eigenvalue-minimisations  :  3912
 total energy-change (2. order) :-0.7706067E-04  (-0.5940216E-05)
 number of electron     220.9999999 magnetization 
 augmentation part      -11.9202058 magnetization 

 Broyden mixing:
  rms(total) = 0.44102E-03    rms(broyden)= 0.76220E-02
  rms(prec ) = 0.79653E-03
  weight for this iteration     100.00
  WARNING: grid for Broyden might be to small

 eigenvalues of (default mixing * dielectric matrix)
  average eigenvalue GAMMA=   1.1903
  2.9409  2.6288  1.5572  1.0891  0.8574  0.3576  0.6797  0.6324  0.5797  0.5797

 Free energy of the ion-electron system (eV)
  ---------------------------------------------------
  alpha Z        PSCENC =        67.54477748
  Ewald energy   TEWEN  =     -1611.70208679
  -Hartree energ DENC   =     -4377.93068178
  -exchange      EXHF   =         0.00000000
  -V(xc)+E(xc)   XCENC  =      -245.69000137
  PAW double counting   =     33081.38697453   -32543.08956945
  entropy T*S    EENTRO =        -0.07780585
  eigenvalues    EBANDS =      -534.67084392
  atomic energy  EATOM  =      5628.05094236
  Solvation  Ediel_sol  =         0.00000000
  ---------------------------------------------------
  free energy    TOTEN  =      -536.17829479 eV

  energy without entropy =     -536.10048894  energy(sigma->0) =     -536.13939187


--------------------------------------------------------------------------------------------------------




--------------------------------------- Iteration      1(  12)  ---------------------------------------


    POTLOK:  cpu time      0.4987: real time      0.5261
    SETDIJ:  cpu time      0.9074: real time      0.9079
    EDDIAG:  cpu time     11.1416: real time     11.1511
     EDDAV:  cpu time     52.1194: real time     52.1659
       DOS:  cpu time      0.0043: real time      0.0043
    CHARGE:  cpu time      3.9804: real time      3.9835
    MIXING:  cpu time      0.0109: real time      0.0109
    --------------------------------------------
      LOOP:  cpu time     68.6627: real time     68.7497

 eigenvalue-minimisations  :  3672
 total energy-change (2. order) :-0.7904783E-04  (-0.5758096E-05)
 number of electron     220.9999999 magnetization 
 augmentation part      -11.9202500 magnetization 

 Broyden mixing:
  rms(total) = 0.26171E-03    rms(broyden)= 0.49851E-02
  rms(prec ) = 0.50237E-03
  weight for this iteration     100.00
  WARNING: grid for Broyden might be to small

 eigenvalues of (default mixing * dielectric matrix)
  average eigenvalue GAMMA=   1.1992
  3.1430  2.6339  1.7175  1.0177  1.0177  0.3576  0.8718  0.5609  0.6425  0.6096
  0.6196

 Free energy of the ion-electron system (eV)
  ---------------------------------------------------
  alpha Z        PSCENC =        67.54477748
  Ewald energy   TEWEN  =     -1611.70208679
  -Hartree energ DENC   =     -4377.85600636
  -exchange      EXHF   =         0.00000000
  -V(xc)+E(xc)   XCENC  =      -245.69488070
  PAW double counting   =     33080.33141322   -32542.03377242
  entropy T*S    EENTRO =        -0.07781934
  eigenvalues    EBANDS =      -534.74094130
  atomic energy  EATOM  =      5628.05094236
  Solvation  Ediel_sol  =         0.00000000
  ---------------------------------------------------
  free energy    TOTEN  =      -536.17837384 eV

  energy without entropy =     -536.10055450  energy(sigma->0) =     -536.13946417


--------------------------------------------------------------------------------------------------------




--------------------------------------- Iteration      1(  13)  ---------------------------------------


    POTLOK:  cpu time      0.4906: real time      0.5214
    SETDIJ:  cpu time      0.9090: real time      0.9091
    EDDIAG:  cpu time     11.1324: real time     11.1418
     EDDAV:  cpu time     53.1181: real time     53.1617
       DOS:  cpu time      0.0040: real time      0.0040
    CHARGE:  cpu time      3.9258: real time      3.9293
    MIXING:  cpu time      0.0111: real time      0.0111
    --------------------------------------------
      LOOP:  cpu time     69.5911: real time     69.6784

 eigenvalue-minimisations  :  3792
 total energy-change (2. order) :-0.3822667E-04  (-0.2189999E-05)
 number of electron     220.9999999 magnetization 
 augmentation part      -11.9202922 magnetization 

 Broyden mixing:
  rms(total) = 0.13865E-03    rms(broyden)= 0.73465E-02
  rms(prec ) = 0.31609E-03
  weight for this iteration     100.00
  WARNING: grid for Broyden might be to small

 eigenvalues of (default mixing * dielectric matrix)
  average eigenvalue GAMMA=   1.2205
  3.2952  2.6369  1.8934  1.1557  1.1557  0.3576  0.9158  0.7970  0.5637  0.6438
  0.6055  0.6259

 Free energy of the ion-electron system (eV)
  ---------------------------------------------------
  alpha Z        PSCENC =        67.54477748
  Ewald energy   TEWEN  =     -1611.70208679
  -Hartree energ DENC   =     -4377.80306184
  -exchange      EXHF   =         0.00000000
  -V(xc)+E(xc)   XCENC  =      -245.70033585
  PAW double counting   =     33079.85294409   -32541.55554366
  entropy T*S    EENTRO =        -0.07780661
  eigenvalues    EBANDS =      -534.78824125
  atomic energy  EATOM  =      5628.05094236
  Solvation  Ediel_sol  =         0.00000000
  ---------------------------------------------------
  free energy    TOTEN  =      -536.17841207 eV

  energy without entropy =     -536.10060546  energy(sigma->0) =     -536.13950876


--------------------------------------------------------------------------------------------------------




--------------------------------------- Iteration      1(  14)  ---------------------------------------


    POTLOK:  cpu time      0.5191: real time      0.5194
    SETDIJ:  cpu time      0.9077: real time      0.9090
    EDDIAG:  cpu time     11.1228: real time     11.1323
     EDDAV:  cpu time     51.3279: real time     51.3712
       DOS:  cpu time      0.0037: real time      0.0037
    CHARGE:  cpu time      3.9581: real time      3.9614
    MIXING:  cpu time      0.0113: real time      0.0113
    --------------------------------------------
      LOOP:  cpu time     67.8507: real time     67.9084

 eigenvalue-minimisations  :  3576
 total energy-change (2. order) :-0.1942314E-04  (-0.1133856E-05)
 number of electron     220.9999999 magnetization 
 augmentation part      -11.9202960 magnetization 

 Broyden mixing:
  rms(total) = 0.10480E-03    rms(broyden)= 0.51787E-02
  rms(prec ) = 0.22024E-03
  weight for this iteration     100.00
  WARNING: grid for Broyden might be to small

 eigenvalues of (default mixing * dielectric matrix)
  average eigenvalue GAMMA=   1.2676
  3.6283  2.5346  2.5346  1.2588  1.0960  1.0141  0.9516  0.3576  0.6973  0.6286
  0.6229  0.5775  0.5775

 Free energy of the ion-electron system (eV)
  ---------------------------------------------------
  alpha Z        PSCENC =        67.54477748
  Ewald energy   TEWEN  =     -1611.70208679
  -Hartree energ DENC   =     -4377.76936305
  -exchange      EXHF   =         0.00000000
  -V(xc)+E(xc)   XCENC  =      -245.70138448
  PAW double counting   =     33080.06033360   -32541.76308266
  entropy T*S    EENTRO =        -0.07780920
  eigenvalues    EBANDS =      -534.82075876
  atomic energy  EATOM  =      5628.05094236
  Solvation  Ediel_sol  =         0.00000000
  ---------------------------------------------------
  free energy    TOTEN  =      -536.17843149 eV

  energy without entropy =     -536.10062229  energy(sigma->0) =     -536.13952689


--------------------------------------------------------------------------------------------------------




--------------------------------------- Iteration      1(  15)  ---------------------------------------


    POTLOK:  cpu time      0.4935: real time      0.5237
    SETDIJ:  cpu time      0.9091: real time      0.9102
    EDDIAG:  cpu time     11.1446: real time     11.1533
     EDDAV:  cpu time     52.6962: real time     52.7440
       DOS:  cpu time      0.0038: real time      0.0038
    CHARGE:  cpu time      3.9650: real time      3.9682
    MIXING:  cpu time      0.0116: real time      0.0116
    --------------------------------------------
      LOOP:  cpu time     69.2237: real time     69.3148

 eigenvalue-minimisations  :  3744
 total energy-change (2. order) :-0.1186496E-04  (-0.1001175E-05)
 number of electron     220.9999999 magnetization 
 augmentation part      -11.9202952 magnetization 

 Broyden mixing:
  rms(total) = 0.86192E-04    rms(broyden)= 0.22043E-02
  rms(prec ) = 0.15021E-03
  weight for this iteration     100.00
  WARNING: grid for Broyden might be to small

 eigenvalues of (default mixing * dielectric matrix)
  average eigenvalue GAMMA=   1.2748
  3.7789  2.6108  2.6108  1.2675  1.2675  1.0721  0.9938  0.3576  0.8219  0.6813
  0.5705  0.5705  0.6223  0.6223

 Free energy of the ion-electron system (eV)
  ---------------------------------------------------
  alpha Z        PSCENC =        67.54477748
  Ewald energy   TEWEN  =     -1611.70208679
  -Hartree energ DENC   =     -4377.73418572
  -exchange      EXHF   =         0.00000000
  -V(xc)+E(xc)   XCENC  =      -245.70114034
  PAW double counting   =     33080.54022837   -32542.24314062
  entropy T*S    EENTRO =        -0.07780849
  eigenvalues    EBANDS =      -534.85602961
  atomic energy  EATOM  =      5628.05094236
  Solvation  Ediel_sol  =         0.00000000
  ---------------------------------------------------
  free energy    TOTEN  =      -536.17844336 eV

  energy without entropy =     -536.10063487  energy(sigma->0) =     -536.13953911


--------------------------------------------------------------------------------------------------------




--------------------------------------- Iteration      1(  16)  ---------------------------------------


    POTLOK:  cpu time      0.5197: real time      0.5198
    SETDIJ:  cpu time      0.9042: real time      0.9054
    EDDIAG:  cpu time     11.1566: real time     11.1660
     EDDAV:  cpu time     45.7480: real time     45.7891
       DOS:  cpu time      0.0037: real time      0.0037
    CHARGE:  cpu time      3.9457: real time      3.9491
    MIXING:  cpu time      0.0118: real time      0.0118
    --------------------------------------------
      LOOP:  cpu time     62.2898: real time     62.3448

 eigenvalue-minimisations  :  2896
 total energy-change (2. order) :-0.2374200E-05  (-0.1656628E-06)
 number of electron     220.9999999 magnetization 
 augmentation part      -11.9203020 magnetization 

 Broyden mixing:
  rms(total) = 0.48644E-04    rms(broyden)= 0.12708E-02
  rms(prec ) = 0.84208E-04
  weight for this iteration     100.00
  WARNING: grid for Broyden might be to small

 eigenvalues of (default mixing * dielectric matrix)
  average eigenvalue GAMMA=   1.3246
  3.9870  2.7161  2.7161  1.9361  1.2500  1.0723  1.0723  0.9317  0.3576  0.7755
  0.6421  0.6421  0.5715  0.5847  0.6143

 Free energy of the ion-electron system (eV)
  ---------------------------------------------------
  alpha Z        PSCENC =        67.54477748
  Ewald energy   TEWEN  =     -1611.70208679
  -Hartree energ DENC   =     -4377.72106692
  -exchange      EXHF   =         0.00000000
  -V(xc)+E(xc)   XCENC  =      -245.70176214
  PAW double counting   =     33080.30743712   -32542.01037344
  entropy T*S    EENTRO =        -0.07780934
  eigenvalues    EBANDS =      -534.86850406
  atomic energy  EATOM  =      5628.05094236
  Solvation  Ediel_sol  =         0.00000000
  ---------------------------------------------------
  free energy    TOTEN  =      -536.17844573 eV

  energy without entropy =     -536.10063639  energy(sigma->0) =     -536.13954106


--------------------------------------------------------------------------------------------------------




--------------------------------------- Iteration      1(  17)  ---------------------------------------


    POTLOK:  cpu time      0.5223: real time      0.5231
    SETDIJ:  cpu time      0.9058: real time      0.9060
    EDDIAG:  cpu time     11.1032: real time     11.1122
     EDDAV:  cpu time     42.1253: real time     42.1624
       DOS:  cpu time      0.0034: real time      0.0034
    CHARGE:  cpu time      3.9246: real time      3.9280
    MIXING:  cpu time      0.0118: real time      0.0118
    --------------------------------------------
      LOOP:  cpu time     58.5964: real time     58.6470

 eigenvalue-minimisations  :  2448
 total energy-change (2. order) :-0.1020086E-05  (-0.7485293E-07)
 number of electron     220.9999999 magnetization 
 augmentation part      -11.9203056 magnetization 

 Broyden mixing:
  rms(total) = 0.29750E-04    rms(broyden)= 0.12228E-02
  rms(prec ) = 0.54798E-04
  weight for this iteration     100.00
  WARNING: grid for Broyden might be to small

 eigenvalues of (default mixing * dielectric matrix)
  average eigenvalue GAMMA=   1.3448
  4.2987  2.8184  2.8184  2.1842  1.1675  1.1387  1.1387  0.9678  0.3576  0.8492
  0.7324  0.5713  0.6487  0.5873  0.6189  0.6189

 Free energy of the ion-electron system (eV)
  ---------------------------------------------------
  alpha Z        PSCENC =        67.54477748
  Ewald energy   TEWEN  =     -1611.70208679
  -Hartree energ DENC   =     -4377.71441872
  -exchange      EXHF   =         0.00000000
  -V(xc)+E(xc)   XCENC  =      -245.70179181
  PAW double counting   =     33080.14309388   -32541.84598991
  entropy T*S    EENTRO =        -0.07780910
  eigenvalues    EBANDS =      -534.87516415
  atomic energy  EATOM  =      5628.05094236
  Solvation  Ediel_sol  =         0.00000000
  ---------------------------------------------------
  free energy    TOTEN  =      -536.17844675 eV

  energy without entropy =     -536.10063765  energy(sigma->0) =     -536.13954220


--------------------------------------------------------------------------------------------------------




--------------------------------------- Iteration      1(  18)  ---------------------------------------


    POTLOK:  cpu time      0.4941: real time      0.5194
    SETDIJ:  cpu time      0.9082: real time      0.9093
    EDDIAG:  cpu time     11.1042: real time     11.1127
     EDDAV:  cpu time     42.1730: real time     42.2119
       DOS:  cpu time      0.0054: real time      0.0054
    --------------------------------------------
      LOOP:  cpu time     54.6854: real time     54.7591

 eigenvalue-minimisations  :  2456
 total energy-change (2. order) :-0.2030247E-06  (-0.1503949E-07)
 number of electron     220.9999999 magnetization 
 augmentation part      -11.9203056 magnetization 

 Free energy of the ion-electron system (eV)
  ---------------------------------------------------
  alpha Z        PSCENC =        67.54477748
  Ewald energy   TEWEN  =     -1611.70208679
  -Hartree energ DENC   =     -4377.71340390
  -exchange      EXHF   =         0.00000000
  -V(xc)+E(xc)   XCENC  =      -245.70167328
[...]
    OFIELD:  cpu time      0.0003: real time      0.0003

  FORCE on cell =-STRESS in cart. coord.  units (eV):
  Direction    XX          YY          ZZ          XY          YZ          ZX
  --------------------------------------------------------------------------------------
  Alpha Z    67.54478    67.54478    67.54478
  Ewald   -1987.64200 -1858.41989  2234.32800   445.76268    16.52557   -59.02567
  Hartree   223.79894   264.01900  3889.89492   353.78074    21.09355   -37.02307
  E(xc)    -670.03316  -670.67120  -670.29251     0.14710     0.12714     0.32107
  Local    -928.20568 -1090.36536 -8810.42257  -803.16459   -34.39847    98.55199
  n-local  2011.16115  2022.24582  2019.73224     3.21022    -3.00510    -4.13978
  augment  -293.01193  -293.77361  -293.32466    -0.54223     0.28093     0.12915
  Kinetic  1559.36639  1554.82626  1549.34534     4.37046     2.59107     4.45940
  Fock        0.00000     0.00000     0.00000     0.00000     0.00000     0.00000
  -------------------------------------------------------------------------------------
  Total     -17.02150    -4.59420   -13.19447     3.56438     3.21468     3.27308
  in kB     -17.86209    -4.82108   -13.84607     3.74041     3.37344     3.43472
  external pressure =      -12.18 kB  Pullay stress =        0.00 kB


 VOLUME and BASIS-vectors are now :
 -----------------------------------------------------------------------------
  energy-cutoff  :     1200.00
  volume of cell :     1526.78
      direct lattice vectors                 reciprocal lattice vectors
    14.546908013  0.000000000  0.000000000     0.068743131  0.000000000  0.000000000
     0.000000000 14.546908013  0.000000000     0.000000000  0.068743131  0.000000000
     0.000000000  0.000000000  7.214972131     0.000000000  0.000000000  0.138600674

  length of vectors
    14.546908013 14.546908013  7.214972131     0.068743131  0.068743131  0.138600674


 FORCES acting on ions
    electron-ion (+dipol)            ewald-force                    non-local-force                 convergence-correction
 -----------------------------------------------------------------------------------------------
   -.277E+02 -.380E+02 -.101E+02   0.281E+02 0.410E+02 0.115E+02   0.648E-01 -.291E+01 -.107E+01   -.424E-05 -.226E-05 0.833E-05
   0.589E+01 -.547E+02 0.803E+01   -.519E+01 0.580E+02 -.925E+01   -.738E+00 -.300E+01 0.103E+01   0.213E-04 -.181E-04 -.144E-04
   -.275E+02 0.477E+02 -.655E+00   0.278E+02 -.511E+02 0.112E+01   0.552E-01 0.318E+01 -.306E+00   0.193E-06 0.243E-04 0.805E-05
   -.140E+02 0.445E+02 0.322E+01   0.162E+02 -.459E+02 -.328E+01   -.233E+01 0.185E+01 0.115E+00   0.360E-04 -.502E-05 0.286E-04
   -.395E+01 -.392E+02 0.205E+02   0.281E+01 0.408E+02 -.230E+02   0.127E+01 -.112E+01 0.254E+01   -.332E-05 -.806E-06 -.754E-05
   -.488E+02 0.302E+02 0.249E+02   0.452E+02 -.290E+02 -.271E+02   0.292E+01 -.182E+01 0.139E+01   -.574E-04 0.728E-04 -.561E-04
   0.126E+03 0.629E+02 0.131E+02   -.123E+03 -.631E+02 -.122E+02   -.307E+01 0.954E+00 -.684E+00   -.848E-04 0.526E-04 -.140E-04
   0.907E+02 -.331E+02 0.321E+02   -.887E+02 0.313E+02 -.310E+02   -.281E+01 0.235E+01 0.769E+00   -.923E-04 0.260E-04 -.622E-04
   -.939E+02 0.102E+03 -.276E+01   0.909E+02 -.100E+03 0.314E+01   0.391E+01 -.244E+01 -.242E+00   0.623E-04 0.411E-04 -.187E-04
   0.642E+02 -.124E+03 -.165E+02   -.624E+02 0.121E+03 0.137E+02   -.190E+01 0.253E+01 0.264E+01   -.477E-04 0.131E-04 -.282E-04
   -.319E+02 -.438E+02 0.170E+02   0.299E+02 0.428E+02 -.159E+02   0.247E+01 0.834E+00 -.215E+01   -.351E-05 -.355E-04 0.462E-06
   0.449E+02 0.119E+01 -.255E+02   -.444E+02 -.172E+01 0.226E+02   0.494E+00 0.429E+00 0.207E+01   0.410E-05 -.456E-04 0.192E-04
   -.348E+02 -.417E+02 -.620E+01   0.350E+02 0.421E+02 0.682E+01   0.563E+00 0.138E+00 -.158E+01   -.136E-04 -.292E-04 -.150E-04
   0.760E+02 -.572E+02 0.944E+01   -.767E+02 0.575E+02 -.899E+01   0.664E+00 -.794E+00 -.674E-01   -.115E-03 -.416E-04 -.241E-05
   -.192E+02 -.454E+01 -.261E+00   0.170E+02 0.344E+01 0.639E+00   0.264E+01 0.314E+00 -.127E+00   -.302E-04 -.321E-04 0.199E-04
   -.195E+02 0.237E+02 -.693E+00   0.194E+02 -.245E+02 0.191E+01   -.807E+00 0.141E+01 -.157E+01   -.728E-04 0.423E-04 0.395E-05
   0.220E+02 0.268E+02 0.982E+01   -.224E+02 -.265E+02 -.878E+01   0.113E+01 -.496E-01 -.179E+01   -.793E-04 -.588E-04 0.241E-04
   0.623E+02 0.937E+02 -.834E+01   -.620E+02 -.918E+02 0.772E+01   -.487E+00 -.135E+01 0.250E+00   -.153E-04 -.144E-03 -.103E-03
   0.317E+02 -.163E+02 -.294E+02   -.323E+02 0.150E+02 0.284E+02   0.738E+00 0.140E+01 0.145E+01   -.831E-04 0.719E-05 0.598E-04
   0.134E+03 0.286E+02 0.712E+01   -.131E+03 -.283E+02 -.750E+01   -.232E+01 -.376E+00 0.187E+00   -.137E-03 0.709E-04 -.100E-04
   0.104E+03 0.978E+02 0.222E+02   -.103E+03 -.953E+02 -.205E+02   -.111E+01 -.230E+01 -.203E+01   -.674E-04 -.370E-04 0.116E-03
   0.262E+02 -.617E+01 -.111E+02   -.263E+02 0.776E+01 0.845E+01   -.830E+00 -.159E+01 0.341E+01   -.222E-04 -.333E-04 0.274E-04
   -.595E+02 -.548E+02 0.223E+02   0.584E+02 0.535E+02 -.206E+02   0.205E+01 0.184E+01 -.186E+01   0.126E-04 -.379E-04 0.337E-06
   0.386E+02 -.137E+03 -.967E+01   -.369E+02 0.139E+03 0.771E+01   -.225E+01 -.228E+01 0.174E+01   0.259E-04 -.420E-04 -.428E-04
   0.109E+03 0.857E+02 -.199E+02   -.109E+03 -.835E+02 0.174E+02   0.186E+00 -.244E+01 0.215E+01   -.182E-03 0.612E-04 -.607E-04
   -.688E+02 -.934E+02 -.828E+01   0.693E+02 0.963E+02 0.878E+01   -.567E+00 -.252E+01 -.118E+01   -.542E-05 -.356E-05 0.504E-05
   0.852E+02 0.302E+02 -.296E+02   -.833E+02 -.315E+02 0.294E+02   -.208E+01 0.574E+00 0.451E+00   -.177E-03 0.872E-04 0.401E-04
   0.697E+01 -.391E+02 0.110E+02   -.507E+01 0.375E+02 -.104E+02   -.311E+01 0.155E+01 0.144E+00   0.534E-04 -.294E-04 0.171E-04
   0.376E+02 -.723E+02 0.290E+02   -.351E+02 0.715E+02 -.272E+02   -.150E+01 0.126E+01 -.110E+01   0.275E-04 -.425E-04 -.187E-05
   -.427E+02 -.130E+03 -.579E+01   0.406E+02 0.129E+03 0.285E+01   0.196E+01 0.926E+00 0.303E+01   0.137E-04 -.283E-04 -.351E-04
   0.346E+02 0.132E+02 0.387E+01   -.348E+02 -.126E+02 -.378E+01   -.616E+00 -.290E+00 0.426E+00   -.449E-04 -.946E-04 -.209E-04
   0.268E+01 0.163E+02 0.996E+01   -.189E+01 -.184E+02 -.105E+02   -.878E+00 0.228E+01 0.132E+01   -.826E-04 0.443E-04 0.966E-05
   -.242E+02 -.275E+02 0.209E+01   0.256E+02 0.295E+02 -.121E+01   -.126E+01 -.197E+01 -.120E+01   -.127E-05 -.205E-05 0.574E-05
   -.708E+02 0.518E+02 -.158E+02   0.698E+02 -.487E+02 0.180E+02   0.103E+01 -.333E+01 -.170E+01   -.589E-04 0.807E-04 0.255E-05
   0.674E+02 -.609E+02 0.211E+02   -.662E+02 0.616E+02 -.202E+02   -.210E+01 -.101E+01 -.156E+01   -.244E-04 -.220E-04 -.254E-04
   -.409E+02 -.233E+02 -.250E+02   0.400E+02 0.254E+02 0.240E+02   0.772E+00 -.262E+01 0.181E+01   0.255E-04 -.823E-04 0.292E-05
   -.126E+03 0.312E+02 0.220E+02   0.123E+03 -.300E+02 -.221E+02   0.308E+01 -.144E+01 0.791E+00   -.116E-04 -.286E-04 0.853E-05
   -.612E+02 0.348E+02 0.892E+01   0.609E+02 -.367E+02 -.891E+01   0.809E+00 0.199E+01 0.585E+00   0.154E-05 0.369E-04 -.128E-05
   -.532E+02 -.525E+01 0.335E+02   0.501E+02 0.656E+01 -.331E+02   0.373E+01 -.139E+01 -.224E+01   -.766E-05 -.161E-04 -.175E-04
   -.223E+02 0.284E+01 -.835E+01   0.223E+02 -.257E+01 0.658E+01   0.450E+00 -.171E+00 0.254E+01   -.294E-04 -.256E-05 0.272E-05
   0.127E+03 0.123E+03 0.165E+01   -.130E+03 -.125E+03 -.905E+00   0.194E+01 0.567E+00 -.440E+00   -.132E-03 -.114E-03 0.189E-04
   -.751E+02 -.774E+01 -.270E+02   0.730E+02 0.696E+01 0.273E+02   0.191E+01 0.113E+01 -.970E+00   0.293E-04 -.694E-04 0.133E-04
   0.798E+02 -.103E+03 -.957E+00   -.785E+02 0.102E+03 0.179E+01   -.139E+01 0.233E+00 -.565E+00   -.335E-04 -.125E-04 0.353E-04
   -.357E+02 0.992E+02 0.962E+01   0.365E+02 -.100E+03 -.906E+01   -.102E+01 0.830E+00 -.396E+00   0.998E-04 -.220E-04 0.428E-04
   0.121E+03 -.922E+02 -.151E+02   -.122E+03 0.948E+02 0.134E+02   0.766E+00 -.177E+01 0.139E+01   -.119E-03 0.304E-04 0.121E-04
   0.274E+02 0.553E+02 0.309E+00   -.276E+02 -.547E+02 0.112E+00   -.122E+00 -.890E+00 -.112E+01   0.133E-04 -.768E-04 -.492E-04
   -.559E+02 -.733E+02 -.172E+02   0.524E+02 0.716E+02 0.163E+02   0.326E+01 0.129E+01 0.682E+00   0.241E-04 -.163E-04 0.123E-04
   -.164E+03 0.284E+02 -.100E+02   0.169E+03 -.293E+02 0.115E+02   -.348E+01 0.124E+01 -.142E+01   0.805E-04 -.589E-04 -.322E-04
   -.366E+02 0.831E+02 -.688E+01   0.380E+02 -.806E+02 0.661E+01   -.121E+01 -.308E+01 0.557E+00   0.813E-04 -.186E-04 -.775E-06
   0.265E+02 0.285E+02 -.224E+02   -.263E+02 -.279E+02 0.205E+02   0.362E+00 -.553E+00 0.308E+01   -.127E-03 0.181E-04 -.162E-04
   -.324E+02 -.512E+02 0.125E+02   0.320E+02 0.507E+02 -.108E+02   -.328E+00 -.201E-01 -.103E+01   0.451E-04 -.208E-04 -.791E-05
   -.830E+02 0.109E+03 0.364E+01   0.832E+02 -.111E+03 -.391E+01   -.323E+00 0.201E+01 0.702E+00   0.442E-04 0.482E-04 0.160E-04
   -.369E+02 0.208E+02 0.142E+02   0.360E+02 -.214E+02 -.125E+02   0.781E+00 0.888E+00 -.289E+01   -.806E-04 0.759E-04 -.102E-04
   0.680E+02 -.114E+03 -.174E+02   -.683E+02 0.114E+03 0.187E+02   0.171E+00 0.138E+01 -.110E+01   0.127E-04 -.137E-04 0.111E-04
   0.685E+01 -.417E+02 0.903E+01   -.743E+01 0.407E+02 -.728E+01   0.526E+00 0.572E+00 -.191E+01   -.262E-04 -.487E-04 -.112E-04
   0.597E+02 0.706E+02 -.143E+02   -.590E+02 -.695E+02 0.131E+02   -.936E-01 -.117E+01 0.122E+01   -.140E-04 -.717E-04 0.241E-04
   -.970E+02 0.857E+02 -.112E+01   0.963E+02 -.837E+02 0.255E+01   0.260E+00 -.203E+01 -.261E+01   0.320E-04 0.852E-04 -.250E-05
   -.151E+03 0.738E+02 -.875E+01   0.150E+03 -.734E+02 0.649E+01   0.126E+01 -.657E+00 0.291E+01   -.446E-05 0.178E-04 0.271E-04
   -.273E+02 -.747E+01 -.127E+02   0.304E+02 0.708E+01 0.111E+02   -.372E+01 0.162E+01 0.110E+01   0.223E-04 -.101E-04 -.960E-05
 -----------------------------------------------------------------------------------------------
   0.273E+00 0.982E+01 -.559E+01   -.121E-12 0.259E-12 -.480E-13   -.267E+00 -.983E+01 0.557E+01   -.132E-02 -.532E-03 -.537E-04


 POSITION                                       TOTAL-FORCE (eV/Angst)
 -----------------------------------------------------------------------------------
      0.43112     10.19650      1.62877         0.411055      0.098948      0.368006
      4.69249     10.25910      5.72334        -0.035162      0.375952     -0.190699
      1.51197      1.34624      2.44544         0.262775     -0.237803      0.163879
      4.47471      3.12434      3.32745        -0.065989      0.396233      0.061190
      1.35574      9.25571      5.15420         0.119086      0.555300      0.026511
     12.08090     14.54056      1.64864        -0.599156     -0.722208     -0.641979
      9.21577      1.30899      1.04060         0.056220      0.893511      0.251670
     10.27160     11.76450      1.45981        -0.826591      0.667228      1.991695
      1.36377      3.59661      0.09339         0.985297     -0.597034      0.130564
      7.89590      8.99635      5.94972        -0.221504     -0.611862     -0.153074
     11.63410      7.31174      6.52618         0.597845     -0.057390     -1.140232
      5.28136      6.16996      1.10192         0.989001     -0.074715     -0.815405
     12.09080      7.15283      4.18474         0.746193      0.510735     -1.096170
      9.36278     10.02040      2.62170         0.047053     -0.467921      0.378012
     10.91490      5.96644      2.38049         0.507472     -0.776087      0.246447
     12.35140      3.29351      6.71424        -0.937956      0.648670     -0.411763
      9.62795      4.39248      3.59672         0.724384      0.182936     -0.791177
      7.04470      4.27662      6.11146        -0.253620      0.578361     -0.371660
     10.62590     11.82730      5.20801         0.150966      0.213564      0.430990
      9.82699     13.92050      2.26206         0.520161     -0.107437     -0.230275
      8.07839      2.99031      2.54095        -0.072292      0.070440     -0.391149
      8.93437      6.61418      1.27748        -0.945221     -0.083944      0.954135
     12.51160      8.99291      0.63052         1.043558      0.673784     -0.300141
      4.37113      8.90475      6.18720        -0.645018     -0.428659     -0.185508
      9.08129      1.37691      5.80592         0.118443     -0.276789     -0.305542
      0.43540      8.81589      1.08443        -0.109394      0.217380     -0.726582
     10.30700     14.17420      4.62353        -0.229097     -0.729089      0.239773
      3.63906      6.29721      2.66284        -1.326377      0.034076      0.772619
      4.79347      7.17538      4.54223         0.953211      0.467842      0.658472
      1.95324      8.66023      6.38102        -0.169355     -0.122404      0.145948
      8.44268      5.80822      4.89164        -0.886645      0.229497      0.559741
     11.45080      2.12815      1.21169        -0.113488      0.169661      0.868724
     14.32560      6.10752      4.06724         0.145345     -0.082617     -0.407018
     12.54200      0.14587      4.02119        -0.015503     -0.461463      0.316469
      7.15730      7.65191      4.20183        -1.014854     -0.296569     -0.721529
     11.62980      9.15632      2.77079        -0.040999     -0.640636      0.874856
     13.28470     13.27500      0.08595        -0.162221     -0.312700      0.807444
     14.23830      3.57649      3.72694         0.563461      0.165694      0.646542
     11.87020     11.32780      0.01709         0.793964     -0.099512     -1.934777
     12.45440      5.45531      0.43318         0.410514      0.102733      0.893041
      7.20514      2.38113      4.70186        -0.013586     -0.570668      0.321693
     11.93890     11.40150      3.32888        -0.134524      0.420916     -0.837681
      7.70798      8.53581      2.09541        -0.123761     -0.861205      0.254131
      3.26856      4.03361      3.38794        -0.266497     -0.414448      0.157669
      8.56201     10.84180      4.71183         0.164415      0.552466     -0.167685
      4.95404      5.44011      6.16894        -0.329202     -0.316727     -0.735255
      1.21740      6.92117      2.31941        -0.187299     -0.370284     -0.257537
     13.72450     12.88220      2.64268         0.160819      0.472771     -0.091342
      2.81801      4.68057      5.65001         0.164952     -0.687702      0.324657
     10.66360      2.95344      5.01033         0.669189      0.041197      1.255202
      1.34390      6.49465      5.79300        -0.848621     -0.586561      0.658238
      1.51249      2.81484      2.29177        -0.121427      0.692772      0.481909
     12.25780      2.37061      3.48412        -0.103285      0.339780     -1.299750
      6.21177      8.21199      0.33521        -0.151676      0.892216      0.165536
      9.39277      7.30948      6.40209        -0.044134     -0.466861     -0.250340
      7.24532      4.82496      1.22595         0.576938     -0.179764      0.049068
     14.41100      2.49400      6.02716        -0.415252     -0.104089     -1.319826
     14.15150      0.15935      5.61298         0.395730     -0.226674      0.865262
      0.38959      5.55650      0.59203        -0.868342      1.307158     -0.546000
 -----------------------------------------------------------------------------------
    total drift:                                0.005448     -0.008709     -0.013441


--------------------------------------------------------------------------------------------------------



  FREE ENERGIE OF THE ION-ELECTRON SYSTEM (eV)
  ---------------------------------------------------
  free  energy   TOTEN  =      -536.17844695 eV

  energy  without entropy=     -536.10063791  energy(sigma->0) =     -536.13954243



--------------------------------------------------------------------------------------------------------


    POTLOK:  cpu time      1.3929: real time      1.3938


--------------------------------------------------------------------------------------------------------


     LOOP+:  cpu time   1303.6063: real time   1305.0594
    4ORBIT:  cpu time      0.0000: real time      0.0000



 total charge

# of ion       s       p       d       tot
------------------------------------------
    1        0.571   0.016   0.000   0.587
    2        0.576   0.016   0.000   0.593
    3        0.570   0.016   0.000   0.586
    4        0.554   0.015   0.000   0.568
    5        0.564   0.016   0.000   0.580
    6        0.776   0.915   0.000   1.691
    7        0.753   0.872   0.000   1.625
    8        0.767   0.957   0.000   1.724
    9        0.750   0.979   0.000   1.729
   10        0.759   0.942   0.000   1.701
   11        0.750   0.976   0.000   1.726
   12        0.756   0.960   0.000   1.715
   13        0.751   0.863   0.000   1.614
   14        0.757   0.926   0.000   1.683
   15        0.755   0.884   0.000   1.639
   16        0.755   0.958   0.000   1.713
   17        0.767   0.964   0.000   1.731
   18        0.755   0.914   0.000   1.669
   19        0.757   0.909   0.000   1.666
   20        0.756   0.906   0.000   1.662
   21        0.755   0.888   0.000   1.643
   22        0.765   0.934   0.000   1.699
   23        0.753   0.898   0.000   1.651
   24        0.741   0.933   0.000   1.673
   25        0.750   0.886   0.000   1.637
   26        0.740   0.914   0.000   1.654
   27        0.764   0.872   0.000   1.636
   28        0.745   0.913   0.000   1.659
   29        0.749   0.921   0.000   1.670
   30        0.738   0.950   0.000   1.689
   31        0.762   0.962   0.000   1.724
   32        0.765   0.963   0.000   1.728
   33        0.750   0.872   0.000   1.622
   34        0.754   0.955   0.000   1.709
   35        0.759   0.935   0.000   1.694
   36        0.759   0.901   0.000   1.660
   37        0.767   0.864   0.000   1.632
   38        0.754   0.868   0.000   1.622
   39        0.753   0.911   0.000   1.664
   40        0.753   0.892   0.000   1.646
   41        0.801   0.825   0.000   1.626
   42        0.772   0.905   0.000   1.677
   43        0.760   0.948   0.000   1.708
   44        0.738   0.943   0.000   1.682
   45        0.797   0.859   0.000   1.656
   46        0.756   0.953   0.000   1.708
   47        0.748   0.899   0.000   1.647
   48        0.846   0.744   0.000   1.590
   49        0.754   0.919   0.000   1.673
   50        0.760   0.962   0.000   1.722
   51        0.754   0.953   0.000   1.707
   52        0.737   0.954   0.000   1.691
   53        0.766   0.943   0.000   1.710
   54        0.750   0.899   0.000   1.648
   55        0.763   1.006   0.000   1.770
   56        0.757   0.884   0.000   1.641
   57        0.755   0.928   0.000   1.682
   58        0.790   0.856   0.000   1.646
   59        0.756   0.948   0.000   1.704
--------------------------------------------------
tot         43.838  49.563   0.000  93.401


 total amount of memory used by VASP MPI-rank0   134412. kBytes
=======================================================================

   base                                    :      30000. kBytes
   nonl-proj                               :      22320. kBytes
   fftplans                                :      28726. kBytes
   grid                                    :      22140. kBytes
   one-center                              :         12. kBytes
   wavefun                                 :      31214. kBytes

  
  
 General timing and accounting informations for this job:
 ========================================================
  
                  Total CPU time used (sec):     1348.175
                            User time (sec):     1342.439
                          System time (sec):        5.735
                         Elapsed time (sec):     1350.040
  
                   Maximum memory used (kb):      297108.
                   Average memory used (kb):          N/A
  
                          Minor page faults:       239466
                          Major page faults:         1157
                 Voluntary context switches:         2586
