LAMMPS data file via write_data, version 2 Apr 2025, timestep = 6560000, units = metal

1000 atoms
2 atom types

-1.7765477188380459 23.367184725825943 xlo xhi
-1.7765477188380459 23.367184725825943 ylo yhi
-1.7765477188380459 23.367184725825943 zlo zhi

Atom Type Labels

1 H
2 Si

Masses

1 1.00784
2 28.0855

Atoms # atomic

818 2 -0.5692639201704217 -0.4865849195980556 2.5548881169565316 0 1 1
980 2 0.3109714406557118 1.2178931154200892 1.1268717915851125 0 0 0
998 2 0.6433111626967629 0.3470678327566725 -1.0197582035659065 1 0 0
374 1 1.7047180441269494 -0.6769867043573017 -1.051860446491431 -1 0 0
94 1 2.7655168987739494 -1.187845777206236 1.204033278459396 2 -2 1
839 2 2.1710480863253268 1.9734933715443561 2.3578577254949264 1 1 0
910 2 2.836063234880254 0.3198446411287854 3.8562644168307623 1 1 0
742 2 4.178999583798614 -0.8906225011566397 0.605412596209614 1 1 0
344 1 3.4529911155719883 2.3066061067142902 -0.5754117918427202 -1 -2 1
961 2 -0.9245790986192638 4.005239094585104 3.3154103932913745 0 0 0
670 2 1.4157994090800003 3.7298918585514205 3.8577604852179626 0 0 0
882 2 -1.2752902633750887 2.890122959070224 1.2182503619438805 1 0 0
767 2 3.6534324774472555 2.987412743386197 0.7773948975913387 0 0 1
855 2 1.3594596526613416 -1.5667447951573443 3.2915082248515573 0 0 1
422 1 10.237592738623201 7.078756677771912 -0.03674269200333158 0 1 3
248 1 4.184269688463815 -1.1682248538241182 -0.9283283802778923 4 0 -3
36 1 4.930943291505765 0.11590181383944986 1.2203781294655296 0 1 1
44 1 5.844672520493607 1.9829675612717512 -0.5375375516862373 0 2 1
854 2 5.021170793142823 -0.41376925029413014 4.079686610423325 0 1 1
167 1 5.966722693857198 0.4723989825099548 3.3956375493319193 1 0 1
652 2 -1.4744255598065568 0.41388953084220637 4.382284132427992 1 0 1
283 1 7.997004221941477 0.1746964171578551 -0.24295674374378762 -4 -1 2
491 1 9.572730861821906 2.761196604739549 -1.2456632602428184 0 1 2
1 1 9.519799602590505 0.9799584288517802 1.5039332538245653 -2 -1 1
440 1 7.282476157811772 1.583281682598256 1.3787246875985977 -3 -2 3
743 2 8.112446627240125 0.5244584467365323 1.1391282951068522 0 1 1
802 2 9.637134740871268 1.570526771828546 3.935496489309192 0 2 0
324 1 1.2995201762382913 1.5068239618480663 -1.7412571659397018 0 -2 3
288 1 7.695249754253842 -0.7290376276186161 1.8935535600349493 4 -2 2
6 1 9.981439903762443 6.3622328354422795 -0.07504579981168247 0 0 2
19 1 5.04529857299414 2.8129966696191993 1.4458727058584113 2 -1 1
781 2 5.7036383758146805 3.604388199708307 3.9984041423366996 0 0 0
312 1 6.721663597152473 2.7392905861470114 3.3963348670681333 -3 1 -1
64 1 8.291332195976016 1.9792968258605077 3.352902444959425 0 1 2
124 1 6.179792925321388 2.5533663342150685 -0.7841314562669117 -1 1 2
116 1 9.706598167290114 0.03143929759102804 3.9412262051185687 2 1 -1
651 2 -1.2219989570867356 6.138537545770758 3.8782323707170416 1 0 0
900 2 2.2978629946435962 5.695615178249146 2.8727476829904166 0 -1 0
768 2 2.959090586518796 5.168744598272237 0.7050539085181291 1 0 0
694 2 0.4081908866187751 6.956698225125116 2.3876915626592377 1 0 0
815 2 0.9188076379975474 10.54665853877266 -1.1996238006508837 1 1 0
636 2 -1.0710662607801174 10.205401777102177 2.125753546587474 0 0 0
972 2 -0.6696655116013992 7.207343391389932 0.2304018168233397 0 0 0
993 2 0.920071678258195 9.219924520296491 2.7168546598823413 0 0 0
681 2 -0.8788388014440915 9.552766067950758 -0.03337844691753733 0 0 0
740 2 2.667896550255958 6.807633947964822 -1.0524236207549529 1 1 0
450 1 3.8399327700571737 8.044926596118327 2.0023363573452233 -1 3 2
862 2 2.8718041415769573 9.420073187322613 1.5098051101405332 0 0 0
770 2 4.117287480948448 7.083619027874848 3.3809947329490235 0 0 0
758 2 2.9413019372274354 9.301082408330215 -0.7459935883824997 1 0 0
129 1 5.160083277165841 8.707282298977237 -0.560732216586616 2 -2 -1
24 1 5.535464273582895 8.63651458778462 -1.2029676202158721 2 1 -1
220 1 7.342340406420446 6.211015745796869 -1.4464576066218704 0 -1 -1
37 1 9.469588835255907 7.844137962530173 2.8797721981359716 1 0 1
618 2 0.49970174965548253 6.504209266458439 -1.6989190259609672 0 0 1
430 1 7.75110885571884 9.188422474447824 2.4560013934336027 -1 0 -1
139 1 7.236856171695276 6.547520725795854 4.084710643467399 2 4 -3
647 2 -1.64612585354604 3.9203851090989774 -0.8184613298236155 1 0 0
59 1 10.38296251997145 5.956346211594703 2.8826213336192295 1 0 2
89 1 6.221394889807692 10.652990595329415 -1.3301898549440896 1 -3 1
918 2 10.78237485309515 10.644796687669531 2.246643006285474 0 1 0
699 2 5.20511206523529 10.590827126440814 4.397985020963422 1 0 0
46 1 6.594769720934476 10.134256100913841 4.076752595437295 -1 0 1
150 1 4.286222437150253 5.638071654234422 0.9847701835534513 -3 -2 -1
650 2 6.140660732766187 5.931391914150026 3.273293582803462 0 1 1
346 1 6.719759190088418 6.07499619827277 1.9461003379913993 -7 0 -2
967 2 9.059219227466977 9.225670976327857 3.101854077719185 0 0 1
141 1 6.749335532296094 -1.5189183319199735 -0.8664195305141641 -1 -1 4
101 1 5.22830207975638 -1.6221855714388767 3.3491218412304713 0 2 2
28 1 7.98981570034047 6.072056901382821 -1.7164545991099232 0 2 0
901 2 0.5895361040065121 0.37873865678634955 9.23644935318188 1 0 0
606 2 1.910308267274797 1.1499396177265546 5.933828318300739 0 0 0
664 2 -0.03408039886572167 -0.1394475981511092 6.1397391393993 1 0 0
253 1 0.8849592048263717 1.563720923284341 8.371159270394102 1 1 0
932 2 -1.1976013348425565 -0.4560756286281391 8.16552634554134 1 1 0
921 2 2.2834816956154897 -1.0026297207726347 8.591453450087231 1 0 0
976 2 3.611097604394087 0.4393165902854479 7.479200540122454 0 0 0
717 2 4.3025617838266985 2.1150059000720187 8.967559617409606 0 0 0
535 2 -0.16870173917238684 4.013612963449214 7.149380193770851 0 0 0
671 2 1.903275795696894 3.4227073580290908 6.178702561116764 0 0 0
268 1 1.7070142071959475 4.639894867062485 9.632195477424638 1 -2 -2
983 2 0.2329043875318253 4.573873631309291 9.484474524518564 0 0 0
600 2 3.9850533350765485 3.9858751942755593 7.514564578126043 0 0 0
859 2 5.259999960627388 -0.8800350530605467 6.2881474864440445 0 0 0
729 2 7.319729802035829 -0.2942972746658987 7.194385375639195 0 0 0
547 2 7.788284358881409 -1.119658895952008 9.350987096335547 0 0 0
55 1 8.484420478842106 -0.7811600327518712 6.37781544408606 0 -3 -2
233 1 9.30878854114667 -1.1084425815160017 9.48821094770042 -6 -1 0
539 2 7.372934415408274 2.1133528772182326 7.458431301529901 0 0 0
51 1 9.719887508925376 1.9596980337540573 5.2762857678762245 -1 1 -1
551 2 6.752930257121536 2.1944101596529095 9.687589969118667 0 0 0
512 2 5.892130099420183 3.573355924072364 6.322038070675765 0 1 0
331 1 8.876018672021635 2.887073469640254 7.402222481061932 -1 0 3
483 1 9.881927389857795 0.8609739531451273 8.743010652169936 -1 1 0
117 1 10.244517601438522 3.2101314818525823 9.507532401526053 2 2 -3
369 1 10.588349201169395 4.046819046312361 7.2079023569915215 0 1 1
966 2 -0.6431702217636752 6.1809784378152575 6.162397994693055 0 0 0
706 2 4.421852974147582 5.438024719961902 9.346549272585236 0 0 0
905 2 -0.3066096193418326 6.745509449847246 10.201477242488046 0 0 0
786 2 0.39465124535273244 8.240027754513767 6.441777933925776 1 0 0
410 1 -0.8143230494128028 9.141214839220996 6.702488719866963 -1 2 2
773 2 1.5640594062074102 9.509697224886835 4.856343487601566 0 0 0
713 2 1.9144936717201375 7.693347296574144 10.061074171488016 0 0 0
543 2 2.082438897266217 8.716795455074234 8.000277706190657 0 0 0
163 1 -1.4115080931979143 7.277463029317461 9.373275697740066 -4 2 1
424 1 -0.7374359783188349 9.349515404426162 9.397227843328231 2 -1 0
216 1 3.169723409887613 6.591787200551812 9.794566691690141 -5 2 -2
587 2 3.8398371602390107 8.78677439977885 4.950606872308283 0 0 0
572 2 4.275498672731318 8.602775438242096 7.3310065014099095 0 0 0
693 2 7.406735728118315 8.010610194282732 9.366129028605277 0 0 0
498 1 10.157872437502508 8.746617897469967 5.956681760761468 1 1 1
205 1 7.2410980151667985 5.996440575777645 5.5847180131143075 -1 0 -1
557 2 7.272091007773096 10.347204106601394 9.412830007423759 1 0 0
899 2 7.022743133067193 5.508159816535176 6.8959044217647385 0 0 0
474 1 9.56785107547941 5.264153343325021 9.946991283121744 1 -4 0
234 1 8.255740776102778 5.512981584335156 7.804548871716539 2 -4 -5
146 1 7.886752728994557 8.435875000694695 6.031443029698157 -1 0 -1
750 2 5.7625011227359515 6.964495497906597 8.18515741783032 0 0 0
560 2 8.914522565134547 9.330384891059484 5.473415899223408 0 0 0
328 1 8.45408927957583 7.683290213050897 8.324688926631623 0 -1 -2
753 2 10.532009783737214 1.741054831248559 9.746042955815447 0 1 -1
779 2 5.155555863491623 10.538102400518444 8.2306396904933 1 0 0
554 2 -0.3343256312914016 10.762401098699732 9.668799784079782 0 0 0
379 1 9.4321740282251 5.571031082484004 5.447727284517076 0 -1 0
676 2 10.58572098738158 4.87405605274912 5.993549248796608 0 1 0
484 1 10.258367445772441 -1.6501794027179064 7.309848862490195 -2 -2 -3
488 1 10.594308388048029 -1.057708896934148 7.325956001070146 -1 -2 4
57 1 -1.7244672024587218 2.409557364551861 10.72042260099725 2 -1 0
629 2 0.5539889103117615 -0.7149397741799917 13.038444058572013 1 0 0
525 2 1.2033121031473115 -0.3798580444288777 15.316532512520883 1 1 0
860 2 -0.7078924731197997 0.43468440841955047 16.462563044247315 0 0 0
1000 2 0.9156575126471034 1.0551119787507672 11.446964495353349 0 1 0
616 2 2.39879258058889 1.3475058328287157 16.259134484417295 0 1 0
841 2 3.2975327040419167 1.7539940120466806 11.15003200174719 0 0 0
537 2 -0.6965228768649918 2.851846433823173 16.277965545978592 0 1 0
774 2 1.4625798046363423 3.538808615984026 15.64766292875246 0 0 0
803 2 -0.4104280089336203 3.0443352836342985 11.267257916114124 0 1 0
591 2 3.771298412646372 3.5106983404927785 12.587574256765304 0 0 0
578 2 -0.37960318530329196 4.55772510582229 12.883390361503988 0 0 0
211 1 1.4845445052677606 -1.7602003829792732 15.989082820483357 -5 1 1
683 2 4.437365844846454 -0.16658913534443576 11.652802472444126 0 0 0
720 2 10.724911680114685 2.6441748391106836 13.511715488185992 0 0 0
9 1 4.685756177644439 -0.5906148261882365 13.01770329490854 0 1 1
530 2 4.714376445322993 1.8167311020399954 16.38302960575342 1 1 0
193 1 5.416352675305904 0.4624042180727663 16.54593721470097 3 -3 -3
353 1 8.297760460090995 -0.679585737458271 15.52641493955488 2 -2 -2
669 2 7.885660268119787 0.27657883893522506 12.797320087345767 0 0 0
678 2 9.415585525999054 0.10117853583839187 15.92035817909845 0 1 -1
876 2 9.82765989657037 1.0294988557208806 11.85592301217216 0 0 0
978 2 5.254187923815044 3.0310278426038666 14.577253793642736 -1 1 0
851 2 7.3235228889955675 2.3583648422580765 13.491325060844872 0 0 0
510 2 8.994282026237064 2.275723593166684 14.978072357111621 0 0 0
903 2 7.200994814135068 3.6798000302108127 11.468585498105638 0 0 0
762 2 9.425282272583669 4.027835140646075 16.43404222783115 0 0 0
940 2 5.999728327145625 6.999184442010064 12.73446633804619 0 0 0
924 2 1.9755147194542424 4.667344117093472 13.490829676824305 0 1 0
677 2 3.618237200139239 6.565131289875492 16.088176331372303 0 0 0
710 2 -0.8292150163350457 6.842240306991062 12.494138656993032 1 0 0
696 2 -0.5303840821052632 8.933203425456082 15.57538472093541 1 0 0
942 2 1.2821871745110114 10.079703911388616 12.87686898883754 1 0 0
751 2 0.6032749727524478 8.08982080778936 13.847306819697543 0 0 0
646 2 0.9285681085738586 10.409410995025569 16.637234354364423 0 0 0
800 2 2.517042205383369 6.8779287208705 14.074495871524725 1 0 0
947 2 2.997867212862584 9.44045829083605 11.21412876039138 0 0 0
930 2 4.0834324104877755 8.331675504552218 12.98280990887689 0 0 0
875 2 4.365622566344094 10.235586762550062 14.325678364630885 1 0 0
561 2 5.388853418469618 9.795425877538559 16.272761558520994 1 1 -1
632 2 8.855794863275962 9.397723304746572 14.684877121412956 0 0 0
744 2 6.626825769601158 0.23089039035818582 10.907512738574667 0 0 0
679 2 8.704061268231088 9.422892117005611 12.39480716026693 0 0 0
566 2 10.385593306988058 7.688759407101944 15.251599330770269 0 0 0
772 2 7.199278713476572 8.41076806891102 16.092614236802287 0 0 0
675 2 8.116341669056824 7.31603436152408 11.460312892466911 0 0 0
888 2 5.5238337557539685 5.206755727030498 15.731719334051405 0 0 0
778 2 5.244116627582042 4.9245541614260535 11.528009360136638 0 0 0
970 2 10.62011725691785 4.9050824439996825 13.196679090466015 0 0 0
668 2 9.332053035590526 5.678029083150795 14.973336629958613 0 0 0
787 2 8.934790938571018 5.177088520335604 11.35705177138015 0 0 0
797 2 7.146027729490367 6.494765164100976 14.79790908697035 0 0 0
270 1 5.873572175652656 -1.221827831943898 15.378352529662934 2 -5 0
984 2 -0.15518325541698097 -0.2867670035854175 18.652094252835298 1 0 -1
644 2 1.8924030711914788 0.8666911896983778 18.7239777735821 0 1 -1
718 2 -0.8130237432207923 -0.8905832769123949 22.70637211271018 1 0 -1
915 2 -1.4482027202562504 -0.18554685362626655 20.547234684798703 1 1 0
252 1 2.454386440986636 2.3243336536238193 21.259390479870138 5 -2 0
185 1 3.0215399644791434 -0.12469328684161018 18.862390440701756 2 -1 3
138 1 3.692096265104176 -1.5988048684364102 20.51408329714499 0 0 -5
622 2 1.6677610185807845 2.520385789233374 20.14071588632694 0 0 0
567 2 0.26472342147446426 4.249474995373475 22.977334504777044 0 0 0
955 2 -0.3697389001887508 3.3374857806374596 21.013991781137747 0 1 0
503 2 3.02052483205959 4.0985043376727 18.99908588192135 0 0 0
479 1 2.8203105121006597 0.12258876123070395 22.17402025908048 -2 2 -1
196 1 1.4111287053039732 -1.3936552619834073 21.03418374964801 -1 0 -4
665 2 2.7247374176737083 -1.2177098480393678 21.625886282217117 0 0 -1
256 1 5.254461648393913 6.894940981627002 22.347401500823715 0 -2 1
330 1 8.85817620996834 -1.08483767383788 18.798056714680556 -3 0 3
536 2 6.479407869810565 2.831123605909485 20.59153879593854 0 0 -1
438 1 6.1625788419725325 3.591259568052539 21.76716842553041 -1 1 0
86 1 6.264421185327667 1.3988239658049655 20.75700270138177 2 -1 -2
275 1 7.370081749300889 0.7967907060531347 18.18793942219953 -1 -1 0
711 2 10.047220197014685 1.6304286380363715 19.586692815879786 0 0 0
181 1 10.223947513219418 0.6296807294124482 20.6824984071058 -2 0 -4
700 2 8.707302742141787 0.1615137698863809 18.236156555384 0 0 0
617 2 5.168762548134282 3.2734271131423913 18.589929788629153 0 0 0
759 2 8.677629834929553 3.509096589970193 20.213918543552527 0 1 0
78 1 9.298884051795469 4.312114151998903 21.27171307439099 -3 -2 0
390 1 5.838075880136088 -0.777594424984579 20.087121227622454 -1 -1 1
27 1 8.944623450974191 -1.0411892624647856 22.90159002975943 -2 3 0
274 1 8.93636760477324 7.056744720369554 22.18257795834396 -4 0 -4
218 1 1.575649846965915 3.446973818354955 23.222854632279972 1 -2 0
304 1 6.179379643609066 -1.0322889886790487 20.69742485217201 -3 0 -1
265 1 8.834712799093781 -1.7160024584911062 22.17442334842696 5 1 0
953 2 -0.997259061249736 4.970040251348279 19.51406330846324 1 1 -1
842 2 0.3651573901541294 6.269435987869713 18.122343461979256 1 0 0
680 2 2.120656691931638 5.158358770198518 17.088467038574773 0 0 0
913 2 3.3169960017704065 6.161214367122839 20.222399961527675 1 0 0
941 2 4.076592848085537 6.0457878162352525 22.404617946421304 0 0 -1
812 2 1.3642208649127157 7.554863684893553 19.837034119271625 0 0 0
946 2 -0.03186159364167396 7.8464570607424236 21.606179917415474 1 0 0
884 2 0.4927819475349513 10.104771274419573 21.64213677218054 0 0 0
807 2 2.180270086807046 9.432613107901588 18.411706850582682 0 0 0
714 2 2.4679277592109417 10.654277119726117 20.427800181937798 0 -1 0
321 1 3.5230176060866922 10.13233309505836 21.271603363058887 1 -1 0
589 2 4.063691580059952 8.485113653623317 17.56999483182823 0 0 0
26 1 0.28395183922040745 -1.6668095460790886 18.531604865909944 -1 3 -1
156 1 9.95852481038825 2.4337233227627912 23.359261916878395 0 -1 0
327 1 7.1521563359790985 8.307248301944457 21.429835204253436 2 -1 -1
733 2 6.508275897529231 8.604313948375388 20.11976294095243 0 0 0
761 2 9.569200005278125 6.888786079536265 18.74997919575097 0 0 0
584 2 8.553639451368126 4.949664212641032 18.384259164015017 1 1 0
269 1 5.858282652014413 10.002626853411561 20.26463674120752 -1 -1 2
106 1 10.020439762679064 6.958646799983395 20.05588733462091 -1 1 -3
515 2 7.983932732464563 8.582968783582283 18.34606000037865 0 0 -1
576 2 5.095322875696198 7.059687494411181 19.124562100988513 1 0 0
67 1 4.42821355700579 4.654731099777513 22.564251471162702 1 -3 1
562 2 6.2494419660909575 5.130738708271191 18.02608451250166 0 0 0
387 1 9.653048935073844 7.291645896621352 22.104153364353884 -1 0 -1
533 2 -1.240076110835971 7.329553753754601 17.083930490324406 0 0 0
605 2 0.832930090527872 13.503439359791848 1.4998796606967901 1 0 1
939 2 1.0761702564295574 12.83963043322226 -0.7531854946609575 1 0 0
858 2 -1.1086979068443217 12.415165342682794 2.275091964010681 0 0 1
880 2 2.4588124928977315 12.851000386590648 3.0140393939437216 0 0 0
952 2 4.006688502385487 11.2153062835122 2.48830064102584 0 0 1
979 2 3.4534318396640424 14.789202074636403 3.988834235933691 0 0 0
838 2 -1.6418794053916919 16.162263847556478 1.0295433141405765 1 0 0
833 2 0.6330036721431411 15.834964371409523 1.60407955340788 0 0 1
630 2 1.6640408313789519 16.257875871008828 3.644271876964038 0 0 0
136 1 3.1471678840486925 20.61045332728496 -1.333785047188946 0 1 -2
398 1 2.291203874324509 13.517291723019651 -1.198756561601439 0 1 -3
80 1 5.658885919192742 16.879502007820317 1.4477494168042755 2 -2 -1
464 1 5.648844390431144 17.64192291357733 1.222082636285588 1 -1 -1
161 1 9.962617888707769 23.326714206736366 -0.3998231459432904 2 -2 5
229 1 4.286917349430195 14.09471314495883 -1.1720389485416065 -1 0 -3
292 1 7.768469798186734 15.842972240899513 0.023906545247610156 2 0 -2
281 1 4.827989457709922 11.765881877634145 1.3279865133889448 1 0 0
115 1 9.595303811968305 19.272388173127176 3.610313274481256 -1 0 -7
2 1 6.6396427417186334 11.273122610006531 0.6980301953630126 7 0 2
98 1 7.830825994245636 12.13941334171363 2.4364299987511826 -4 1 1
866 2 10.030927060949603 14.211797078197982 1.6647985481646033 0 0 0
950 2 7.863399201178458 13.631811569844041 2.4779931727153217 0 -1 1
33 1 10.254985814582179 13.91959404243602 0.22955268996600964 -2 -4 -1
407 1 6.840837394337859 14.097449311154977 1.4983738277127014 -1 1 1
259 1 10.428086351241513 15.675828412602758 1.9019091748956827 1 0 0
294 1 8.595764426865115 15.649419764398061 -1.4754679898501468 0 3 2
227 1 4.506711579875291 14.658597733160633 -1.4808311365476758 1 -1 -2
565 2 2.7300018678109534 18.237118630736028 4.402834268223138 0 0 0
395 1 10.264301135787266 11.134311346918075 0.9436822608335658 -3 5 1
471 1 3.3817036346938565 16.783279365843722 -1.5724190339409672 0 2 1
459 1 4.007061878604024 18.2457312069244 3.6976936445160797 -1 -2 -1
207 1 1.4107427092010507 20.144750592048176 -0.009516021361890115 -1 -3 1
20 1 10.178376591259315 23.22316993662296 2.0507239785133007 -1 1 0
87 1 0.4639964463177444 17.597367797407987 -0.6191881454259136 -3 -2 0
182 1 0.26088402192772664 18.376743142187028 -0.5795134915214901 -4 -2 -2
206 1 1.9058205442401062 22.430946525090143 -0.43853031898097083 2 -2 4
45 1 1.0555559378385984 20.887303929546075 1.7807614396790568 -2 1 -1
360 1 1.0891236950758483 20.267599920794304 2.113452901871349 -1 -1 0
201 1 -0.9758961946669831 22.372375628506116 0.09338178168577249 1 -2 2
507 2 1.83079527439383 21.154821429532657 -1.0356131174367007 0 0 0
71 1 5.164498738247649 20.956202201742265 2.909406817268703 -1 -1 -2
96 1 7.855264168105782 17.909835259605504 3.888689031020342 2 -1 -1
332 1 3.7219533434093686 20.57841977573747 1.272217334984405 1 -2 1
367 1 -1.1243350613390986 19.273309957789657 -0.6594174552997143 2 1 2
8 1 6.740693151115778 21.29163723449406 4.491758932333628 -2 -1 -1
224 1 10.375624387354524 21.295177351073832 0.7988076262865587 -1 0 0
287 1 7.189004028823689 22.715565405331546 2.802564777810562 -2 -2 -1
881 2 9.164573889462869 19.059671034141836 0.0019420352297088161 -1 -1 0
357 1 7.759678032867832 20.597553252961582 2.5103910831190843 3 1 -3
72 1 8.986345637449208 22.037622326265247 3.992959801975667 -1 1 -3
40 1 7.079600786705315 15.752598250081988 0.19628195535826354 4 -1 2
916 2 7.81105510002307 21.68107987326341 3.4887044254894395 1 0 1
14 1 8.321914628494133 22.448996343813707 1.0374017461941398 1 4 1
389 1 10.34263259316711 19.40225059530028 -0.8905568379065204 0 0 0
171 1 -1.765674347044662 17.574599432731425 1.0110154790949477 -1 3 1
511 2 9.692237926148133 22.5958749962543 0.8470746576636854 1 -1 1
432 1 8.761791323899173 17.70687992853173 -0.2619605806298153 -3 -2 -2
213 1 5.698651881506826 18.935071277596247 4.029631524933106 0 0 1
333 1 5.5111301252207054 18.633285999560325 -0.4215548519732395 1 0 -1
626 2 4.9727464876402045 21.212098919905383 1.5053361151989115 -1 -1 0
480 1 6.021928735046895 20.801585252301493 0.6226950219312006 -3 0 -1
313 1 4.792917055171959 22.859007311866673 1.1515537036262726 1 -1 -1
318 1 8.207778224264802 20.07946608271683 -0.3709612658781578 -2 1 3
659 2 6.149510382449186 22.517490084148726 -1.7733401850656791 0 0 1
454 1 9.625951645200274 19.150216339927493 1.4260101173629747 1 -2 2
365 1 10.291046138431984 19.05193651098643 4.0544762988046354 -4 1 -2
118 1 4.968126384714746 21.739989259128343 -1.3484966707409867 4 -2 1
245 1 1.9069529670605214 19.492798793551188 4.427666505477863 0 -1 2
466 1 -1.563333068953821 19.547256367515615 -1.2578256028313752 -3 -1 2
419 1 7.165681685479543 10.855240557011696 0.42543181219220605 0 0 -1
840 2 -0.36763004780048125 13.810496081533671 7.714344097394692 0 0 0
577 2 1.5711825170986402 12.742280097646743 6.920421074954065 0 0 0
736 2 1.1522053432156696 11.961097409152158 4.7113695263326205 0 0 0
892 2 -1.423181241878133 14.556417700465193 5.678220801659489 1 0 0
708 2 1.6823944299822586 11.103036385327197 8.555853158998179 0 0 0
366 1 9.744368321018356 21.91674160228672 7.417048294541816 -2 -2 -2
719 2 1.9856746410755024 15.023977869691045 10.673451566690652 0 0 0
579 2 3.6116311844344953 13.771591724457336 6.137504487890282 0 0 0
823 2 3.6080228680184874 11.58107635806716 9.70504210741849 0 0 0
827 2 4.1476560375172395 13.790629990744048 10.414461728186762 0 0 0
738 2 0.28360126979406575 15.59616107413046 9.027073164473714 0 0 0
831 2 -0.007000428101543665 16.35243211321628 5.267467436382844 0 0 0
585 2 -1.040011584877344 16.417200138182764 10.721483689755242 0 0 0
804 2 4.628471719366987 15.724604862739223 6.94300343745971 0 0 0
886 2 0.8392133901519356 16.93475909611527 7.271601895097394 0 0 0
581 2 5.208412266958502 11.950183059585042 6.240484835048514 0 0 0
864 2 7.273586610538114 12.927616704622217 6.264049717310716 0 0 0
615 2 7.4807735416017245 14.199408006038738 8.077150206214315 0 0 1
655 2 8.936787022648016 13.470076098848637 9.716897106319738 0 0 0
516 2 9.098244049680849 11.646447510681995 6.429526516336027 0 0 0
887 2 9.244496653904909 11.364335298486358 8.715959508192729 0 0 1
957 2 10.478223335514203 13.051194393135209 5.323813762315521 1 -1 0
893 2 5.569242933250049 15.237199495590026 8.963808107789252 1 0 0
775 2 5.597203018507752 15.784530062877916 4.693481003699139 0 0 0
709 2 9.831880678557196 15.293673246626142 5.390641395606344 0 0 0
865 2 10.230628528751415 15.38345418318293 9.466026035522102 0 -1 0
661 2 9.059812875830282 15.937445979959072 7.43646148140456 0 0 0
667 2 7.487354084023162 21.759506972070728 10.110029819242962 0 -1 0
559 2 7.5991052227536695 14.584669881385366 4.596272895024753 0 0 0
598 2 5.132633328759221 20.34250328913141 7.738298561921557 0 0 0
853 2 5.169061255734302 21.374629169671007 9.915738218471008 0 0 1
896 2 -0.8989357790019972 18.59658950644698 4.870974101830723 1 0 0
556 2 -0.17407430770491827 18.998617630210067 7.26337465359544 0 -1 0
682 2 3.0575917465934754 17.460336205802765 6.760129507354851 0 -1 0
162 1 3.4348551205287663 18.238963412046015 9.523501291413558 -1 0 -1
871 2 0.39647780725981363 22.88408278098474 5.148512747463239 0 -1 0
685 2 1.3260820711125523 20.484909742830695 8.296921113486915 0 0 0
739 2 2.0336458784632003 22.306650836680127 6.9169182682576675 1 0 0
555 2 0.1722067918117134 21.39859936623382 10.13246359311972 0 -1 0
13 1 8.101343641314045 20.718039745023482 9.269163246722892 -2 2 0
863 2 3.2014705001843238 19.102851894947737 8.355640182302228 1 0 0
945 2 4.246418654307627 22.098743233426443 6.340498330338313 0 -1 0
965 2 3.5006560377918605 23.15257352389555 10.282709530386722 0 0 0
230 1 4.302300244677544 21.534718170009864 5.0183140138063695 1 -1 0
266 1 9.023990424721678 21.754584310121473 7.307301464826658 -5 -2 -1
244 1 8.006599589125228 20.226405125087133 6.315079023623497 0 -2 -1
303 1 10.389705538989142 18.96778297264151 7.1040582486117145 -5 -1 1
747 2 6.40618381527511 17.17339168480164 9.899504343151962 0 -1 0
316 1 5.420719138827722 18.137503709618716 10.442891713366663 1 -3 1
879 2 6.944966523797003 19.201349959495495 6.719059495980064 0 0 0
727 2 8.101508406311233 17.916691223321376 8.243148706530807 0 -1 0
212 1 9.230961860278134 18.41241554896793 8.937475441275511 1 -2 -3
869 2 6.585234819280398 17.9069284343727 4.743489503281053 0 0 0
508 2 -1.1032835666059853 12.607875785638395 4.52717130823826 1 0 0
523 2 0.8068839956268139 13.510779340559118 12.04032269712357 0 0 0
575 2 -0.07720696036790264 13.878020935678439 15.679551737166438 1 0 0
504 2 1.6595572115674062 13.390727654670503 14.20815731180521 0 0 0
553 2 -0.3490748584815191 11.349340516577305 11.889301259845832 0 0 0
837 2 -1.412522082848669 14.54610896365892 12.115371576791825 1 0 0
546 2 2.203756087111801 11.125048423035372 14.78116860200878 0 0 0
660 2 -0.6394178766174636 16.075709701728176 15.74919269409748 0 0 0
691 2 2.1378636047709625 16.613458139472264 12.254343851375197 0 0 0
798 2 3.237770439715405 15.128186456779297 13.858636115464828 1 0 -1
790 2 4.190054488547654 16.22076905074832 15.58954562216709 0 0 0
222 1 10.140772872057836 19.75989266670031 13.60132642305583 2 -3 0
923 2 -1.5389881627288675 16.408216198084762 13.70929841263953 1 -1 0
982 2 4.893206840518164 13.975655681039923 12.598654186600678 0 0 0
963 2 5.717471708497158 11.84243818264039 13.270039859102997 1 0 0
925 2 7.265021623203152 12.51442438758401 15.000511314045216 0 0 0
726 2 8.29674187904814 13.017774104598267 11.717249657073387 0 0 0
527 2 10.20996622323404 12.387582160161715 12.891066314138175 0 0 0
663 2 9.320439200650728 11.64086621735187 14.98919237202945 0 1 0
755 2 7.115797169311842 14.704995194830637 12.72229978280781 0 0 0
895 2 7.7221063547965905 14.776610073563369 14.926905934725983 0 0 0
973 2 7.12434124653689 11.020948387025257 11.587502171267701 0 0 0
809 2 6.397697268044565 16.669580670446365 15.276224636157476 0 -1 -1
883 2 9.950046287779058 15.45760951302464 15.204449002848197 0 0 0
602 2 7.63756303366949 16.867778411230034 11.890976443369997 0 0 0
904 2 9.981764012528144 16.72099504110542 11.245545938291048 0 0 0
68 1 0.6359420233397381 16.86059881559346 16.009092012350422 -3 0 -1
604 2 -0.05772721811916215 17.656303497175536 12.362921346789719 0 0 0
35 1 3.775522087216906 17.70962871728519 15.73201159436412 -1 0 0
280 1 3.1421303864762997 17.72898298923576 12.076678792130997 -2 -1 1
77 1 1.0328118591033135 20.05798353442121 15.77022567581798 1 1 -6
125 1 0.01654056736674292 21.974902002849287 16.361962303160734 2 3 -4
574 2 -1.2889490651764086 20.80666977534298 13.779055325074712 1 -1 0
631 2 -0.7984737157617368 19.873803388372878 11.739064564074878 1 0 0
607 2 1.5865518890283083 22.62725349861896 11.64662259762126 0 -1 0
788 2 -0.2874363276971321 20.6754525309889 15.811341135349082 0 0 0
184 1 2.114663132106465 21.584481671653453 12.62309399385324 2 -2 -2
623 2 -1.5519025111071498 23.053861447430627 13.027678766411142 1 0 -1
359 1 4.6989504040632895 19.634001148936335 14.694643259971635 1 -1 1
133 1 3.915173945929248 19.36195884439682 14.710915438632767 0 -1 0
308 1 10.487655056696308 18.053518029464556 10.957541158424366 -1 1 -1
241 1 -1.0695424834310319 19.987036953685646 16.886272209795766 -1 -1 0
34 1 10.45436054274836 20.17584452211037 15.696168179902983 2 0 0
861 2 10.203107083332327 20.705182970416786 12.502200323702201 0 0 0
231 1 6.124742940969614 19.135658547191227 13.133177893432753 -1 -1 0
829 2 7.04952149613707 18.186127486495813 13.671666116534679 0 -1 -1
433 1 7.399992697607432 20.972816656163985 13.116252339886977 -4 1 -1
517 2 9.955436718660394 17.466021352967925 16.38564034958144 1 0 -1
228 1 9.451737700906314 18.221062923025848 15.28731219308181 3 0 2
336 1 8.337631299142258 23.213581150326856 13.162009019475825 3 -1 1
447 1 6.717732776357135 17.918869143243704 16.68816040680636 3 -1 -2
478 1 8.168149038560927 20.80996616317536 15.68957202157992 1 1 -3
375 1 5.019914131567326 20.397585491373665 11.020343411758756 0 -5 -2
204 1 8.33623723011291 18.665046007192547 14.109011511877194 -1 0 1
29 1 6.463775636073835 20.042496438551478 15.907049781828942 2 1 -3
382 1 9.831159873720328 22.55680660099865 15.08229138307211 -1 1 0
748 2 9.579697405251792 21.357355012148176 15.908009517058339 0 0 0
968 2 8.268989545854014 21.788025155444025 12.325644889493418 -1 -1 0
254 1 3.8691813767668197 15.468247442955342 16.80175609846648 -1 1 -2
890 2 10.292912963441422 12.06890983164949 17.066526433907065 0 0 0
524 2 -1.7490089084050393 13.65074523902436 14.235677111015363 1 0 0
489 1 10.69162979474302 20.376077668135995 11.136633572534302 2 -2 -4
334 1 6.233279844528855 23.297076517037183 15.149108318201424 -1 1 -1
805 2 -0.9570787119244584 13.02162372022336 19.426072112902983 0 0 0
588 2 0.19305917808223216 14.489209338550314 20.916577976548655 0 0 -1
174 1 1.6310206019865827 14.426170576785534 20.86419817393971 2 -2 -6
763 2 -0.5132421088658998 13.813776515435858 22.997517326852503 0 0 -1
908 2 -1.4561787954486083 11.13758471730833 20.64059133484699 1 0 0
342 1 2.853748349995344 12.086386097334454 20.306238863399667 0 0 -3
152 1 4.90623702419004 15.399239003162062 18.65187306960302 0 -1 0
52 1 4.521824164428916 15.200330599645849 19.236238389396423 2 -2 -1
413 1 -0.3288431674109378 15.843129071325372 20.429600525787507 2 1 -3