NVT_2.58/Hconc-50/8/SiH.data (written by ASE) 

1000 	 atoms 
2  atom types
0.0      21.158707884739954  xlo xhi
0.0      21.158707884739954  ylo yhi
0.0      21.158707884739954  zlo zhi


Atoms 

     1   1      19.002774410617725      19.712334050855237       4.053673030994732
     2   1      13.251963284638919      19.236853341915079      11.331994387818764
     3   1      5.7559873560304018      17.259497394154938      9.8815374803586984
     4   1      20.277390940005901      16.660625605307086      7.6079457524538094
     5   1      2.9385651376193014      13.970214190131463      9.3212756216583799
     6   1      20.699031511334688      20.500094902383747      8.3477475695431167
     7   1      11.250844504346983      18.356129082060903      6.0325740956316913
     8   1      1.0435735220176627      6.6544468092283138      5.9681065793480608
     9   1      15.608972468841815      4.5028404221877292      16.803974179046087
    10   1      18.873191859339176      15.702825823217108      17.209514713075734
    11   1      13.337907001000127      8.1115088953637393      17.018860983197264
    12   1      19.356509684307081     0.67012352145841569      1.0768424342733791
    13   1      16.761987529209716      15.363107018622745      4.3247795829966904
    14   1      5.9914013656705016      20.646953589443093      19.073157802390707
    15   1      4.5294565718902868      2.5810165489788877      16.373315836949718
    16   1      5.3206391956068453      1.8139560368929091      6.9668300426785263
    17   1      1.1582479450092527      18.558175934608723      16.620556466124476
    18   1      1.3171045626343163      5.9467185338453916      12.783249927553246
    19   1       3.285400526695943      14.105702472292707      16.851037643609416
    20   1      9.6077961570447172      13.991175085808157      10.303569225374666
    21   1      3.6274874417182175      15.742269577071799      19.206790231023451
    22   1      12.268569244965763      1.2430073050607904      15.321312602058319
    23   1      3.8603877536619673      10.233805334899737      13.270697330702578
    24   1      7.7293684819681152      19.403360739810608      11.656723046057113
    25   1      16.375064854694937      2.9060936893666973      4.7113588293734834
    26   1      13.782932014010786      11.105792502478957     0.47559812513913702
    27   1      16.640929081066037      6.0239335198582697      12.514354149069053
    28   1     0.64842316567448521      14.367362295266156      3.8824841048105019
    29   1       16.41240000564845      21.095846065022101       9.382810504811081
    30   1       6.269088462933075      2.0356101634434651      20.074405153701544
    31   1      13.283926266453106      12.710193961316968      16.740543388717072
    32   1      11.002712440792894      16.946110152565158      2.9738209985285482
    33   1      17.351434547368239      1.4480017547525523      14.314480723456651
    34   1      17.832349238865984       17.19864021826492      16.236006499214472
    35   1      12.725773226428535      18.898781787271631      15.276970638102194
    36   1      18.088344204495918      19.585126580122232      14.414225575234827
    37   1      1.8355912399451315      8.0490772818807148      13.014716410748955
    38   1      10.163388189280944      5.3590737897370913      4.1713358806685354
    39   1       13.29282074336604      9.5362741244332394      10.042997500588211
    40   1      3.8487076155918878      8.2130878371039699      18.765898530089036
    41   1   0.0024522665817919322      6.6511028746711878      2.5711902537189286
    42   1      7.4005880181752062      13.820564968872016       20.80234995658267
    43   1      6.9058258898082761       12.06249086250377      18.498216642279459
    44   1       17.72845691825108       5.757379706705227       17.19357183242408
    45   1      15.407023595327228      11.712509055584247      3.8117690810612856
    46   1      12.199557198690991      7.4510825429000489      15.229049622816211
    47   1      3.3579373341708783      16.691073349148731      10.987835835386948
    48   1       17.34708071758914      16.172797882357084      19.317387352771444
    49   1      17.888675238012794      2.4164857169642793      18.641037897574577
    50   1      2.0332668048348479      19.965547748847793       2.370594508320496
    51   1      9.0849358266601801      19.625390612807596       17.09855613093394
    52   1      8.7671598893823006      8.1064494150897115      11.134042890052193
    53   1      11.767567667759421      2.2388993616749886      17.408531920310988
    54   1       15.79198534264483      7.7296969071858017      4.9598846242164649
    55   1      15.930967216640308      21.035287622387642      14.990842833390154
    56   1      12.114282905652228      10.878116777000717      9.1662494593728496
    57   1      9.6157271675795766      12.400853328917229      16.152786345984506
    58   1      9.1897923905341923      9.5682795099649738      20.115647704990614
    59   1      10.219215691463933      19.956125725970129      7.2762902736551798
    60   1      16.168490077217601      16.998941365409266       2.243139446218994
    61   1      3.0029655575185012     0.71045563023895331      10.124949104123356
    62   1      7.6434485881611636      12.666061690902755      6.5959448628558706
    63   1      18.056083528687708      13.131371839962762      15.386558635068967
    64   1      8.7880525498316349      1.4648835897899724      12.066086195439425
    65   1      6.1940609929975121     0.22353758267999546      6.1787025263403406
    66   1      11.478503087622343      3.4904115588987228      5.3794879423435109
    67   1      9.5486256209014719      10.735835391551328      17.377324970602004
    68   1      17.180335738639386     0.35018654012548966      20.426964033968073
    69   1       19.49361009372495      14.213872094911165      12.364585241513458
    70   1      15.671976626613819       10.16287226005344      11.700086930591254
    71   1      4.9374380639905135      1.3148475206320358      17.931204170396494
    72   1      5.6264342293886873      8.3881477810650029      3.2328812988067779
    73   1      11.114834345020583      9.8193403725025163      16.737834332592726
    74   1      14.980637259036987       3.794373851405664      13.103018804680387
    75   1      14.781412577767393      20.029327536894321      18.326797912681361
    76   1      6.7528733707801214      15.191706494431097      16.732695829769266
    77   1      13.401936784410088      2.7898893098974575      4.5283927975214588
    78   1       21.12499093468535      16.399286953682022      12.490517101792065
    79   1      19.429818794102765      15.189821214225287      20.856171573256123
    80   1       3.487775686905584       8.883450433529843      3.4980525469045616
    81   1      7.5990653106943364      14.725189234257195      13.713801778311645
    82   1      13.977423607121299      20.242865588382454      12.853253193970181
    83   1      1.5859370442549248      9.7999218761364624      4.9117929111065903
    84   1      6.6452757056596532      17.896838093896488      19.312013565338564
    85   1      19.389068192557804      4.7712953649369227      13.858319897665746
    86   1      10.731499876916581      17.095256135708276      12.939717375697732
    87   1    0.052542525200460301      6.2578167282251025      17.445023218782488
    88   1      19.876571699357967      18.582256545458449      10.329110962421245
    89   1      18.688688949583355      4.3152472337646479      5.7366394496241719
    90   1      1.7990325151211937       3.960784229677512       15.90022273738311
    91   1      20.569378046646371        19.3558225633208      2.0342857404473991
    92   1      21.146091617779728      13.257283504088536       13.31724647918478
    93   1      19.693433765018202      19.955645820471023      15.203032601489163
    94   1       4.806958627836341      6.6165077845279763      5.9622969118663622
    95   1      19.517318435439993      1.5931894508604565      2.6495260041013649
    96   1      9.9477087850940897      14.387516817917584     0.54346881553859605
    97   1      15.952844249709283      13.871259607377796      3.0756540884639092
    98   1      16.711888498949989      3.3102295767398933       15.40392124234978
    99   1      12.756703423080937      14.773871498597753      7.3244223152770145
   100   1      6.3690813218482845      20.715681043984816      8.6622451578918724
   101   1      7.8022335860269996      16.263248799655919      14.695127944739337
   102   1       13.68001383937278      16.368434935747242      11.625075832072216
   103   1     0.77274530502211358       4.478655452004265      17.611587661761558
   104   1      6.2107041056108114      11.209843298162712      14.686220077243902
   105   1      4.1579261814161219      13.650659776991599      19.952751326436946
   106   1      1.3658064852454987      1.9917812201098881       6.693214271030298
   107   1      13.173271058805202      13.568822948393008      2.4292849528529818
   108   1      17.164154617815097      11.896466072065706      16.454137627753084
   109   1      20.644249129534007      3.4572894778614973      15.724080518836598
   110   1      19.913388109506151      15.363980240812927       3.150181388325433
   111   1      13.521042847843342      12.994517242087078      14.710114590661872
   112   1      14.160356929912194      5.3541989969412871      14.426065323449752
   113   1      10.161818985632925      5.8782216051709106      9.4787201973173776
   114   1      7.0785435790112032      1.6404316921483497      14.715981900234844
   115   1      8.8202494459274181     0.22610953756110894      5.7770549015888584
   116   1      5.3892873493323963      16.903783275411062      20.927857422786865
   117   1      15.675893512668749      19.664452869764325     0.82178638054959263
   118   1      10.992705994031777      2.1724845018751129      9.2189868040580514
   119   1      2.3545416348060857      2.7410205721008327      3.5249363233680859
   120   1       4.148219735746177      3.5143193581071555      8.7411848722387102
   121   1      5.6688897630899051      13.269723725869163      2.6474926030988088
   122   1      12.723034344890429      18.540137698728785       13.49357418705188
   123   1      10.285217825671136       6.687704973619498      18.329097047951326
   124   1      7.5623602381739694      17.592593373166899      11.061353207155815
   125   1      10.582362380063707      12.104472628940206      13.594453615618345
   126   1      4.6142037342408901      6.4354089361899565      19.183335388494825
   127   1      15.454944096687848      11.759613184545062      7.2925559278068404
   128   1      12.051891623008713      14.013108546425185       10.87625137037233
   129   1       14.84422699318371      6.2866431539584484      17.549372491433381
   130   1       7.631757212523663      10.054242520049332      11.392982132620268
   131   1      6.4003954610493619      8.8735262176039331      19.857342387716027
   132   1      20.225039317250467      11.197346049443309      14.149465178581689
   133   1      14.872677734437802      3.8328555877717174      11.217097947071672
   134   1      6.0708610168208503      4.4027867916132273      8.6702622899412507
   135   1      1.3476660258466064      4.1729578368845459      4.0388816277549866
   136   1      15.409454500471387      17.795902917605325      19.293611430337108
   137   1      5.6079954353547512      15.222512904060142      18.999033507993719
   138   1      16.234843872425209      15.681061692789036      17.732633018828821
   139   1      18.928273759755296      15.163819125759215      8.8909001000961556
   140   1      13.077786728698243      3.6028461961399607      17.469502815998105
   141   1      8.0821941570293756      5.7079051029306287      3.7664976895112501
   142   1     0.38561416866584441      4.2144604520685869      7.2974164183017578
   143   1       8.369855084699962      15.904569752724175      9.6214681960475605
   144   1      17.795606045037715      11.842236433519449      20.059624870603468
   145   1      13.699741912726907      19.965445864270539      8.9967277796946643
   146   1      8.6187332094938203      13.378757738132306        14.9157314009211
   147   1      7.8836262204012808      20.594554123645818      10.306532070853718
   148   1      19.528664486678075     0.74766604369396117      15.847662895949069
   149   1      3.4191198244407395      8.0833884296431968      1.4258902443442421
   150   1      14.809158653667692       19.34120719641686      4.2044259266624291
   151   1      21.036938082518493       12.69754702676931      4.4778772162579994
   152   1       20.96200105467322      17.021319426296209      9.6244123993072463
   153   1      6.7355861290239609      18.653404358457255       17.43363062069599
   154   1     0.34518407720380589      13.323227619285353      20.018262724216346
   155   1      14.179012029252371      2.3227935708730842      7.7430771395412705
   156   1      2.4945242272297645       5.955467567351473      16.337403674120356
   157   1      17.796461964163854      8.2126072348147421       6.479436324749769
   158   1       14.26320054439079      10.073343695397476      19.475280292391915
   159   1       14.22662540443193      4.2187022773169192     0.34852487614764183
   160   1      17.348608660488612      2.7572713562961937      20.967908100491698
   161   1      19.401608168119004      4.8815270321511939      9.3433497491700717
   162   1      5.0653805069862816      8.9194644268321319      12.447632975183419
   163   1      13.777696208505114      6.0610159855115944      4.4466949414427548
   164   1      9.0760655631625351       7.397258314456546      15.158495338501819
   165   1      11.905107704257404      6.0273141823170366      1.2524345684136102
   166   1      7.8748602513461741      4.9521990613516351      15.046704329258739
   167   1      6.2875936052036439     0.94029484286865772     0.36160094004674892
   168   1      14.140600810706042      17.217702387358234      16.944242972237802
   169   1      9.6200164311516723      10.789059594825801      15.038621697075149
   170   1      10.176496064223477      7.8159620490874238      20.605962896195649
   171   1      11.921221669928002      19.693030453146527      2.3807532603525585
   172   1      4.1287597859913276      18.786691294596991      9.1189775873792467
   173   1      16.180242132742318      7.3766565352093911      18.084189530233836
   174   1      11.537943741274448      1.2101090037211077     0.53420348056376921
   175   1      5.6941157110173393      12.486614662823643      7.1209638227134953
   176   1      16.635183799865178      6.3512241249279899      2.6488932360547097
   177   1      13.170136575592748      10.202028910263692      6.7197186301267795
   178   1      18.980670830445611       20.61328146862374      19.055158086284003
   179   1      20.188493887843094      12.030902121990362      2.1658431258174917
   180   1       11.38452393198807      14.435733600864724      19.357022172943779
   181   1      1.2446117015820244        17.7472116668512      5.5392672049881506
   182   1       8.182177605579783      16.353207370019454      19.769781518482255
   183   1      17.580864443006856      6.5365676881794972      7.5765441759456742
   184   1      2.4316229356047665      14.043164956172742     0.71911990594825237
   185   1      15.430022758585702     0.78295869668342732      2.8085632060601142
   186   1      8.9465124438532406      8.7159714011715508      2.9921570768206012
   187   1     0.58049598629634414      15.896681777900495      19.100281901548431
   188   1      20.905382076539837      9.1230852438139944      18.684972055348776
   189   1      4.0291048980145767      3.4802325004070229      3.6986262378594499
   190   1      6.4230308176427142      14.048700729055589      5.1377717432059082
   191   1      18.215441020389839      9.1347923706805982      2.3278544754380905
   192   1      18.295351252572647      8.3625793439340086      19.366288490853975
   193   1      7.8601596377736707      7.1034018904661531      18.097406260156536
   194   1      19.388524559097515      17.003923124195939      15.322322616681056
   195   1      5.4469433354466927     0.33016991432369186      14.601734122740487
   196   1      9.0927805023374155      13.540364439092933      7.4960488731850514
   197   1      4.4779053384915208      20.670651934351923      8.9020142791522847
   198   1      2.5423871886661824      1.1294371033571629      4.7104835932548479
   199   1      8.7886345640941101      1.1274317331381101      15.159364550087155
   200   1      2.3211181653730142      18.913565137723491      10.989833309831299
   201   1      8.6174147189957573      1.9731637319636228      6.3150050856219018
   202   1      3.9216180215574541      17.970028941581344     0.81395651256562962
   203   1       11.17529178431762      7.2747225074856212      5.0985481872617147
   204   1      15.730735637705539       7.669779964869103      13.366637826777882
   205   1      2.5764597328311942      10.130944583519286      19.930115400818035
   206   1      14.695704193339703      1.3972506879156084        14.9959461818911
   207   1      15.746905736361173       1.056960068082387      12.091255654830551
   208   1    0.078048902221808047      12.707904519109137      6.6500071337593463
   209   1       14.73852501580528      5.9212959406617856      11.746654111701488
   210   1      16.194209511314956      5.4380398615159562      10.395630301907296
   211   1    0.079228321094060361      19.705285256222414      11.494050853729938
   212   1      18.957121888587185      7.8347281636672825       4.242428876522057
   213   1      15.626735438631158      1.4108369884457443      19.939377345121034
   214   1      18.313571860923354      13.862092820306239     0.94386122839951858
   215   1       2.361525098830012      16.579671759654097        1.09840715546462
   216   1     0.88184594325850707      2.7579102066091501      14.636461369941177
   217   1       4.912521391820488      19.049776684484005      17.086943542398952
   218   1      10.026939832835122      16.767575029927592      6.1931563009991404
   219   1      19.979387457422845      10.974119441349467      10.616253304467149
   220   1      12.950412433214815      16.028473639436513       15.93888745895174
   221   1      6.5563089189964519      15.962714777464493      1.0243133378448015
   222   1      19.753649268728257      6.5304558187401858      5.2636882787114923
   223   1     0.82129042304749045      18.731305007579415      3.1400553801511668
   224   1      9.3167336596854735      2.6373840300812708      19.224803692002549
   225   1      6.3688397179069716      11.693876353669845      1.8929101500178989
   226   1      6.9595538766083624      5.9937696305108759      19.830993663260347
   227   1      8.4512634020673136     0.97604753863834726      18.398526177718935
   228   1      14.952870973888082      15.105382582180654      7.4737203649848114
   229   1      20.506429223335257     0.90859800802648605       5.277227373919855
   230   1      8.2448560497499344      18.536812651387542      13.356623565965874
   231   1      8.4768207524630679      2.7655627105221932       16.29731272796521
   232   1      10.682951249935996      18.618601703964558      15.520275222336766
   233   1      10.242915461121449      5.8093482173662823      20.784006696240411
   234   1      17.373573060417201       20.45430442598407      7.0176030111453906
   235   1      18.573451864384939      16.963336212837849      6.1812424794436511
   236   1      11.286773784827174      20.849082394120106      14.400488692912353
   237   1      11.441047237836811      13.016474755981713       17.42856913087801
   238   1      6.6988637732113636      19.433254215302767      20.421864381100416
   239   1      19.074091093264425      7.1981653358398452      17.600200106970053
   240   1      4.1393523462219237      6.0306737682621163      10.893841915913644
   241   1      16.343436894553768       2.233124321502292      8.2450941392614894
   242   1      11.136065037200218      12.252063265550689      7.9948110360752578
   243   1       6.285159614628733      3.5058305625540429      11.145380559662977
   244   1      19.690168874750437      20.132590303121507     0.40336624558296003
   245   1       12.47771822758199      20.656125184349722       3.931368585107653
   246   1      5.4252850888504431      8.7760311587136641      15.838541191929238
   247   1      14.162014594588786      16.460835974537542      19.173736168093352
   248   1     0.58933445049470001      16.431075947101078      14.449861699637022
   249   1      10.388117597091313      5.0576385278323102      13.571165377129415
   250   1       8.724158098390447      8.7580349378841138       7.589923453793193
   251   1      1.7384800780804077      20.690519275684174       11.39377720507337
   252   1      16.329375900804905      2.7129453215871342      10.729427453811303
   253   1      6.6346554034815695      7.8505642406594518      4.9649866915435892
   254   1      18.544479853448113      11.476535429906024      7.7170573391160211
   255   1      4.0676056129664584      13.202003095827978      15.277290496561987
   256   1      14.594710017575606      7.7010531081460885      3.0759817003962175
   257   1      7.4081947997885385      14.494482872088692      2.3542296514269236
   258   1      3.1289066378180239      7.6648872443585105      5.7416184230512686
   259   1      16.298024064538801      18.738354337652105      17.522152158400992
   260   1     0.93068563141360938      13.181700028040479      17.111878309600353
   261   1       4.147514085609175       11.61776346442309      8.5362956987563496
   262   1       6.745422350689128      2.8549983716662393      7.5150734458212707
   263   1       7.982151612069595       13.91931115319812      9.3420321383418887
   264   1      1.6183638363623869      8.6918928652822878      10.576929497081322
   265   1      16.519935968538004      13.303361185039751      8.0967464872435375
   266   1       8.780669032219242       4.708323710297095      9.2412735056401374
   267   1      9.6721923912458774      6.3331464908204014      6.7517087001806786
   268   1      3.2183464208682855      3.6864646260385636      12.975293940639508
   269   1      10.064426066270499      10.950391266063955       1.316379056671638
   270   1      14.856046851811922       13.34022281134078      8.8726134912029888
   271   1      8.9219832909105801        16.9334514375849     0.29482464276881293
   272   1      9.7841799874479101      11.340098084026787        4.85396332613825
   273   1      17.957483012242371      12.594026259699627      18.241223864999132
   274   1      21.005296140848689      3.5101963172069581      12.629270461596432
   275   1      6.3379718046797109       9.311938204505319      8.8355635456479344
   276   1      9.0054398904966622      14.126733444616658      19.888323830125987
   277   1      2.0448465268761917      12.680904067520917      15.576214446806746
   278   1      2.4286245814011962       2.912411691880608      20.104094772681837
   279   1      5.5207987773716418      17.462482274267558      13.342292300149689
   280   1       2.086798202133513      11.062629258863359      13.512206455178594
   281   1      15.589753163791775     0.12995913650612226      7.7708509216568347
   282   1      5.5831185055711616      3.1245407562791065      4.6301054843808789
   283   1      7.7481709873470566      14.988456116198083      11.861029125950701
   284   1      16.861363482339396      17.531981771575971      5.0006484803112485
   285   1      7.3131487771643062      9.2494547628211947      15.570286432219994
   286   1      17.297120783580837      3.0344851755303037      2.9734669380108953
   287   1      13.003181119148964      11.360900584376781      18.686123255686269
   288   1      7.7475203871824156      1.7306551208363912      9.0518937580420662
   289   1      14.689671455337713      15.424832838536842      1.8047253251561024
   290   1      14.014223386561458      13.125638133576818      12.720739235141567
   291   1      10.777233718716138      20.453773928309484      18.833564039502363
   292   1      13.968544546480377      5.8302151558695883      20.533986298894249
   293   1      19.951499184105554      18.465699635808122      20.330725681190295
   294   1      20.027240703380002      10.509853719431558       16.95977910439106
   295   1      14.576997736966065      3.8258678153161876      15.448194737398731
   296   1      12.293879936795543      16.444331471486127      19.367881926562184
   297   1      10.405069791082759      17.191506859133465      16.905232142327787
   298   1      17.710731838823595      16.603400687249085      8.1730115174702771
   299   1      10.193797481317207      15.168130603424693      17.858832703668163
   300   1      10.544218777284797      15.408975980204834      9.3279122836595576
   301   1      16.803388940571576      11.757979408544111      10.694751074843879
   302   1      10.267287970068045      18.946792430894391      11.445322811106884
   303   1      1.2864625393060436       6.178971579560903      14.574444909435252
   304   1      6.6385215590347562      19.406648484794523      14.538394325849531
   305   1      4.6322114057128374      15.936431945821273      15.464186014242047
   306   1      16.740374913506866       3.873023970041364      7.0219528604402379
   307   1      18.915575901562665     0.34637693213867776      6.2563844043283874
   308   1      3.1337572282710284      15.496127617739804      3.1825417571157919
   309   1      12.506639415430573      10.240031100914305      20.418493516841398
   310   1      1.3130970972406948      5.2944883541391601      10.736810675626447
   311   1      8.9501884698556804      18.270221258108922      2.5089825074712646
   312   1     0.38271349889856804      1.8694948840944745      8.4864437842189595
   313   1      4.2124737250558733      20.428487430383893      2.4936394557927719
   314   1      19.236271303199157      13.618244031768386      7.1563682869354794
   315   1      9.1156634861240633      7.2761965016370329      12.984449775847812
   316   1      12.387768130924998      8.5061394347018844      1.9772007811729757
   317   1      20.499552660371187       12.97742085625768      18.279550696785233
   318   1      16.342166476874493      5.9210122542830419      14.367478227947922
   319   1       9.084920010807501      16.371113640355283      4.6716236906746049
   320   1      3.9695712505220904      4.1505054446497125     0.38783886237080584
   321   1      14.112203779968743       9.558767765524431      15.055039712706851
   322   1      4.8199287278135339     0.83503817724779228       12.32177425536716
   323   1      5.9053992704923495      18.872652010943792      12.149480184862899
   324   1      7.5820237067678775      18.283105105520093      7.9180868323309035
   325   1       2.129181977754329      2.4090041494028207      8.5789282249917704
   326   1      3.6354646400629642      16.879372148843753      4.6329529570113372
   327   1      5.1295331640373973      6.6996296384210758      2.0316736806179883
   328   1      2.2139275471422168      16.894078909247817      18.716815120674866
   329   1      15.303725309810469      18.851041394157662      8.6114869265176672
   330   1      19.551496979085407      2.7734860618586596      10.032498440324309
   331   1      17.707508560139491      9.5890701108353316       17.06239445033782
   332   1      5.4874557901615448      11.602780852563656      12.584838906580924
   333   1      14.060985341430907      17.165856609837526      13.990605490611651
   334   1      19.303371421324556      7.8918191310905303      15.403467614994723
   335   1      8.3977597582727324      11.387866725947122      10.055966193414481
   336   1      10.557297062743684      3.5712305129291178      15.381457125855459
   337   1      15.952482570339679      18.115984394855701      11.841794776577281
   338   1      5.2371722314102547      12.776140862966308      4.5945455690110792
   339   1      16.617008042138615      16.184940179530333       9.719702350830028
   340   1      1.0398834461368771      10.317474509198361       1.166627471299339
   341   1      8.8491286280079287      13.489943038800167      12.327845571250498
   342   1       1.712769509161234      15.277658569637957      7.4953184044975787
   343   1      17.776991851258114      13.105021015115147      5.9733921736901223
   344   1      17.231640644641562      15.516380029187143      1.7812554602650743
   345   1      9.9715076693038398      10.474405114581765      8.4587005841940037
   346   1      11.623959485951339      11.956641066479259       20.38436013814075
   347   1      8.3595467389558635      19.950287610693707      19.904451699471409
   348   1      13.137215392634431      13.692155049209109       18.83635479294643
   349   1      19.727831508813722      6.8792001171570458      9.2118074093715894
   350   1      9.6523201037852875      13.356483851034978      3.2146087623613049
   351   1      6.8700897138244263      11.007068095298038      3.7019167681000638
   352   1      4.5549501833492059      16.838599618052424      7.6267595858312598
   353   1      0.1084477550873148     0.78309038517465968      15.346696630408653
   354   1      5.8475606790571675      12.222757303816962      16.225256460869826
   355   1      18.142730450199256      19.740177176534253      9.3702972934435564
   356   1      5.9821656492143891      4.5290826125927897     0.42913882370478346
   357   1      8.0515676977978359       11.37273286653911      5.3997490598346767
   358   1       3.356579040624216      19.724905103356789      14.861052612825109
   359   1      10.245804965845847      7.5321291491830209      8.1648625589974611