 vasp.6.5.0 16Dec24 (build Jan 20 2025 08:32:48) complex                         
 executed on        HPECrayEX_GCC date 2025.07.21  22:46:12
 running  128 mpi-ranks, with    1 threads/rank, on    1 nodes
 distrk:  each k-point on  128 cores,    1 groups
 distr:  one band on NCORE=  16 cores,    8 groups


--------------------------------------------------------------------------------------------------------


 INCAR:
   SYSTEM = a-Si SPC
   NCORE = 16
   ISTART = 1
   ICHARG = 1
   ISPIN = 1
   ISYM = 1
   EDIFF = 1E-6
   NELM = 150
   EDIFFG = -0.01
   NSW = 0
   ISIF = 2
   IBRION = -1
   PREC = Accurate
   ENCUT = 1200
   KSPACING = 0.23
   KGAMMA = .TRUE.
   METAGGA = SCAN
   LASPH = .TRUE.
   LDIAG = .FALSE.
   LMIXTAU = .TRUE.
   ADDGRID = .TRUE.
   ALGO = Normal
   ISMEAR = 0
   SIGMA = 0.1
   LORBIT = 11
   NEDOS = 2000
   LWAVE = .FALSE.
   LCHARG = .FALSE.

 POTCAR:    PAW_PBE H 15Jun2001                   
 POTCAR:    PAW_PBE Si 05Jan2001                  
 POTCAR:    PAW_PBE H 15Jun2001                   
   SHA256 =  030f79b5d3ab3cf0e668861823c8fb652ff669f3e15e46930bd03bfd63a607b6 H/POTCAR              
   COPYR  = (c) Copyright 15Jun2001 Georg Kresse                                                    
   COPYR  = This file is part of the software VASP. Any use, copying, and all other rights are regul
   COPYR  = If you do not have a valid VASP license, you may not use, copy or distribute this file. 
   VRHFIN =H: ultrasoft test                                                                        
   LEXCH  = PE                                                                                      
   EATOM  =    12.4884 eV,    0.9179 Ry                                                             
                                                                                                    
   TITEL  = PAW_PBE H 15Jun2001                                                                     
   LULTRA =        F    use ultrasoft PP ?                                                          
   IUNSCR =        0    unscreen: 0-lin 1-nonlin 2-no                                               
   RPACOR =    0.000    partial core radius                                                         
   POMASS =    1.000; ZVAL   =    1.000    mass and valenz                                          
   RCORE  =    1.100    outmost cutoff radius                                                       
   RWIGS  =    0.700; RWIGS  =    0.370    wigner-seitz radius (au A)                               
   ENMAX  =  250.000; ENMIN  =  200.000 eV                                                          
   RCLOC  =    0.701    cutoff for local pot                                                        
   LCOR   =        T    correct aug charges                                                         
   LPAW   =        T    paw PP                                                                      
   EAUG   =  400.000                                                                                
   RMAX   =    1.123    core radius for proj-oper                                                   
   RAUG   =    1.200    factor for augmentation sphere                                              
   RDEP   =    1.112    radius for radial grids                                                     
   RDEPT  =    0.926    core radius for aug-charge                                                  
                                                                                                    
   Atomic configuration                                                                             
    2 entries                                                                                       
     n  l   j            E        occ.                                                              
     1  0  0.50        -6.4927   1.0000                                                             
     2  1  0.50        -3.4015   0.0000                                                             
   Description                                                                                      
     l       E           TYP  RCUT    TYP  RCUT                                                     
     0     -6.4927494     23  1.100                                                                 
     0      6.8029130     23  1.100                                                                 
     1     -4.0817478     23  1.100                                                                 
  local pseudopotential read in
  atomic valenz-charges read in
  non local Contribution for L=           0  read in
    real space projection operators read in
  non local Contribution for L=           0  read in
    real space projection operators read in
  non local Contribution for L=           1  read in
    real space projection operators read in
    PAW grid and wavefunctions read in

   number of l-projection  operators is LMAX  =           3
   number of lm-projection operators is LMMAX =           5

 POTCAR:    PAW_PBE Si 05Jan2001                  
   SHA256 =  79d9987ad8750f624c4d6acb2a16d13abf6a777132adc04dc6c8399be72b42bb Si/POTCAR             
   COPYR  = (c) Copyright 05Jan2001 Georg Kresse                                                    
   COPYR  = This file is part of the software VASP. Any use, copying, and all other rights are regul
   COPYR  = If you do not have a valid VASP license, you may not use, copy or distribute this file. 
   VRHFIN =Si: s2p2                                                                                 
   LEXCH  = PE                                                                                      
   EATOM  =   103.0669 eV,    7.5752 Ry                                                             
                                                                                                    
   TITEL  = PAW_PBE Si 05Jan2001                                                                    
   LULTRA =        F    use ultrasoft PP ?                                                          
   IUNSCR =        1    unscreen: 0-lin 1-nonlin 2-no                                               
   RPACOR =    1.500    partial core radius                                                         
   POMASS =   28.085; ZVAL   =    4.000    mass and valenz                                          
   RCORE  =    1.900    outmost cutoff radius                                                       
   RWIGS  =    2.480; RWIGS  =    1.312    wigner-seitz radius (au A)                               
   ENMAX  =  245.345; ENMIN  =  184.009 eV                                                          
   ICORE  =        2    local potential                                                             
   LCOR   =        T    correct aug charges                                                         
   LPAW   =        T    paw PP                                                                      
   EAUG   =  322.069                                                                                
   DEXC   =    0.000                                                                                
   RMAX   =    1.950    core radius for proj-oper                                                   
   RAUG   =    1.300    factor for augmentation sphere                                              
   RDEP   =    1.993    radius for radial grids                                                     
   RDEPT  =    1.837    core radius for aug-charge                                                  
                                                                                                    
   Atomic configuration                                                                             
    6 entries                                                                                       
     n  l   j            E        occ.                                                              
     1  0  0.50     -1785.8828   2.0000                                                             
     2  0  0.50      -139.4969   2.0000                                                             
     2  1  1.50       -95.5546   6.0000                                                             
     3  0  0.50       -10.8127   2.0000                                                             
     3  1  0.50        -4.0811   2.0000                                                             
     3  2  1.50        -4.0817   0.0000                                                             
   Description                                                                                      
     l       E           TYP  RCUT    TYP  RCUT                                                     
     0    -10.8127223     23  1.900                                                                 
     0     -7.6451159     23  1.900                                                                 
     1     -4.0811372     23  1.900                                                                 
     1      2.4879257     23  1.900                                                                 
     2     -4.0817478      7  1.900                                                                 
  local pseudopotential read in
  partial core-charges read in
  partial kinetic energy density read in
  atomic valenz-charges read in
  non local Contribution for L=           0  read in
    real space projection operators read in
  non local Contribution for L=           0  read in
    real space projection operators read in
  non local Contribution for L=           1  read in
    real space projection operators read in
  non local Contribution for L=           1  read in
    real space projection operators read in
    PAW grid and wavefunctions read in

   number of l-projection  operators is LMAX  =           4
   number of lm-projection operators is LMMAX =           8

 -----------------------------------------------------------------------------
|                                                                             |
|               ----> ADVICE to this user running VASP <----                  |
|                                                                             |
|     You have a (more or less) 'large supercell' and for larger cells it     |
|     might be more efficient to use real-space projection operators.         |
|     Therefore, try LREAL= Auto in the INCAR file.                           |
|     Mind: For very accurate calculation, you might also keep the            |
|     reciprocal projection scheme (i.e. LREAL=.FALSE.).                      |
|                                                                             |
 -----------------------------------------------------------------------------

 -----------------------------------------------------------------------------
|                                                                             |
|               ----> ADVICE to this user running VASP <----                  |
|                                                                             |
|     You enforced a specific xc type in the INCAR file but a different       |
|     type was found in the POTCAR file.                                      |
|     I HOPE YOU KNOW WHAT YOU ARE DOING!                                     |
|                                                                             |
 -----------------------------------------------------------------------------

  PAW_PBE H 15Jun2001                   :
 energy of atom  1       EATOM=  -12.4884
 kinetic energy error for atom=    0.0000 (will be added to EATOM!!)
  PAW_PBE Si 05Jan2001                  :
 energy of atom  2       EATOM= -103.0669
 kinetic energy error for atom=    0.0001 (will be added to EATOM!!)


 POSCAR:  H Si
  positions in cartesian coordinates
  No initial velocities read in


 exchange-correlation table for SCAN
   RHO(1)=    0.500       N(1)  =     2000
   RHO(2)=  100.500       N(2)  =     4000



--------------------------------------------------------------------------------------------------------


 ion  position               nearest neighbor table
   1  0.515  0.857  0.581-   9 1.49
   2  0.969  0.678  0.787-  67 2.31  75 2.45  53 2.66  14 2.92
   3  0.513  0.084  0.005-  52 2.36  54 2.37  69 2.38  19 2.43
   4  0.740  0.313  0.325-  58 2.34  28 2.38  35 2.43  23 2.47
   5  0.312  0.699  0.465-  66 2.34  16 2.40  84 2.46  41 2.55
   6  0.057  0.229  0.783-  21 2.39  25 2.41  33 2.42  47 2.56
   7  0.003  0.358  0.179-  71 2.28  23 2.29  29 2.42  33 2.50
   8  0.605  0.163  0.549-  76 2.26  18 2.30  17 2.32  35 2.35  15 2.89
   9  0.490  0.945  0.650-   1 1.49  68 2.34  76 2.47  57 2.62
  10  0.986  0.111  0.445-  39 2.32  40 2.33  44 2.42  26 2.51
  11  0.146  0.518  0.316-  77 2.29  66 2.31  81 2.36  71 2.43
  12  0.148  0.120  0.117-  33 2.35  63 2.40  59 2.44  44 2.45
  13  0.171  0.530  0.662-  85 2.34  73 2.36  66 2.41  53 2.42
  14  0.117  0.798  0.691-  41 2.28  32 2.42  64 2.44  73 2.64   2 2.92
  15  0.528  0.340  0.619-  17 2.24  18 2.30  42 2.34  62 2.57   8 2.89
  16  0.367  0.773  0.264-  82 2.22  80 2.31   5 2.40  61 2.51
  17  0.670  0.287  0.661-  15 2.24  79 2.26  58 2.30   8 2.32
  18  0.453  0.209  0.545-  15 2.30   8 2.30  78 2.39  20 2.51
  19  0.372  0.160  0.933-  63 2.32  20 2.41   3 2.43  60 2.50
  20  0.327  0.154  0.698-  47 2.40  57 2.41  19 2.41  18 2.51
  21  0.963  0.364  0.802-  70 2.37  46 2.39   6 2.39  29 2.41
  22  0.947  0.658  0.212-  43 2.32  75 2.37  77 2.40
  23  0.866  0.281  0.164-   7 2.29  26 2.38   4 2.47  70 2.49
  24  0.187  0.288  0.419-  30 2.27  44 2.33  47 2.34  71 2.36
  25  0.916  0.143  0.799-   6 2.41  70 2.41  39 2.47  45 2.51
  26  0.910  0.128  0.219-  23 2.38  59 2.45  51 2.47  10 2.51
  27  0.359  0.032  0.277-  63 2.31  61 2.35  78 2.39  49 2.40
  28  0.631  0.419  0.234-  42 2.31  65 2.33   4 2.38
  29  0.023  0.456  0.983-  75 2.39  21 2.41   7 2.42  31 2.60  33 3.09
  30  0.311  0.308  0.282-  24 2.27  60 2.29  78 2.29  50 2.35
  31  0.184  0.379  0.974-  33 2.34  60 2.35  81 2.38  85 2.42  29 2.60
  32  0.253  0.889  0.740-  48 2.20  57 2.33  84 2.41  14 2.42
  33  0.087  0.254  0.020-  31 2.34  12 2.35   6 2.42   7 2.50  29 3.09
  34  0.831  0.876  0.982-  43 2.41  45 2.45  36 2.45  67 2.50
  35  0.657  0.168  0.324-  69 2.33   8 2.35  51 2.39   4 2.43
  36  0.709  0.979  0.063-  52 2.37  54 2.43  34 2.45  51 2.48
  37  0.141  0.876  0.326-  38 2.24  41 2.29  49 2.35  80 2.79
  38  0.992  0.907  0.287-  37 2.24  43 2.27  40 2.38  59 2.56
  39  0.861  0.166  0.565-  10 2.32  58 2.39  25 2.47  83 2.65
  40  0.940  0.962  0.500-  10 2.33  64 2.35  38 2.38  83 2.51
  41  0.145  0.755  0.474-  14 2.28  37 2.29  77 2.32   5 2.55
  42  0.528  0.416  0.411-  50 2.29  28 2.31  15 2.34
  43  0.895  0.808  0.183-  38 2.27  22 2.32  34 2.41
  44  0.140  0.139  0.363-  24 2.33  49 2.36  10 2.42  12 2.45
  45  0.943  0.986  0.894-  59 2.29  64 2.37  34 2.45  25 2.51
  46  0.939  0.413  0.574-  21 2.39  53 2.42  58 2.43  71 2.54
  47  0.205  0.261  0.650-  24 2.34  85 2.37  20 2.40   6 2.56
  48  0.302  0.900  0.949-  32 2.20  80 2.34  63 2.51  68 2.58
  49  0.224  0.003  0.409-  37 2.35  44 2.36  27 2.40  57 2.42
  50  0.376  0.445  0.369-  42 2.29  66 2.34  30 2.35  55 2.44
  51  0.764  0.048  0.276-  83 2.29  35 2.39  26 2.47  36 2.48
  52  0.552  0.934  0.072-   3 2.36  36 2.37  68 2.40  61 2.45
  53  0.015  0.561  0.592-  77 2.32  13 2.42  46 2.42   2 2.66
  54  0.660  0.096  0.903-  79 2.29   3 2.37  36 2.43  76 2.66
  55  0.391  0.523  0.152-  74 2.35  50 2.44  81 2.48  82 2.56
  56  0.453  0.727  0.861-  84 2.35  68 2.38  82 2.41
  57  0.322  0.001  0.605-  32 2.33  20 2.41  49 2.42   9 2.62
  58  0.803  0.319  0.543-  17 2.30   4 2.34  39 2.39  46 2.43
  59  0.012  0.023  0.096-  45 2.29  12 2.44  26 2.45  38 2.56
  60  0.315  0.300  0.052-  30 2.29  31 2.35  74 2.47  19 2.50
  61  0.468  0.912  0.284-  27 2.35  52 2.45  16 2.51
  62  0.411  0.439  0.749-  85 2.42  74 2.44  15 2.57
  63  0.295  0.053  0.066-  27 2.31  19 2.32  12 2.40  48 2.51
  64  0.978  0.890  0.706-  40 2.35  45 2.37  67 2.40  14 2.44
  65  0.583  0.330  0.051-  28 2.33  69 2.41  74 2.53  79 2.54
  66  0.266  0.544  0.463-  11 2.31   5 2.34  50 2.34  13 2.41
  67  0.855  0.788  0.768-   2 2.31  64 2.40  34 2.50
  68  0.472  0.890  0.871-   9 2.34  56 2.38  52 2.40  48 2.58
  69  0.535  0.196  0.177-  78 2.29  35 2.33   3 2.38  65 2.41
  70  0.850  0.274  0.914-  21 2.37  25 2.41  79 2.41  23 2.49
  71  0.058  0.384  0.390-   7 2.28  24 2.36  11 2.43  46 2.54
  72  0.187  0.654  0.020-  81 2.34  73 2.35  75 2.47  80 2.50
  73  0.216  0.660  0.787-  84 2.31  72 2.35  13 2.36  14 2.64
  74  0.435  0.413  0.991-  55 2.35  62 2.44  60 2.47  65 2.53
  75  0.021  0.620  0.007-  22 2.37  29 2.39   2 2.45  72 2.47
  76  0.638  0.029  0.655-   8 2.26   9 2.47  83 2.51  54 2.66
  77  0.055  0.636  0.393-  11 2.29  53 2.32  41 2.32  22 2.40
  78  0.409  0.187  0.316-  69 2.29  30 2.29  18 2.39  27 2.39
  79  0.687  0.251  0.881-  17 2.26  54 2.29  70 2.41  65 2.54
  80  0.247  0.802  0.118-  16 2.31  48 2.34  72 2.50  37 2.79  82 3.08
  81  0.224  0.510  0.108-  72 2.34  11 2.36  31 2.38  55 2.48
  82  0.427  0.692  0.095-  16 2.22  56 2.41  55 2.56  80 3.08
  83  0.774  0.012  0.501-  51 2.29  40 2.51  76 2.51  39 2.65
  84  0.335  0.748  0.701-  73 2.31  56 2.35  32 2.41   5 2.46
  85  0.249  0.403  0.752-  13 2.34  47 2.37  31 2.42  62 2.42

  LATTYP: Found a simple tetragonal cell.
 ALAT       =    14.5214782167
 C/A-ratio  =     0.6824840516
  
  Lattice vectors:
  
 A1 = (  14.5214782167,   0.0000000000,   0.0000000000)
 A2 = (   0.0000000000,  14.5214782167,   0.0000000000)
 A3 = (   0.0000000000,   0.0000000000,   9.9106772879)


Analysis of symmetry for initial positions (statically):
=====================================================================
 Subroutine PRICEL returns:
 Original cell was already a primitive cell.
 

 Routine SETGRP: Setting up the symmetry group for a 
 simple tetragonal supercell.


 Subroutine GETGRP returns: Found  1 space group operations
 (whereof  1 operations were pure point group operations)
 out of a pool of 16 trial point group operations.


The static configuration has the point symmetry C_1 .


Analysis of symmetry for dynamics (positions and initial velocities):
=====================================================================
 Subroutine PRICEL returns:
 Original cell was already a primitive cell.
 

 Routine SETGRP: Setting up the symmetry group for a 
 simple tetragonal supercell.


 Subroutine GETGRP returns: Found  1 space group operations
 (whereof  1 operations were pure point group operations)
 out of a pool of 16 trial point group operations.


The dynamic configuration has the point symmetry C_1 .


 Subroutine INISYM returns: Found  1 space group operations
 (whereof  1 operations are pure point group operations),
 and found     1 'primitive' translations


----------------------------------------------------------------------------------------

                                     Primitive cell                                     

  volume of cell :    2089.8975

  direct lattice vectors                    reciprocal lattice vectors
    14.521478217  0.000000000  0.000000000     0.068863513  0.000000000  0.000000000
     0.000000000 14.521478217  0.000000000     0.000000000  0.068863513  0.000000000
     0.000000000  0.000000000  9.910677288     0.000000000  0.000000000  0.100901278

  length of vectors
    14.521478217 14.521478217  9.910677288     0.068863513  0.068863513  0.100901278

  position of ions in fractional coordinates (direct lattice)
     0.514714817  0.856779166  0.581120728
     0.969419214  0.678053560  0.787372020
     0.512856191  0.084364001  0.004556641
     0.740441148  0.313218801  0.324894042
     0.311805033  0.698592791  0.465386963
     0.057199480  0.229312054  0.782624615
     0.002638877  0.357969066  0.178884848
     0.605245545  0.162793344  0.548740499
     0.490425279  0.944731645  0.650486320
     0.986153048  0.110959778  0.445010959
     0.145913520  0.517788195  0.316451632
     0.148398804  0.120356204  0.117052545
     0.171465326  0.529730506  0.661660128
     0.117047313  0.797735590  0.691467374
     0.527606066  0.339658258  0.618933482
     0.366771889  0.772634840  0.264095977
     0.670085363  0.287352977  0.660875116
     0.453497909  0.208845818  0.545370396
     0.371760362  0.159697929  0.932629500
     0.327177435  0.154177830  0.698264084
     0.962698135  0.363763242  0.801772651
     0.946831982  0.657584569  0.212309405
     0.865690105  0.280633276  0.163516574
     0.187319773  0.287870142  0.418904771
     0.915795197  0.143336647  0.798728459
     0.909507958  0.127596514  0.218795339
     0.359134237  0.032078828  0.276918511
     0.631066608  0.418734919  0.233722674
     0.022700788  0.456055499  0.983177004
     0.311008283  0.308382517  0.282412586
     0.184099026  0.379253401  0.974082771
     0.252728403  0.889131245  0.739963555
     0.086923658  0.254485800  0.019524599
     0.830810736  0.875971427  0.982348604
     0.656999918  0.168315509  0.323986939
     0.708798364  0.978516084  0.062500370
     0.140896813  0.876405267  0.325999920
     0.992288787  0.906815395  0.287383992
     0.860614864  0.165932143  0.565475985
     0.939842335  0.962009500  0.500440066
     0.145425278  0.755322553  0.473722417
     0.527829184  0.415764835  0.410615731
     0.894798712  0.807596846  0.183201405
     0.140380337  0.139105673  0.362819805
     0.943430124  0.985774298  0.894163915
     0.939436041  0.413332576  0.574162576
     0.205298659  0.261204124  0.650201779
     0.302257796  0.899777544  0.948924047
     0.223816057  0.003109752  0.408586606
     0.375658037  0.444990510  0.368553015
     0.764495173  0.047644736  0.275780345
     0.552084291  0.933858096  0.072312919
     0.014918316  0.561381553  0.592105850
     0.660152490  0.095887621  0.903327769
     0.391289366  0.523449465  0.152017865
     0.452997271  0.727054081  0.860577915
     0.322074649  0.001075875  0.605389503
     0.802528491  0.319096991  0.542574422
     0.011663826  0.023456703  0.095581560
     0.314788201  0.299823471  0.052139423
     0.467555706  0.912283158  0.284339800
     0.411257030  0.438505633  0.749317104
     0.294647001  0.052656485  0.065534875
     0.977565768  0.890432765  0.706067789
     0.582619061  0.329949880  0.050864637
     0.266406763  0.544271725  0.463390126
     0.854837215  0.788067153  0.768362220
     0.471579401  0.889833652  0.871281523
     0.535152819  0.196408379  0.177401599
     0.849899701  0.273724199  0.913918367
     0.058336830  0.384313492  0.390475836
     0.187205459  0.654472627  0.020242411
     0.216232119  0.660190365  0.787115731
     0.434775985  0.412689391  0.990619482
     0.020889884  0.619556072  0.006541127
     0.638220838  0.029241031  0.655419384
     0.054540246  0.635631570  0.392832890
     0.409374990  0.186859765  0.315555628
     0.687135280  0.250707259  0.881066929
     0.246516914  0.801791651  0.117798206
     0.223869082  0.509736673  0.107904835
     0.426816741  0.691658235  0.095258676
     0.774211815  0.011776143  0.500615635
     0.335081589  0.747816430  0.700646363
     0.248594526  0.402711757  0.751892104

  ion indices of the primitive-cell ions
   primitive index   ion index
                 1           1
                 2           2
                 3           3
                 4           4
                 5           5
                 6           6
                 7           7
                 8           8
                 9           9
                10          10
                11          11
                12          12
                13          13
                14          14
                15          15
                16          16
                17          17
                18          18
                19          19
                20          20
                21          21
                22          22
                23          23
                24          24
                25          25
                26          26
                27          27
                28          28
                29          29
                30          30
                31          31
                32          32
                33          33
                34          34
                35          35
                36          36
                37          37
                38          38
                39          39
                40          40
                41          41
                42          42
                43          43
                44          44
                45          45
                46          46
                47          47
                48          48
                49          49
                50          50
                51          51
                52          52
                53          53
                54          54
                55          55
                56          56
                57          57
                58          58
                59          59
                60          60
                61          61
                62          62
                63          63
                64          64
                65          65
                66          66
                67          67
                68          68
                69          69
                70          70
                71          71
                72          72
                73          73
                74          74
                75          75
                76          76
                77          77
                78          78
                79          79
                80          80
                81          81
                82          82
                83          83
                84          84
                85          85

----------------------------------------------------------------------------------------


 -----------------------------------------------------------------------------
|                                                                             |
|           W    W    AA    RRRRR   N    N  II  N    N   GGGG   !!!           |
|           W    W   A  A   R    R  NN   N  II  NN   N  G    G  !!!           |
|           W    W  A    A  R    R  N N  N  II  N N  N  G       !!!           |
|           W WW W  AAAAAA  RRRRR   N  N N  II  N  N N  G  GGG   !            |
|           WW  WW  A    A  R   R   N   NN  II  N   NN  G    G                |
|           W    W  A    A  R    R  N    N  II  N    N   GGGG   !!!           |
|                                                                             |
|     The requested file  could not be found or opened for reading            |
|     k-point information. Automatic k-point generation is used as a          |
|     fallback, which may lead to unwanted results.                           |
|                                                                             |
 -----------------------------------------------------------------------------



Automatic generation of k-mesh.
 Grid dimensions derived from KSPACING:
 generate k-points for:    2    2    3

 Generating k-lattice:

  Cartesian coordinates                     Fractional coordinates (reciprocal lattice)
     0.034431756  0.000000000  0.000000000     0.500000000  0.000000000  0.000000000
     0.000000000  0.034431756  0.000000000     0.000000000  0.500000000  0.000000000
     0.000000000  0.000000000  0.033633759     0.000000000  0.000000000  0.333333333

  Length of vectors
     0.034431756  0.034431756  0.033633759

  Shift w.r.t. Gamma in fractional coordinates (k-lattice)
     0.000000000  0.000000000  0.000000000

 
 Subroutine IBZKPT returns following result:
 ===========================================
 
 Found      8 irreducible k-points:
 
 Following reciprocal coordinates:
            Coordinates               Weight
  0.000000  0.000000  0.000000      1.000000
  0.500000  0.000000  0.000000      1.000000
  0.000000  0.500000  0.000000      1.000000
  0.500000  0.500000  0.000000      1.000000
  0.000000  0.000000  0.333333      2.000000
  0.500000  0.000000  0.333333      2.000000
  0.000000  0.500000  0.333333      2.000000
  0.500000  0.500000  0.333333      2.000000
 
 Following cartesian coordinates:
            Coordinates               Weight
  0.000000  0.000000  0.000000      1.000000
  0.034432  0.000000  0.000000      1.000000
  0.000000  0.034432  0.000000      1.000000
  0.034432  0.034432  0.000000      1.000000
  0.000000  0.000000  0.033634      2.000000
  0.034432  0.000000  0.033634      2.000000
  0.000000  0.034432  0.033634      2.000000
  0.034432  0.034432  0.033634      2.000000
 


--------------------------------------------------------------------------------------------------------




 Dimension of arrays:
   k-points           NKPTS =      8   k-points in BZ     NKDIM =      8   number of bands    NBANDS=    216
   number of dos      NEDOS =   2000   number of ions     NIONS =     85
   non local maximal  LDIM  =      4   non local SUM 2l+1 LMDIM =      8
   total plane-waves  NPLWV = ******
   max r-space proj   IRMAX =      1   max aug-charges    IRDMAX= 404730
   dimension x,y,z NGX =   168 NGY =  168 NGZ =  112
   dimension x,y,z NGXF=   336 NGYF=  336 NGZF=  224
   support grid    NGXF=   672 NGYF=  672 NGZF=  448
   ions per type =               1  84
   NGX,Y,Z   is equivalent  to a cutoff of  19.23, 19.23, 18.79 a.u.
   NGXF,Y,Z  is equivalent  to a cutoff of  38.47, 38.47, 37.57 a.u.

 SYSTEM =  a-Si SPC                                
 POSCAR =   H Si                                   

 Startparameter for this run:
   NWRITE =      2    write-flag & timer
   PREC   = accura    normal or accurate (medium, high low for compatibility)
   ISTART =      1    job   : 0-new  1-cont  2-samecut
   ICHARG =      1    charge: 1-file 2-atom 10-const
   ISPIN  =      1    spin polarized calculation?
   LNONCOLLINEAR =      F non collinear calculations
   LSORBIT =      F    spin-orbit coupling
   INIWAV =      1    electr: 0-lowe 1-rand  2-diag
   LASPH  =      T    aspherical Exc in radial PAW
 Electronic Relaxation 1
   ENCUT  = 1200.0 eV  88.20 Ry    9.39 a.u.  41.02 41.02 27.99*2*pi/ulx,y,z
   ENINI  = 1200.0     initial cutoff
   ENAUG  =  400.0 eV  augmentation charge cutoff
   NELM   =    150;   NELMIN=  2; NELMDL=  0     # of ELM steps 
   EDIFF  = 0.1E-05   stopping-criterion for ELM
   LREAL  =      F    real-space projection
   NLSPLINE    = F    spline interpolate recip. space projectors
   LCOMPAT=      F    compatible to vasp.4.4
   GGA_COMPAT  = T    GGA compatible to vasp.4.4-vasp.4.6
   LMAXPAW     = -100 max onsite density
   LMAXMIX     =    2 max onsite mixed and CHGCAR
   VOSKOWN=      0    Vosko Wilk Nusair interpolation
   ROPT   =    0.00000   0.00000
 Ionic relaxation
   EDIFFG = -.1E-01   stopping-criterion for IOM
   NSW    =      0    number of steps for IOM
   NBLOCK =      1;   KBLOCK =      1    inner block; outer block 
   IBRION =     -1    ionic relax: 0-MD 1-quasi-New 2-CG
   NFREE  =      0    steps in history (QN), initial steepest desc. (CG)
   ISIF   =      2    stress and relaxation
   IWAVPR =     10    prediction:  0-non 1-charg 2-wave 3-comb
   ISYM   =      1    0-nonsym 1-usesym 2-fastsym
   LCORR  =      T    Harris-Foulkes like correction to forces

   POTIM  = 0.5000    time-step for ionic-motion
   TEIN   =    0.0    initial temperature
   TEBEG  =    0.0;   TEEND  =   0.0 temperature during run
   SMASS  =  -3.00    Nose mass-parameter (am)
   estimated Nose-frequenzy (Omega)   =  0.10E-29 period in steps = 0.13E+47 mass=  -0.482E-26a.u.
   SCALEE = 1.0000    scale energy and forces
   NPACO  =    256;   APACO  = 10.0  distance and # of slots for P.C.
   PSTRESS=    0.0 pullay stress

  Mass of Ions in am
   POMASS =   1.00 28.09
  Ionic Valenz
   ZVAL   =   1.00  4.00
  Atomic Wigner-Seitz radii
   RWIGS  =  -1.00 -1.00
  virtual crystal weights 
   VCA    =   1.00  1.00
   NELECT =     337.0000    total number of electrons
   NUPDOWN=      -1.0000    fix difference up-down

 DOS related values:
   EMIN   =  10.00;   EMAX   =-10.00  energy-range for DOS
   EFERMI =   0.00;   METHOD = LEGACY      
   ISMEAR =     0;   SIGMA  =   0.10  broadening in eV -4-tet -1-fermi 0-gaus
   EFERMI_NEDOS =   21; number of points for ismear=-14 and -15

 Electronic relaxation 2 (details)
   IALGO  =     38    algorithm
   LDIAG  =      F    sub-space diagonalisation (order eigenvalues)
   LSUBROT=      F    optimize rotation matrix (better conditioning)
   TURBO    =      0    0=normal 1=particle mesh
   IRESTART =      0    0=no restart 2=restart with 2 vectors
   NREBOOT  =      0    no. of reboots
   NMIN     =      0    reboot dimension
   EREF     =   0.00    reference energy to select bands
   IMIX   =      4    mixing-type and parameters
     AMIX     =   0.40;   BMIX     =  1.00
     AMIX_MAG =   1.60;   BMIX_MAG =  1.00
     AMIN     =   0.10
     WC   =   100.;   INIMIX=   1;  MIXPRE=   1;  MAXMIX= -45

 Intra band minimization:
   WEIMIN = 0.0000     energy-eigenvalue tresh-hold
   EBREAK =  0.12E-08  absolut break condition
   DEPER  =   0.30     relativ break condition  

   TIME   =   0.40     timestep for ELM

  volume/ion in A,a.u.               =      24.59       165.92
  Fermi-wavevector in a.u.,A,eV,Ry     =   0.891066  1.683870 10.803003  0.793998
  Thomas-Fermi vector in A             =   2.012838

 Write flags
   LWAVE        =      F    write WAVECAR
   LDOWNSAMPLE  =      F    k-point downsampling of WAVECAR
   LCHARG       =      F    write CHGCAR
   LVTOT        =      F    write LOCPOT, total local potential
   LVHAR        =      F    write LOCPOT, Hartree potential only
   WRT_POTENTIAL= false  ! write potential to hdf5 file
   LELF         =      F    write electronic localiz. function (ELF)
   LORBIT       =     11    0 simple, 1 ext, 2 COOP (PROOUT), +10 PAW based schemes


 Python interface
   PLUGINS active      =      F    recompile with -DPLUGINS to activate

 Dipole corrections
   LMONO      =      F    monopole corrections only (constant potential shift)
   LDIPOL     =      F    correct potential (dipole corrections)
   IDIPOL     =      0    1-x, 2-y, 3-z, 4-all directions 
   EPSILON    =  1.0000000 bulk dielectric constant
   LVACPOTAV  =      F  vacuum potentials using an averaging scheme for the charge density
   VACPOTFLAT =  0.1000000 required flatness to determine vacuum potential

Coulomb truncation method
  LTRUNCATE          =      F  Coulomb kernel truncation to be used
  IDIMENSIONALITY    =      3  Dimensionality of cutoff (0 molecules / 2 surfaces)
  ISURFACE           =     -1  Direction of surface normal
  LCOARSEN           =      F  Coarsen the charge grid before padding, preferred


 Exchange correlation treatment:
   METAGGA = SCAN    functional components
   XC_C    = 1    coefficients multiplying the functional components
   LIBXC   =     F    Libxc                    
   VOSKOWN =     0    Vosko Wilk Nusair interpolation
   LHFCALC =     F    Hartree Fock is set to
   LHFONE  =     F    Hartree Fock one center treatment
   AEXX    =    0.0000 exact exchange contribution

 Parameters of functionals:
   SCAN:
     P1 =  0.000000E+00
     P2 =  0.000000E+00
     P3 =  0.000000E+00

 Accuracy and mixing parameters for tau-dependent meta-GGA functionals:
   LMAXTAU = 6
   LMIXTAU = T

 Van der Waals corrections
   IVDW    =     0    specifies the selected vdW correction

 Linear response parameters
   LEPSILON=     F    determine dielectric tensor
   LRPA    =     F    only Hartree local field effects (RPA)
   LNABLA  =     F    use nabla operator in PAW spheres
   LVEL    =     F    velocity operator in full k-point grid
   CSHIFT  =0.1000    complex shift for real part using Kramers Kronig
   OMEGAMAX=  -1.0    maximum frequency
   DEG_THRESHOLD= 0.2000000E-02 threshold for treating states as degnerate
   RTIME   =   -0.100 relaxation time in fs
  (WPLASMAI=    0.000 imaginary part of plasma frequency in eV, 0.658/RTIME)
   DFIELD  = 0.0000000 0.0000000 0.0000000 field for delta impulse in time

  Optional k-point grid parameters
   LKPOINTS_OPT  =     F    use optional k-point grid
   KPOINTS_OPT_MODE=     1    mode for optional k-point grid

 Orbital magnetization related:
   ORBITALMAG=     F  switch on orbital magnetization
   LCHIMAG   =     F  perturbation theory with respect to B field
   DQ        =  0.001000  dq finite difference perturbation B field
   LLRAUG    =     F  two centre corrections for induced B field
   LBONE     =     F  B-component reconstruction in AE one-centre
   LVGVCALC  =     T  calculate vGv susceptibility
   LVGVAPPL  =     F  apply vGv susceptibility instead of pGv for G=0

 Random number generation:
   RANDOM_GENERATOR = DEFAULT
   PCG_SEED         = not used


--------------------------------------------------------------------------------------------------------


 Static calculation
 charge density and potential will be updated during run
 non-spin polarized calculation
 Variant of blocked Davidson
 perform Loewdin sub-space diagonalisation
    ordering is kept fixed
    before iterative eigenvector-optimisation
 modified Broyden-mixing scheme, WC =      100.0
 initial mixing is a Kerker type mixing with AMIX =  0.4000 and BMIX =      1.0000
 Hartree-type preconditioning will be used
 using additional bands           47
 reciprocal scheme for non local part
 use partial core corrections
 calculate Harris-corrections to forces   (improved forces if not selfconsistent)
 use gradient corrections 
 use of overlap-Matrix (Vanderbilt PP)
 Gauss-broadening in eV      SIGMA  =   0.10


--------------------------------------------------------------------------------------------------------


  energy-cutoff  :     1200.00
  volume of cell :     2089.90
      direct lattice vectors                 reciprocal lattice vectors
    14.521478217  0.000000000  0.000000000     0.068863513  0.000000000  0.000000000
     0.000000000 14.521478217  0.000000000     0.000000000  0.068863513  0.000000000
     0.000000000  0.000000000  9.910677288     0.000000000  0.000000000  0.100901278

  length of vectors
    14.521478217 14.521478217  9.910677288     0.068863513  0.068863513  0.100901278



 old parameters found on file WAVECAR:
  energy-cutoff  :     1200.00
  volume of cell :     2089.90
      direct lattice vectors                 reciprocal lattice vectors
    14.521478217  0.000000000  0.000000000     0.068863513  0.000000000  0.000000000
     0.000000000 14.521478217  0.000000000     0.000000000  0.068863513  0.000000000
     0.000000000  0.000000000  9.910677288     0.000000000  0.000000000  0.100901278

  length of vectors


 k-points in units of 2pi/SCALE and weight: read from INCAR                         
   0.00000000  0.00000000  0.00000000       0.083
   0.03443176  0.00000000  0.00000000       0.083
   0.00000000  0.03443176  0.00000000       0.083
   0.03443176  0.03443176  0.00000000       0.083
   0.00000000  0.00000000  0.03363376       0.167
   0.03443176  0.00000000  0.03363376       0.167
   0.00000000  0.03443176  0.03363376       0.167
   0.03443176  0.03443176  0.03363376       0.167

 k-points in reciprocal lattice and weights: read from INCAR                         
   0.00000000  0.00000000  0.00000000       0.083
   0.50000000  0.00000000  0.00000000       0.083
   0.00000000  0.50000000  0.00000000       0.083
   0.50000000  0.50000000  0.00000000       0.083
   0.00000000  0.00000000  0.33333333       0.167
   0.50000000  0.00000000  0.33333333       0.167
   0.00000000  0.50000000  0.33333333       0.167
   0.50000000  0.50000000  0.33333333       0.167

 position of ions in fractional coordinates (direct lattice) 
   0.51471482  0.85677917  0.58112073
   0.96941921  0.67805356  0.78737202
   0.51285619  0.08436400  0.00455664
   0.74044115  0.31321880  0.32489404
   0.31180503  0.69859279  0.46538696
   0.05719948  0.22931205  0.78262462
   0.00263888  0.35796907  0.17888485
   0.60524555  0.16279334  0.54874050
   0.49042528  0.94473164  0.65048632
   0.98615305  0.11095978  0.44501096
   0.14591352  0.51778820  0.31645163
   0.14839880  0.12035620  0.11705255
   0.17146533  0.52973051  0.66166013
   0.11704731  0.79773559  0.69146737
   0.52760607  0.33965826  0.61893348
   0.36677189  0.77263484  0.26409598
   0.67008536  0.28735298  0.66087512
   0.45349791  0.20884582  0.54537040
   0.37176036  0.15969793  0.93262950
   0.32717744  0.15417783  0.69826408
   0.96269814  0.36376324  0.80177265
   0.94683198  0.65758457  0.21230941
   0.86569010  0.28063328  0.16351657
   0.18731977  0.28787014  0.41890477
   0.91579520  0.14333665  0.79872846
   0.90950796  0.12759651  0.21879534
   0.35913424  0.03207883  0.27691851
   0.63106661  0.41873492  0.23372267
   0.02270079  0.45605550  0.98317700
   0.31100828  0.30838252  0.28241259
   0.18409903  0.37925340  0.97408277
   0.25272840  0.88913124  0.73996356
   0.08692366  0.25448580  0.01952460
   0.83081074  0.87597143  0.98234860
   0.65699992  0.16831551  0.32398694
   0.70879836  0.97851608  0.06250037
   0.14089681  0.87640527  0.32599992
   0.99228879  0.90681539  0.28738399
   0.86061486  0.16593214  0.56547598
   0.93984234  0.96200950  0.50044007
   0.14542528  0.75532255  0.47372242
   0.52782918  0.41576484  0.41061573
   0.89479871  0.80759685  0.18320140
   0.14038034  0.13910567  0.36281980
   0.94343012  0.98577430  0.89416391
   0.93943604  0.41333258  0.57416258
   0.20529866  0.26120412  0.65020178
   0.30225780  0.89977754  0.94892405
   0.22381606  0.00310975  0.40858661
   0.37565804  0.44499051  0.36855302
   0.76449517  0.04764474  0.27578034
   0.55208429  0.93385810  0.07231292
   0.01491832  0.56138155  0.59210585
   0.66015249  0.09588762  0.90332777
   0.39128937  0.52344946  0.15201786
   0.45299727  0.72705408  0.86057792
   0.32207465  0.00107588  0.60538950
   0.80252849  0.31909699  0.54257442
   0.01166383  0.02345670  0.09558156
   0.31478820  0.29982347  0.05213942
   0.46755571  0.91228316  0.28433980
   0.41125703  0.43850563  0.74931710
   0.29464700  0.05265649  0.06553488
   0.97756577  0.89043276  0.70606779
   0.58261906  0.32994988  0.05086464
   0.26640676  0.54427173  0.46339013
   0.85483722  0.78806715  0.76836222
   0.47157940  0.88983365  0.87128152
   0.53515282  0.19640838  0.17740160
   0.84989970  0.27372420  0.91391837
   0.05833683  0.38431349  0.39047584
   0.18720546  0.65447263  0.02024241
   0.21623212  0.66019036  0.78711573
   0.43477599  0.41268939  0.99061948
   0.02088988  0.61955607  0.00654113
   0.63822084  0.02924103  0.65541938
   0.05454025  0.63563157  0.39283289
   0.40937499  0.18685976  0.31555563
   0.68713528  0.25070726  0.88106693
   0.24651691  0.80179165  0.11779821
   0.22386908  0.50973667  0.10790484
   0.42681674  0.69165824  0.09525868
   0.77421181  0.01177614  0.50061563
   0.33508159  0.74781643  0.70064636
   0.24859453  0.40271176  0.75189210

 position of ions in cartesian coordinates  (Angst):
   7.47442000 12.44170000  5.75930000
  14.07740000  9.84634000  7.80339000
   7.44743000  1.22509000  0.04515940
  10.75230000  4.54840000  3.21992000
   4.52787000 10.14460000  4.61230000
   0.83062100  3.32995000  7.75634000
   0.03832040  5.19824000  1.77287000
   8.78906000  2.36400000  5.43839000
   7.12170000 13.71890000  6.44676000
  14.32040000  1.61130000  4.41036000
   2.11888000  7.51905000  3.13625000
   2.15497000  1.74775000  1.16007000
   2.48993000  7.69247000  6.55750000
   1.69970000 11.58430000  6.85291000
   7.66162000  4.93234000  6.13405000
   5.32607000 11.21980000  2.61737000
   9.73063000  4.17279000  6.54972000
   6.58546000  3.03275000  5.40499000
   5.39851000  2.31905000  9.24299000
   4.75110000  2.23889000  6.92027000
  13.97980000  5.28238000  7.94611000
  13.74940000  9.54910000  2.10413000
  12.57110000  4.07521000  1.62056000
   2.72016000  4.18030000  4.15163000
  13.29870000  2.08146000  7.91594000
  13.20740000  1.85289000  2.16841000
   5.21516000  0.46583200  2.74445000
   9.16402000  6.08065000  2.31635000
   0.32964900  6.62260000  9.74395000
   4.51630000  4.47817000  2.79890000
   2.67339000  5.50732000  9.65382000
   3.66999000 12.91150000  7.33354000
   1.26226000  3.69551000  0.19350200
  12.06460000 12.72040000  9.73574000
   9.54061000  2.44419000  3.21093000
  10.29280000 14.20950000  0.61942100
   2.04603000 12.72670000  3.23088000
  14.40950000 13.16830000  2.84817000
  12.49740000  2.40958000  5.60425000
  13.64790000 13.96980000  4.95970000
   2.11179000 10.96840000  4.69491000
   7.66486000  6.03752000  4.06948000
  12.99380000 11.72750000  1.81565000
   2.03853000  2.02002000  3.59579000
  13.70000000 14.31490000  8.86177000
  13.64200000  6.00220000  5.69034000
   2.98124000  3.79307000  6.44394000
   4.38923000 13.06610000  9.40448000
   3.25014000  0.04515820  4.04937000
   5.45511000  6.46192000  3.65261000
  11.10160000  0.69187200  2.73317000
   8.01708000 13.56100000  0.71667000
   0.21663600  8.15209000  5.86817000
   9.58639000  1.39243000  8.95259000
   5.68210000  7.60126000  1.50660000
   6.57819000 10.55790000  8.52891000
   4.67700000  0.01562330  5.99982000
  11.65390000  4.63376000  5.37728000
   0.16937600  0.34062600  0.94727800
   4.57119000  4.35388000  0.51673700
   6.78960000 13.24770000  2.81800000
   5.97206000  6.36775000  7.42624000
   4.27871000  0.76465000  0.64949500
  14.19570000 12.93040000  6.99761000
   8.46049000  4.79136000  0.50410300
   3.86862000  7.90363000  4.59251000
  12.41350000 11.44390000  7.61499000
   6.84803000 12.92170000  8.63499000
   7.77121000  2.85214000  1.75817000
  12.34180000  3.97488000  9.05755000
   0.84713700  5.58080000  3.86988000
   2.71850000  9.50391000  0.20061600
   3.14001000  9.58694000  7.80085000
   6.31359000  5.99286000  9.81771000
   0.30335200  8.99687000  0.06482700
   9.26791000  0.42462300  6.49565000
   0.79200500  9.23031000  3.89324000
   5.94473000  2.71348000  3.12737000
   9.97822000  3.64064000  8.73197000
   3.57979000 11.64320000  1.16746000
   3.25091000  7.40213000  1.06941000
   6.19801000 10.04390000  0.94407800
  11.24270000  0.17100700  4.96144000
   4.86588000 10.85940000  6.94388000
   3.60996000  5.84797000  7.45176000



--------------------------------------------------------------------------------------------------------


 k-point     1 :   0.0000 0.0000 0.0000  plane waves:  197375
 k-point     2 :   0.5000 0.0000 0.0000  plane waves:  197222
 k-point     3 :   0.0000 0.5000 0.0000  plane waves:  197222
 k-point     4 :   0.5000 0.5000 0.0000  plane waves:  197236
 k-point     5 :   0.0000 0.0000 0.3333  plane waves:  197208
 k-point     6 :   0.5000 0.0000 0.3333  plane waves:  197334
 k-point     7 :   0.0000 0.5000 0.3333  plane waves:  197334
 k-point     8 :   0.5000 0.5000 0.3333  plane waves:  197348

 maximum and minimum number of plane-waves per node :     12407    12276

 maximum number of plane-waves:    197375
 maximum index in each direction: 
   IXMAX=   41   IYMAX=   41   IZMAX=   27
   IXMIN=  -41   IYMIN=  -41   IZMIN=  -28


 parallel 3D FFT for wavefunctions:
    minimum data exchange during FFTs selected (reduces bandwidth)
 parallel 3D FFT for charge:
    minimum data exchange during FFTs selected (reduces bandwidth)


 total amount of memory used by VASP MPI-rank0   170037. kBytes
=======================================================================

   base                                    :      30000. kBytes
   nonl-proj                               :      29447. kBytes
   fftplans                                :      38240. kBytes
   grid                                    :      29478. kBytes
   one-center                              :         18. kBytes
   wavefun                                 :      42854. kBytes

     INWAV:  cpu time      7.6580: real time      7.6608
 Broyden mixing: mesh for mixing (old mesh)
   NGX = 83   NGY = 83   NGZ = 55
  (NGX  =336   NGY  =336   NGZ  =224)
  gives a total of 378895 points

 initial charge density was supplied:
 number of electron     336.9999999 magnetization 
 keeping initial charge density in first step


--------------------------------------------------------------------------------------------------------


 Maximum index for augmentation-charges        11288 (set IRDMAX)


--------------------------------------------------------------------------------------------------------


 First call to EWALD:  gamma=   0.139
 Maximum number of real-space cells   2x   2x   3
 Maximum number of reciprocal cells   3x   3x   2

    FEWALD:  cpu time      0.0140: real time      0.0141


--------------------------------------- Ionic step        1  -------------------------------------------




--------------------------------------- Iteration      1(   1)  ---------------------------------------


    POTLOK:  cpu time      0.6765: real time      0.6774
    SETDIJ:  cpu time      1.1994: real time      1.2002
    EDDIAG:  cpu time     17.1479: real time     17.1624
     EDDAV:  cpu time     78.8568: real time     78.9293
       DOS:  cpu time      0.0077: real time      0.0078
    CHARGE:  cpu time      7.5060: real time      7.5117
    MIXING:  cpu time      0.0219: real time      0.0224
    --------------------------------------------
      LOOP:  cpu time    105.4164: real time    105.5112

 eigenvalue-minimisations  :  3456
 total energy-change (2. order) :-0.8660154E+03  (-0.9414170E+00)
 number of electron     336.9999999 magnetization 
 augmentation part      -18.8582816 magnetization 

 Broyden mixing:
  rms(total) = 0.11402E+01    rms(broyden)= 0.50505E+02
  rms(prec ) = 0.12509E+01
  weight for this iteration     100.00
  WARNING: grid for Broyden might be to small

 Free energy of the ion-electron system (eV)
  ---------------------------------------------------
  alpha Z        PSCENC =       114.38597492
  Ewald energy   TEWEN  =     -5662.77307764
  -Hartree energ DENC   =     -3897.76141401
  -exchange      EXHF   =         0.00000000
  -V(xc)+E(xc)   XCENC  =      -411.66954899
  PAW double counting   =     30200.04713452   -29362.06135163
  entropy T*S    EENTRO =        -0.05854340
  eigenvalues    EBANDS =      -516.22714873
  atomic energy  EATOM  =      8670.10256730
  Solvation  Ediel_sol  =         0.00000000
  ---------------------------------------------------
  free energy    TOTEN  =      -866.01540767 eV

  energy without entropy =     -865.95686426  energy(sigma->0) =     -865.98613596


--------------------------------------------------------------------------------------------------------




--------------------------------------- Iteration      1(   2)  ---------------------------------------


    POTLOK:  cpu time      0.6673: real time      0.6800
    SETDIJ:  cpu time      1.1688: real time      1.1694
    EDDIAG:  cpu time     17.2454: real time     17.2593
     EDDAV:  cpu time     79.2823: real time     79.3520
       DOS:  cpu time      0.0033: real time      0.0033
    CHARGE:  cpu time      7.4697: real time      7.4758
    MIXING:  cpu time      0.0157: real time      0.0158
    --------------------------------------------
      LOOP:  cpu time    105.8524: real time    105.9557

 eigenvalue-minimisations  :  3456
 total energy-change (2. order) : 0.5993700E+02  (-0.8931977E+00)
 number of electron     336.9999999 magnetization 
 augmentation part      -18.7767256 magnetization 

 Broyden mixing:
  rms(total) = 0.76115E+00    rms(broyden)= 0.29132E+02
  rms(prec ) = 0.81837E+00
  weight for this iteration     100.00
  WARNING: grid for Broyden might be to small

 eigenvalues of (default mixing * dielectric matrix)
  average eigenvalue GAMMA=   0.6342
  0.6342

 Free energy of the ion-electron system (eV)
  ---------------------------------------------------
  alpha Z        PSCENC =       114.38597492
  Ewald energy   TEWEN  =     -5662.77307764
  -Hartree energ DENC   =     -3889.93433411
  -exchange      EXHF   =         0.00000000
  -V(xc)+E(xc)   XCENC  =      -402.41592166
  PAW double counting   =     36287.01620363   -35448.82461278
  entropy T*S    EENTRO =        -0.05404316
  eigenvalues    EBANDS =      -473.58116658
  atomic energy  EATOM  =      8670.10256730
  Solvation  Ediel_sol  =         0.00000000
  ---------------------------------------------------
  free energy    TOTEN  =      -806.07841009 eV

  energy without entropy =     -806.02436693  energy(sigma->0) =     -806.05138851


--------------------------------------------------------------------------------------------------------




--------------------------------------- Iteration      1(   3)  ---------------------------------------


    POTLOK:  cpu time      0.6624: real time      0.6802
    SETDIJ:  cpu time      1.2044: real time      1.2050
    EDDIAG:  cpu time     17.3150: real time     17.3291
     EDDAV:  cpu time     79.1366: real time     79.2109
       DOS:  cpu time      0.0042: real time      0.0042
    CHARGE:  cpu time      7.5471: real time      7.5534
    MIXING:  cpu time      0.0135: real time      0.0135
    --------------------------------------------
      LOOP:  cpu time    105.8832: real time    105.9962

 eigenvalue-minimisations  :  3456
 total energy-change (2. order) :-0.3035449E+01  (-0.7036158E+00)
 number of electron     336.9999999 magnetization 
 augmentation part      -18.7166416 magnetization 

 Broyden mixing:
  rms(total) = 0.46311E+00    rms(broyden)= 0.19423E+02
  rms(prec ) = 0.50558E+00
  weight for this iteration     100.00
  WARNING: grid for Broyden might be to small

 eigenvalues of (default mixing * dielectric matrix)
  average eigenvalue GAMMA=   0.6858
  0.7511  0.6204

 Free energy of the ion-electron system (eV)
  ---------------------------------------------------
  alpha Z        PSCENC =       114.38597492
  Ewald energy   TEWEN  =     -5662.77307764
  -Hartree energ DENC   =     -3892.33657414
  -exchange      EXHF   =         0.00000000
  -V(xc)+E(xc)   XCENC  =      -407.12965122
  PAW double counting   =     40998.59611701   -40160.48702663
  entropy T*S    EENTRO =        -0.05468343
  eigenvalues    EBANDS =      -469.41750551
  atomic energy  EATOM  =      8670.10256730
  Solvation  Ediel_sol  =         0.00000000
  ---------------------------------------------------
  free energy    TOTEN  =      -809.11385933 eV

  energy without entropy =     -809.05917591  energy(sigma->0) =     -809.08651762


--------------------------------------------------------------------------------------------------------




--------------------------------------- Iteration      1(   4)  ---------------------------------------


    POTLOK:  cpu time      0.6636: real time      0.6793
    SETDIJ:  cpu time      1.2402: real time      1.2409
    EDDIAG:  cpu time     17.3386: real time     17.3545
     EDDAV:  cpu time     81.9053: real time     81.9774
       DOS:  cpu time      0.0043: real time      0.0043
    CHARGE:  cpu time      7.4258: real time      7.4318
    MIXING:  cpu time      0.0135: real time      0.0135
    --------------------------------------------
      LOOP:  cpu time    108.5912: real time    108.7016

 eigenvalue-minimisations  :  3632
 total energy-change (2. order) :-0.3877616E+00  (-0.7638398E-01)
 number of electron     336.9999999 magnetization 
 augmentation part      -18.7028439 magnetization 

 Broyden mixing:
  rms(total) = 0.37664E-01    rms(broyden)= 0.21024E+01
  rms(prec ) = 0.51694E-01
  weight for this iteration     100.00
  WARNING: grid for Broyden might be to small

 eigenvalues of (default mixing * dielectric matrix)
  average eigenvalue GAMMA=   0.9912
  1.6563  0.6962  0.6212

 Free energy of the ion-electron system (eV)
  ---------------------------------------------------
  alpha Z        PSCENC =       114.38597492
  Ewald energy   TEWEN  =     -5662.77307764
  -Hartree energ DENC   =     -3897.45709324
  -exchange      EXHF   =         0.00000000
  -V(xc)+E(xc)   XCENC  =      -407.68970008
  PAW double counting   =     48707.40901154   -47869.37074006
  entropy T*S    EENTRO =        -0.05585562
  eigenvalues    EBANDS =      -464.05270808
  atomic energy  EATOM  =      8670.10256730
  Solvation  Ediel_sol  =         0.00000000
  ---------------------------------------------------
  free energy    TOTEN  =      -809.50162095 eV

  energy without entropy =     -809.44576533  energy(sigma->0) =     -809.47369314


--------------------------------------------------------------------------------------------------------




--------------------------------------- Iteration      1(   5)  ---------------------------------------


    POTLOK:  cpu time      0.6841: real time      0.7061
    SETDIJ:  cpu time      1.1705: real time      1.1711
    EDDIAG:  cpu time     17.3606: real time     17.3758
     EDDAV:  cpu time     90.3337: real time     90.4150
       DOS:  cpu time      0.0050: real time      0.0050
    CHARGE:  cpu time      7.4933: real time      7.4989
    MIXING:  cpu time      0.0138: real time      0.0138
    --------------------------------------------
      LOOP:  cpu time    117.0609: real time    117.1857

 eigenvalue-minimisations  :  4296
 total energy-change (2. order) :-0.3461165E-01  (-0.5299434E-02)
 number of electron     336.9999999 magnetization 
 augmentation part      -18.7044865 magnetization 

 Broyden mixing:
  rms(total) = 0.25331E-01    rms(broyden)= 0.60040E+00
  rms(prec ) = 0.29918E-01
  weight for this iteration     100.00
  WARNING: grid for Broyden might be to small

 eigenvalues of (default mixing * dielectric matrix)
  average eigenvalue GAMMA=   1.1834
  2.5667  0.8943  0.6362  0.6362

 Free energy of the ion-electron system (eV)
  ---------------------------------------------------
  alpha Z        PSCENC =       114.38597492
  Ewald energy   TEWEN  =     -5662.77307764
  -Hartree energ DENC   =     -3897.79388213
  -exchange      EXHF   =         0.00000000
  -V(xc)+E(xc)   XCENC  =      -408.76987933
  PAW double counting   =     48321.15440026   -47483.08520196
  entropy T*S    EENTRO =        -0.05472349
  eigenvalues    EBANDS =      -462.70241052
  atomic energy  EATOM  =      8670.10256730
  Solvation  Ediel_sol  =         0.00000000
  ---------------------------------------------------
  free energy    TOTEN  =      -809.53623261 eV

  energy without entropy =     -809.48150911  energy(sigma->0) =     -809.50887086


--------------------------------------------------------------------------------------------------------




--------------------------------------- Iteration      1(   6)  ---------------------------------------


    POTLOK:  cpu time      0.6621: real time      0.6786
    SETDIJ:  cpu time      1.1743: real time      1.1749
    EDDIAG:  cpu time     17.3215: real time     17.3354
     EDDAV:  cpu time     85.6092: real time     85.6842
       DOS:  cpu time      0.0043: real time      0.0043
    CHARGE:  cpu time      7.5202: real time      7.5273
    MIXING:  cpu time      0.0137: real time      0.0137
    --------------------------------------------
      LOOP:  cpu time    112.3052: real time    112.4183

 eigenvalue-minimisations  :  3944
 total energy-change (2. order) :-0.5222944E-02  (-0.7958679E-03)
 number of electron     336.9999999 magnetization 
 augmentation part      -18.7042139 magnetization 

 Broyden mixing:
  rms(total) = 0.16566E-01    rms(broyden)= 0.21796E+00
  rms(prec ) = 0.18945E-01
  weight for this iteration     100.00
  WARNING: grid for Broyden might be to small

 eigenvalues of (default mixing * dielectric matrix)
  average eigenvalue GAMMA=   1.1376
  2.5872  1.0569  0.7734  0.6352  0.6352

 Free energy of the ion-electron system (eV)
  ---------------------------------------------------
  alpha Z        PSCENC =       114.38597492
  Ewald energy   TEWEN  =     -5662.77307764
  -Hartree energ DENC   =     -3898.03385354
  -exchange      EXHF   =         0.00000000
  -V(xc)+E(xc)   XCENC  =      -408.99348984
  PAW double counting   =     48285.63531650   -47447.55179922
  entropy T*S    EENTRO =        -0.05485326
  eigenvalues    EBANDS =      -462.25824075
  atomic energy  EATOM  =      8670.10256730
  Solvation  Ediel_sol  =         0.00000000
  ---------------------------------------------------
  free energy    TOTEN  =      -809.54145555 eV

  energy without entropy =     -809.48660229  energy(sigma->0) =     -809.51402892


--------------------------------------------------------------------------------------------------------




--------------------------------------- Iteration      1(   7)  ---------------------------------------


    POTLOK:  cpu time      0.6681: real time      0.6806
    SETDIJ:  cpu time      1.1733: real time      1.1741
    EDDIAG:  cpu time     17.3630: real time     17.3780
     EDDAV:  cpu time     84.0504: real time     84.1257
       DOS:  cpu time      0.0062: real time      0.0062
    CHARGE:  cpu time      7.6681: real time      7.6751
    MIXING:  cpu time      0.0139: real time      0.0139
    --------------------------------------------
      LOOP:  cpu time    110.9430: real time    111.0536

 eigenvalue-minimisations  :  3816
 total energy-change (2. order) :-0.1578937E-02  (-0.4100760E-03)
 number of electron     336.9999999 magnetization 
 augmentation part      -18.7026709 magnetization 

 Broyden mixing:
  rms(total) = 0.49308E-02    rms(broyden)= 0.33861E+00
  rms(prec ) = 0.69490E-02
  weight for this iteration     100.00
  WARNING: grid for Broyden might be to small

 eigenvalues of (default mixing * dielectric matrix)
  average eigenvalue GAMMA=   1.1427
  2.5802  1.4124  0.9221  0.6930  0.6141  0.6344

 Free energy of the ion-electron system (eV)
  ---------------------------------------------------
  alpha Z        PSCENC =       114.38597492
  Ewald energy   TEWEN  =     -5662.77307764
  -Hartree energ DENC   =     -3898.37124096
  -exchange      EXHF   =         0.00000000
  -V(xc)+E(xc)   XCENC  =      -408.90254727
  PAW double counting   =     48284.26813272   -47446.16880837
  entropy T*S    EENTRO =        -0.05487933
  eigenvalues    EBANDS =      -462.02915586
  atomic energy  EATOM  =      8670.10256730
  Solvation  Ediel_sol  =         0.00000000
  ---------------------------------------------------
  free energy    TOTEN  =      -809.54303449 eV

  energy without entropy =     -809.48815516  energy(sigma->0) =     -809.51559482


--------------------------------------------------------------------------------------------------------




--------------------------------------- Iteration      1(   8)  ---------------------------------------


    POTLOK:  cpu time      0.6589: real time      0.6772
    SETDIJ:  cpu time      1.1717: real time      1.1725
    EDDIAG:  cpu time     17.3248: real time     17.3400
     EDDAV:  cpu time     88.5505: real time     88.6315
       DOS:  cpu time      0.0044: real time      0.0044
    CHARGE:  cpu time      7.5146: real time      7.5218
    MIXING:  cpu time      0.0145: real time      0.0145
    --------------------------------------------
      LOOP:  cpu time    115.2394: real time    115.3620

 eigenvalue-minimisations  :  4144
 total energy-change (2. order) :-0.1374896E-03  (-0.8038020E-04)
 number of electron     336.9999999 magnetization 
 augmentation part      -18.7026946 magnetization 

 Broyden mixing:
  rms(total) = 0.17608E-02    rms(broyden)= 0.56682E-01
  rms(prec ) = 0.24597E-02
  weight for this iteration     100.00
  WARNING: grid for Broyden might be to small

 eigenvalues of (default mixing * dielectric matrix)
  average eigenvalue GAMMA=   1.2227
  2.5418  2.2579  1.0215  0.8321  0.6667  0.6329  0.6061

 Free energy of the ion-electron system (eV)
  ---------------------------------------------------
  alpha Z        PSCENC =       114.38597492
  Ewald energy   TEWEN  =     -5662.77307764
  -Hartree energ DENC   =     -3898.41910080
  -exchange      EXHF   =         0.00000000
  -V(xc)+E(xc)   XCENC  =      -408.92346389
  PAW double counting   =     48301.72034049   -47463.61596266
  entropy T*S    EENTRO =        -0.05492933
  eigenvalues    EBANDS =      -461.96552037
  atomic energy  EATOM  =      8670.10256730
  Solvation  Ediel_sol  =         0.00000000
  ---------------------------------------------------
  free energy    TOTEN  =      -809.54317198 eV

  energy without entropy =     -809.48824265  energy(sigma->0) =     -809.51570731


--------------------------------------------------------------------------------------------------------




--------------------------------------- Iteration      1(   9)  ---------------------------------------


    POTLOK:  cpu time      0.6605: real time      0.6793
    SETDIJ:  cpu time      1.1740: real time      1.1746
    EDDIAG:  cpu time     17.3171: real time     17.3322
     EDDAV:  cpu time     84.9587: real time     85.0361
       DOS:  cpu time      0.0047: real time      0.0047
    CHARGE:  cpu time      7.5609: real time      7.5674
    MIXING:  cpu time      0.0142: real time      0.0142
    --------------------------------------------
      LOOP:  cpu time    111.6903: real time    111.8086

 eigenvalue-minimisations  :  3872
 total energy-change (2. order) :-0.6538022E-04  (-0.1833857E-04)
 number of electron     336.9999999 magnetization 
 augmentation part      -18.7028095 magnetization 

 Broyden mixing:
  rms(total) = 0.99698E-03    rms(broyden)= 0.37700E-01
  rms(prec ) = 0.14838E-02
  weight for this iteration     100.00
  WARNING: grid for Broyden might be to small

 eigenvalues of (default mixing * dielectric matrix)
  average eigenvalue GAMMA=   1.2648
  2.8161  2.6119  1.0337  1.0337  0.7615  0.6486  0.6270  0.5857

 Free energy of the ion-electron system (eV)
  ---------------------------------------------------
  alpha Z        PSCENC =       114.38597492
  Ewald energy   TEWEN  =     -5662.77307764
  -Hartree energ DENC   =     -3898.34528625
  -exchange      EXHF   =         0.00000000
  -V(xc)+E(xc)   XCENC  =      -408.94954347
  PAW double counting   =     48303.05332265   -47464.94779195
  entropy T*S    EENTRO =        -0.05493797
  eigenvalues    EBANDS =      -462.01446495
  atomic energy  EATOM  =      8670.10256730
  Solvation  Ediel_sol  =         0.00000000
  ---------------------------------------------------
  free energy    TOTEN  =      -809.54323736 eV

  energy without entropy =     -809.48829938  energy(sigma->0) =     -809.51576837


--------------------------------------------------------------------------------------------------------




--------------------------------------- Iteration      1(  10)  ---------------------------------------


    POTLOK:  cpu time      0.6625: real time      0.6810
    SETDIJ:  cpu time      1.1757: real time      1.1760
    EDDIAG:  cpu time     17.3337: real time     17.3490
     EDDAV:  cpu time     83.1369: real time     83.2120
       DOS:  cpu time      0.0048: real time      0.0048
    CHARGE:  cpu time      7.5898: real time      7.5960
    MIXING:  cpu time      0.0144: real time      0.0144
    --------------------------------------------
      LOOP:  cpu time    109.9175: real time    110.0330

 eigenvalue-minimisations  :  3728
 total energy-change (2. order) :-0.4179533E-04  (-0.7567861E-05)
 number of electron     336.9999999 magnetization 
 augmentation part      -18.7028333 magnetization 

 Broyden mixing:
  rms(total) = 0.53141E-03    rms(broyden)= 0.25781E-01
  rms(prec ) = 0.94630E-03
  weight for this iteration     100.00
  WARNING: grid for Broyden might be to small

 eigenvalues of (default mixing * dielectric matrix)
  average eigenvalue GAMMA=   1.3045
  3.2983  2.5779  1.3382  1.0724  0.9056  0.7102  0.6365  0.6213  0.5806

 Free energy of the ion-electron system (eV)
  ---------------------------------------------------
  alpha Z        PSCENC =       114.38597492
  Ewald energy   TEWEN  =     -5662.77307764
  -Hartree energ DENC   =     -3898.28691767
  -exchange      EXHF   =         0.00000000
  -V(xc)+E(xc)   XCENC  =      -408.96091848
  PAW double counting   =     48300.08743429   -47461.98107630
  entropy T*S    EENTRO =        -0.05494215
  eigenvalues    EBANDS =      -462.06232342
  atomic energy  EATOM  =      8670.10256730
  Solvation  Ediel_sol  =         0.00000000
  ---------------------------------------------------
  free energy    TOTEN  =      -809.54327915 eV

  energy without entropy =     -809.48833700  energy(sigma->0) =     -809.51580808


--------------------------------------------------------------------------------------------------------




--------------------------------------- Iteration      1(  11)  ---------------------------------------


    POTLOK:  cpu time      0.6649: real time      0.6821
    SETDIJ:  cpu time      1.1738: real time      1.1742
    EDDIAG:  cpu time     17.3340: real time     17.3503
     EDDAV:  cpu time     82.7340: real time     82.8091
       DOS:  cpu time      0.0050: real time      0.0050
    CHARGE:  cpu time      7.6119: real time      7.6185
    MIXING:  cpu time      0.0147: real time      0.0153
    --------------------------------------------
      LOOP:  cpu time    109.5383: real time    109.6546

 eigenvalue-minimisations  :  3696
 total energy-change (2. order) :-0.2923048E-04  (-0.4181889E-05)
 number of electron     336.9999999 magnetization 
 augmentation part      -18.7028747 magnetization 

 Broyden mixing:
  rms(total) = 0.34526E-03    rms(broyden)= 0.15239E-01
  rms(prec ) = 0.61255E-03
  weight for this iteration     100.00
  WARNING: grid for Broyden might be to small

 eigenvalues of (default mixing * dielectric matrix)
  average eigenvalue GAMMA=   1.3013
  3.4137  2.6139  1.6749  1.0358  0.9583  0.8118  0.6683  0.6253  0.6253  0.5860

 Free energy of the ion-electron system (eV)
  ---------------------------------------------------
  alpha Z        PSCENC =       114.38597492
  Ewald energy   TEWEN  =     -5662.77307764
  -Hartree energ DENC   =     -3898.21764339
  -exchange      EXHF   =         0.00000000
  -V(xc)+E(xc)   XCENC  =      -408.96667605
  PAW double counting   =     48298.95478102   -47460.84822023
  entropy T*S    EENTRO =        -0.05494613
  eigenvalues    EBANDS =      -462.12606818
  atomic energy  EATOM  =      8670.10256730
  Solvation  Ediel_sol  =         0.00000000
  ---------------------------------------------------
  free energy    TOTEN  =      -809.54330838 eV

  energy without entropy =     -809.48836226  energy(sigma->0) =     -809.51583532


--------------------------------------------------------------------------------------------------------




--------------------------------------- Iteration      1(  12)  ---------------------------------------


    POTLOK:  cpu time      0.6617: real time      0.6792
    SETDIJ:  cpu time      1.1732: real time      1.1741
    EDDIAG:  cpu time     17.3168: real time     17.3317
     EDDAV:  cpu time     82.7663: real time     82.8404
       DOS:  cpu time      0.0051: real time      0.0051
    CHARGE:  cpu time      7.7396: real time      7.7453
    MIXING:  cpu time      0.0150: real time      0.0150
    --------------------------------------------
      LOOP:  cpu time    109.6778: real time    109.7909

 eigenvalue-minimisations  :  3720
 total energy-change (2. order) :-0.1851632E-04  (-0.1999197E-05)
 number of electron     336.9999999 magnetization 
 augmentation part      -18.7029464 magnetization 

 Broyden mixing:
  rms(total) = 0.17650E-03    rms(broyden)= 0.63932E-02
  rms(prec ) = 0.34560E-03
  weight for this iteration     100.00
  WARNING: grid for Broyden might be to small

 eigenvalues of (default mixing * dielectric matrix)
  average eigenvalue GAMMA=   1.3118
  3.5013  2.6219  1.9242  1.1122  1.1122  0.8911  0.7876  0.6555  0.6277  0.6277
  0.5683

 Free energy of the ion-electron system (eV)
  ---------------------------------------------------
  alpha Z        PSCENC =       114.38597492
  Ewald energy   TEWEN  =     -5662.77307764
  -Hartree energ DENC   =     -3898.15523592
  -exchange      EXHF   =         0.00000000
  -V(xc)+E(xc)   XCENC  =      -408.97637376
  PAW double counting   =     48299.41900793   -47461.31283504
  entropy T*S    EENTRO =        -0.05494602
  eigenvalues    EBANDS =      -462.17840867
  atomic energy  EATOM  =      8670.10256730
  Solvation  Ediel_sol  =         0.00000000
  ---------------------------------------------------
  free energy    TOTEN  =      -809.54332690 eV

  energy without entropy =     -809.48838088  energy(sigma->0) =     -809.51585389


--------------------------------------------------------------------------------------------------------




--------------------------------------- Iteration      1(  13)  ---------------------------------------


    POTLOK:  cpu time      0.6603: real time      0.6801
    SETDIJ:  cpu time      1.1733: real time      1.1739
    EDDIAG:  cpu time     17.3364: real time     17.3531
     EDDAV:  cpu time     81.1104: real time     81.1857
       DOS:  cpu time      0.0045: real time      0.0045
    CHARGE:  cpu time      7.6962: real time      7.7032
    MIXING:  cpu time      0.0153: real time      0.0153
    --------------------------------------------
      LOOP:  cpu time    107.9965: real time    108.1157

 eigenvalue-minimisations  :  3576
 total energy-change (2. order) :-0.9685638E-05  (-0.9193448E-06)
 number of electron     336.9999999 magnetization 
 augmentation part      -18.7029682 magnetization 

 Broyden mixing:
  rms(total) = 0.11773E-03    rms(broyden)= 0.58691E-02
  rms(prec ) = 0.21089E-03
  weight for this iteration     100.00
  WARNING: grid for Broyden might be to small

 eigenvalues of (default mixing * dielectric matrix)
  average eigenvalue GAMMA=   1.3706
  3.7952  2.5626  2.5626  1.4709  1.0614  0.9105  0.9105  0.7132  0.6502  0.6252
  0.6178  0.5665

 Free energy of the ion-electron system (eV)
  ---------------------------------------------------
  alpha Z        PSCENC =       114.38597492
  Ewald energy   TEWEN  =     -5662.77307764
  -Hartree energ DENC   =     -3898.11628481
  -exchange      EXHF   =         0.00000000
  -V(xc)+E(xc)   XCENC  =      -408.97907772
  PAW double counting   =     48299.33526541   -47461.22941407
  entropy T*S    EENTRO =        -0.05494760
  eigenvalues    EBANDS =      -462.21434238
  atomic energy  EATOM  =      8670.10256730
  Solvation  Ediel_sol  =         0.00000000
  ---------------------------------------------------
  free energy    TOTEN  =      -809.54333658 eV

  energy without entropy =     -809.48838899  energy(sigma->0) =     -809.51586279


--------------------------------------------------------------------------------------------------------




--------------------------------------- Iteration      1(  14)  ---------------------------------------


    POTLOK:  cpu time      0.6789: real time      0.6799
    SETDIJ:  cpu time      1.1730: real time      1.1736
    EDDIAG:  cpu time     17.3220: real time     17.3385
     EDDAV:  cpu time     78.0151: real time     78.0840
       DOS:  cpu time      0.0033: real time      0.0033
    CHARGE:  cpu time      7.8066: real time      7.8134
    MIXING:  cpu time      0.0169: real time      0.0169
    --------------------------------------------
      LOOP:  cpu time    105.0158: real time    105.1097

 eigenvalue-minimisations  :  3344
 total energy-change (2. order) :-0.3926500E-05  (-0.5309509E-06)
 number of electron     336.9999999 magnetization 
 augmentation part      -18.7029698 magnetization 

 Broyden mixing:
  rms(total) = 0.65922E-04    rms(broyden)= 0.36161E-02
  rms(prec ) = 0.10544E-03
  weight for this iteration     100.00
  WARNING: grid for Broyden might be to small

 eigenvalues of (default mixing * dielectric matrix)
  average eigenvalue GAMMA=   1.3508
  3.8896  2.6374  2.6374  1.4016  1.0653  1.0653  0.9161  0.8109  0.6943  0.6331
  0.6331  0.6019  0.5742

 Free energy of the ion-electron system (eV)
  ---------------------------------------------------
  alpha Z        PSCENC =       114.38597492
  Ewald energy   TEWEN  =     -5662.77307764
  -Hartree energ DENC   =     -3898.09157460
  -exchange      EXHF   =         0.00000000
  -V(xc)+E(xc)   XCENC  =      -408.97908364
  PAW double counting   =     48299.42624056   -47461.32055823
  entropy T*S    EENTRO =        -0.05494922
  eigenvalues    EBANDS =      -462.23887994
  atomic energy  EATOM  =      8670.10256730
  Solvation  Ediel_sol  =         0.00000000
  ---------------------------------------------------
  free energy    TOTEN  =      -809.54334051 eV

  energy without entropy =     -809.48839129  energy(sigma->0) =     -809.51586590


--------------------------------------------------------------------------------------------------------




--------------------------------------- Iteration      1(  15)  ---------------------------------------


    POTLOK:  cpu time      0.6612: real time      0.6798
    SETDIJ:  cpu time      1.1735: real time      1.1746
    EDDIAG:  cpu time     17.2957: real time     17.3128
     EDDAV:  cpu time     70.2754: real time     70.3397
       DOS:  cpu time      0.0030: real time      0.0030
    --------------------------------------------
      LOOP:  cpu time     89.4093: real time     89.5104

 eigenvalue-minimisations  :  2752
 total energy-change (2. order) :-0.7784838E-06  (-0.1146463E-06)
 number of electron     336.9999999 magnetization 
 augmentation part      -18.7029698 magnetization 

 Free energy of the ion-electron system (eV)
  ---------------------------------------------------
  alpha Z        PSCENC =       114.38597492
  Ewald energy   TEWEN  =     -5662.77307764
  -Hartree energ DENC   =     -3898.08225696
  -exchange      EXHF   =         0.00000000
  -V(xc)+E(xc)   XCENC  =      -408.97861681
  PAW double counting   =     48299.55031023   -47461.44465309
  entropy T*S    EENTRO =        -0.05495003
  eigenvalues    EBANDS =      -462.24863920
  atomic energy  EATOM  =      8670.10256730
  Solvation  Ediel_sol  =         0.00000000
  ---------------------------------------------------
  free energy    TOTEN  =      -809.54334129 eV

  energy without entropy =     -809.48839126  energy(sigma->0) =     -809.51586627


--------------------------------------------------------------------------------------------------------




 average (electrostatic) potential at core
  the test charge radii are     0.5201  0.9892
  (the norm of the test charge is              1.0000)
       1 -34.6263       2 -88.9650       3 -88.1797       4 -88.2180       5 -88.5448
       6 -88.6393       7 -88.5827       8 -88.1318       9 -88.5967      10 -88.2016
      11 -88.2566      12 -88.2166      13 -88.4478      14 -88.4357      15 -88.4929
      16 -88.5049      17 -88.3132      18 -88.3286      19 -88.5180      20 -88.6825
      21 -88.5868      22 -88.4796      23 -88.2678      24 -88.4500      25 -88.6121
      26 -88.2485      27 -88.1197      28 -88.1340      29 -88.9641      30 -88.3484
      31 -88.4165      32 -88.1379      33 -88.6500      34 -88.5157      35 -88.0134
      36 -88.6340      37 -88.4824      38 -88.4384      39 -88.5622      40 -88.3600
      41 -88.1876      42 -88.4734      43 -88.5226      44 -88.3611      45 -88.5242
      46 -89.1082      47 -88.7578      48 -88.3404      49 -88.3957      50 -88.3573
      51 -88.3048      52 -88.2227      53 -88.9112      54 -88.5018      55 -88.3249
[...]
   -.832E+01 0.871E+02 -.436E+01   0.742E+01 -.871E+02 0.434E+01   0.119E+01 -.153E+00 0.200E+00   -.808E-04 0.839E-04 -.490E-04
   0.757E+01 0.250E+02 0.190E+02   -.105E+02 -.260E+02 -.165E+02   0.433E+01 0.779E-01 -.326E+01   0.111E-04 0.449E-04 0.652E-04
   0.537E+02 0.513E+02 0.286E+01   -.528E+02 -.530E+02 -.273E+01   -.152E+01 0.256E+01 -.639E+00   0.362E-04 0.681E-04 0.437E-04
   0.232E+02 -.182E+01 -.119E+02   -.214E+02 0.118E+01 0.116E+02   -.183E+01 -.429E-01 0.920E+00   -.382E-04 -.534E-04 -.142E-04
   0.465E+02 0.723E+02 -.185E+02   -.459E+02 -.708E+02 0.183E+02   -.110E+01 -.127E+01 0.252E-01   0.578E-04 0.643E-04 -.447E-04
   0.234E+02 0.302E+01 0.595E+01   -.240E+02 -.162E+01 -.608E+01   0.187E+01 -.164E+01 -.312E+00   -.541E-05 -.177E-04 0.293E-04
   -.730E+02 -.115E+03 -.196E+02   0.720E+02 0.112E+03 0.188E+02   0.124E+01 0.201E+01 0.508E+00   -.328E-04 -.171E-03 -.110E-03
   0.101E+03 0.668E+02 -.124E+02   -.983E+02 -.665E+02 0.123E+02   -.252E+01 -.109E+01 -.627E+00   0.438E-04 0.413E-04 -.266E-04
   0.162E+02 0.112E+02 -.211E+02   -.152E+02 -.103E+02 0.203E+02   -.142E+01 -.123E+01 0.476E+00   -.749E-05 -.531E-04 0.119E-04
   0.203E+02 0.343E+02 0.145E+02   -.210E+02 -.353E+02 -.131E+02   0.634E-02 0.120E+01 -.160E+01   0.550E-05 0.547E-04 -.438E-04
   0.829E+02 -.666E+02 0.102E+02   -.831E+02 0.676E+02 -.808E+01   0.466E+00 -.630E+00 -.194E+01   0.683E-04 -.590E-04 -.348E-04
   0.884E+01 0.132E+02 -.782E+01   -.672E+01 -.110E+02 0.705E+01   -.215E+01 -.219E+01 0.138E+01   0.338E-04 -.284E-04 0.141E-04
   -.639E+01 0.165E+02 -.799E+01   0.549E+01 -.157E+02 0.580E+01   0.206E+01 0.599E+00 0.362E+01   0.504E-04 -.332E-04 -.638E-04
   0.376E+01 0.322E+02 -.265E+02   -.302E+01 -.303E+02 0.251E+02   0.442E+00 -.116E+01 0.140E+01   -.299E-04 -.529E-04 0.240E-04
   -.672E+02 -.591E+02 -.296E+02   0.684E+02 0.588E+02 0.284E+02   -.749E+00 0.890E+00 0.203E+00   -.874E-05 -.231E-04 -.449E-04
   0.242E+02 0.777E+02 0.106E+02   -.239E+02 -.750E+02 -.930E+01   -.675E+00 -.184E+01 -.256E+01   -.477E-04 0.220E-04 0.141E-04
   -.599E+02 0.106E+03 -.215E+02   0.590E+02 -.105E+03 0.206E+02   -.154E+00 -.156E+01 0.962E+00   -.589E-04 0.140E-03 -.105E-03
   0.115E+03 -.304E+02 -.130E+02   -.113E+03 0.303E+02 0.108E+02   -.202E+01 0.585E+00 0.314E+01   0.116E-03 0.730E-04 -.110E-04
   -.309E+02 0.364E+02 0.182E+02   0.284E+02 -.351E+02 -.163E+02   0.202E+01 -.244E+01 -.273E+01   -.533E-04 -.232E-04 0.567E-04
   -.101E+03 -.663E+02 0.295E+01   0.100E+03 0.646E+02 -.349E+01   0.466E+00 0.220E+01 0.204E+00   0.144E-04 -.175E-04 -.815E-04
   -.126E+03 0.714E+02 0.193E+02   0.128E+03 -.689E+02 -.210E+02   -.124E+01 -.237E+01 0.202E+01   -.215E-04 -.652E-04 0.187E-04
   -.249E+02 0.235E+02 0.255E+01   0.220E+02 -.237E+02 -.993E+00   0.293E+01 0.221E+00 -.109E+01   0.933E-05 -.249E-04 0.625E-04
   0.151E+02 -.105E+03 -.847E+01   -.169E+02 0.101E+03 0.661E+01   0.223E+01 0.320E+01 0.107E+01   -.136E-04 -.134E-03 -.520E-04
   0.102E+02 0.469E+02 0.230E+02   -.108E+02 -.455E+02 -.232E+02   0.769E+00 -.758E+00 0.153E+01   0.283E-04 0.153E-04 0.358E-04
   -.273E+02 -.296E+01 0.220E+02   0.287E+02 0.635E+01 -.212E+02   -.333E+00 -.295E+01 -.181E+01   0.101E-03 0.252E-04 0.410E-04
   -.873E+02 0.756E+02 -.373E+02   0.895E+02 -.752E+02 0.406E+02   -.197E+01 -.880E+00 -.318E+01   -.968E-04 0.145E-03 -.121E-03
   -.852E+02 -.774E+02 0.112E+02   0.857E+02 0.801E+02 -.115E+02   -.759E-02 -.251E+01 0.884E+00   -.794E-04 0.330E-04 0.576E-04
   0.993E+01 0.345E+02 0.241E+02   -.830E+01 -.337E+02 -.231E+02   -.235E+01 -.145E+01 -.188E+01   0.924E-04 -.457E-04 -.221E-04
   0.351E+02 0.299E+02 0.232E+01   -.363E+02 -.301E+02 -.175E+01   0.159E+01 -.498E+00 -.528E+00   0.107E-04 -.823E-05 0.304E-05
   -.484E+02 -.882E+02 0.383E+02   0.464E+02 0.875E+02 -.358E+02   0.802E+00 0.499E+00 -.274E+01   -.563E-04 -.368E-04 0.924E-04
   -.639E+02 -.225E+02 -.188E+02   0.614E+02 0.232E+02 0.174E+02   0.243E+01 -.625E+00 0.178E+01   -.205E-04 0.231E-04 0.232E-04
   0.119E+03 0.694E+02 0.234E+02   -.120E+03 -.699E+02 -.266E+02   0.467E-01 0.546E+00 0.310E+01   -.449E-04 0.660E-07 0.854E-05
   -.775E+02 0.569E+02 0.101E+02   0.779E+02 -.591E+02 -.106E+02   -.986E+00 0.132E+01 0.189E+01   -.812E-04 0.486E-04 0.410E-04
   -.321E+02 -.126E+02 0.681E+01   0.326E+02 0.118E+02 -.693E+01   0.398E-01 0.861E+00 -.795E+00   -.255E-05 -.259E-04 0.323E-04
   0.511E+02 -.596E+02 -.866E+01   -.512E+02 0.585E+02 0.807E+01   -.475E+00 0.442E+00 0.135E+01   0.292E-05 -.491E-04 0.364E-04
   0.638E+02 -.251E+02 -.198E+02   -.615E+02 0.249E+02 0.175E+02   -.160E+01 0.545E+00 0.275E+01   0.142E-04 0.190E-05 -.653E-04
   0.630E+01 -.285E+02 -.606E+01   -.634E+01 0.265E+02 0.478E+01   -.500E+00 0.232E+01 0.109E+01   0.577E-04 0.389E-04 -.198E-04
   -.152E+02 0.580E+01 -.127E+02   0.170E+02 -.528E+01 0.123E+02   -.271E+01 -.861E-01 0.311E+00   0.666E-04 0.493E-04 -.364E-04
   -.888E+02 -.679E+02 0.287E+02   0.868E+02 0.675E+02 -.288E+02   0.221E+01 -.518E+00 -.301E+00   -.216E-04 0.303E-04 -.863E-05
   0.928E+02 -.237E+02 0.156E+01   -.916E+02 0.235E+02 -.194E+01   -.104E+01 0.287E+00 -.137E+00   0.522E-04 0.208E-04 0.749E-05
   -.250E+02 0.985E+02 -.714E+01   0.230E+02 -.951E+02 0.589E+01   0.226E+01 -.374E+01 0.212E+01   -.560E-05 0.631E-04 0.374E-04
   0.961E+02 -.256E+02 0.947E+01   -.941E+02 0.247E+02 -.922E+01   -.260E+01 0.138E+01 -.906E+00   0.461E-04 0.544E-04 -.722E-05
   -.240E+02 0.959E+01 -.146E+02   0.247E+02 -.866E+01 0.141E+02   -.702E+00 -.119E+01 0.152E+01   0.816E-04 -.103E-04 -.537E-04
   -.946E+00 -.673E+02 -.147E+02   0.246E+01 0.656E+02 0.119E+02   -.819E+00 0.264E+01 0.387E+01   -.358E-04 -.109E-03 0.539E-04
   0.189E+02 0.115E+02 0.284E+01   -.167E+02 -.105E+02 -.273E+01   -.318E+01 -.144E+01 0.310E+00   0.201E-05 -.144E-04 -.837E-04
   -.167E+02 -.323E+02 0.893E+01   0.173E+02 0.338E+02 -.876E+01   -.975E-02 -.112E+01 0.514E-01   0.340E-04 0.210E-04 0.243E-04
   -.125E+03 0.301E+02 0.613E+00   0.123E+03 -.280E+02 0.640E+00   0.153E+01 -.400E+01 -.230E+01   -.160E-04 -.479E-04 -.158E-03
   0.389E+02 0.107E+03 -.211E+02   -.374E+02 -.106E+03 0.188E+02   -.444E+00 -.570E+00 0.320E+01   0.110E-05 0.105E-03 0.256E-04
   -.949E+02 0.299E+02 0.239E+02   0.925E+02 -.294E+02 -.217E+02   0.222E+01 -.855E+00 -.276E+01   -.564E-04 -.199E-04 0.110E-03
   -.307E+02 -.270E+02 0.870E+01   0.303E+02 0.265E+02 -.802E+01   0.192E+00 0.175E+00 -.152E+00   0.120E-03 0.439E-04 -.259E-04
 -----------------------------------------------------------------------------------------------
   0.558E+01 -.200E+01 -.100E+02   0.373E-12 0.224E-12 -.870E-13   -.558E+01 0.199E+01 0.101E+02   0.204E-03 -.203E-03 -.309E-03


 POSITION                                       TOTAL-FORCE (eV/Angst)
 -----------------------------------------------------------------------------------
      7.47442     12.44170      5.75930        -0.228219      0.020417     -0.062812
     14.07740      9.84634      7.80339         0.378310     -0.415808      0.030475
      7.44743      1.22509      0.04516         0.328452      1.002424      0.140349
     10.75230      4.54840      3.21992         0.031567     -0.438634     -1.056670
      4.52787     10.14460      4.61230        -0.853645      0.546323      0.459532
      0.83062      3.32995      7.75634         0.040175      0.554689      0.472588
      0.03832      5.19824      1.77287        -0.341430     -0.550765     -1.717099
      8.78906      2.36400      5.43839         0.227613     -0.150748     -0.460154
      7.12170     13.71890      6.44676        -0.011300      0.205441     -0.272447
     14.32040      1.61130      4.41036        -0.117838      0.483147     -1.296898
      2.11888      7.51905      3.13625        -0.010924     -0.469684      0.095174
      2.15497      1.74775      1.16007        -0.562416     -0.678320      0.701406
      2.48993      7.69247      6.55750         0.504691      0.128233     -0.395488
      1.69970     11.58430      6.85291         0.080448      0.384564      0.797824
      7.66162      4.93234      6.13405        -1.361337      2.269949     -0.025052
      5.32607     11.21980      2.61737         0.906422      1.374364      1.250980
      9.73063      4.17279      6.54972         0.180515      0.174729      0.365755
      6.58546      3.03275      5.40499        -1.173817     -0.593255      0.043187
      5.39851      2.31905      9.24299        -0.239126     -0.199939      0.056328
      4.75110      2.23889      6.92027         0.670123      0.168717     -0.427463
     13.97980      5.28238      7.94611         0.322162     -0.058713     -0.172305
     13.74940      9.54910      2.10413         0.038414      0.849638     -0.163201
     12.57110      4.07521      1.62056        -0.490929     -0.412531     -0.266900
      2.72016      4.18030      4.15163        -1.151357     -0.991203      0.462667
     13.29870      2.08146      7.91594         0.013031     -0.307540     -0.195201
     13.20740      1.85289      2.16841        -0.294223     -0.908179      0.744735
      5.21516      0.46583      2.74445        -0.450595      0.116489     -0.050956
      9.16402      6.08065      2.31635         0.358432     -0.158234      1.089907
      0.32965      6.62260      9.74395         0.490935     -0.074768      0.270290
      4.51630      4.47817      2.79890         0.323701      0.182218      0.324720
      2.67339      5.50732      9.65382         0.560875      1.025647     -0.994245
      3.66999     12.91150      7.33354        -0.543497     -0.819071     -1.232614
      1.26226      3.69551      0.19350         0.244089     -0.380879      0.311486
     12.06460     12.72040      9.73574         0.268951      0.187141     -0.298992
      9.54061      2.44419      3.21093         0.736798      0.316646     -0.248322
     10.29280     14.20950      0.61942         0.327966     -0.182084      0.172913
      2.04603     12.72670      3.23088         1.619201     -0.871914     -0.857457
     14.40950     13.16830      2.84817        -0.686165      1.034566     -0.543775
     12.49740      2.40958      5.60425        -0.022722     -0.687647      0.712388
     13.64790     13.96980      4.95970        -0.570593      0.216973     -0.186855
      2.11179     10.96840      4.69491         1.336891     -0.328738     -0.464135
      7.66486      6.03752      4.06948         0.221313     -0.458149     -0.261960
     12.99380     11.72750      1.81565         0.343986     -0.903760     -0.746574
      2.03853      2.02002      3.59579        -0.442065     -0.430631     -0.272213
     13.70000     14.31490      8.86177        -0.716795      0.250555     -0.300281
     13.64200      6.00220      5.69034         0.397549      0.245728      0.129910
      2.98124      3.79307      6.44394        -0.145617     -0.055120      0.683428
      4.38923     13.06610      9.40448         1.257612      1.372594      1.611070
      3.25014      0.04516      4.04937         1.246745      0.624211      0.045247
      5.45511      6.46192      3.65261         0.417522      0.616550     -1.016100
     11.10160      0.69187      2.73317        -0.433179      0.814517     -1.374538
      8.01708     13.56100      0.71667        -1.092376     -0.034282      0.063646
      0.21664      8.15209      5.86817        -0.653335      0.464440      1.106792
      9.58639      1.39243      8.95259        -0.479475     -1.220870     -0.868807
      5.68210      7.60126      1.50660        -0.541449      0.533704     -0.369997
      6.57819     10.55790      8.52891         0.334229      0.239830      0.580328
      4.67700      0.01562      5.99982         0.152786      0.012418      0.443359
     11.65390      4.63376      5.37728         0.585862      0.181998     -0.752301
      0.16938      0.34063      0.94728         0.144831      0.628731      1.468201
      4.57119      4.35388      0.51674         1.096787      0.311550     -1.014992
      6.78960     13.24770      2.81800        -0.073939     -0.551227     -0.296213
      5.97206      6.36775      7.42624         0.383043     -0.140714      0.771824
      4.27871      0.76465      0.64949        -0.857651     -0.676370     -1.002343
     14.19570     12.93040      6.99761         0.399498     -0.767218      0.012346
      8.46049      4.79136      0.50410        -1.174970     -0.214947     -0.305080
      3.86862      7.90363      4.59251         0.063667      0.063109      0.461965
     12.41350     11.44390      7.61499        -0.194006      0.164805      0.255300
      6.84803     12.92170      8.63499        -0.651003     -0.785288      1.492348
      7.77121      2.85214      1.75817         0.611534      0.057796     -0.945997
     12.34180      3.97488      9.05755        -0.532477     -0.638564      0.811409
      0.84714      5.58080      3.86988         0.653194      0.322984      0.473774
      2.71850      9.50391      0.20062        -0.587571      0.384657     -0.181883
      3.14001      9.58694      7.80085        -1.084625      0.469010     -0.021466
      6.31359      5.99286      9.81771         0.345410     -0.954061     -0.390611
      0.30335      8.99687      0.06483         0.103845      0.015133     -0.539366
      9.26791      0.42462      6.49565         0.269230     -0.381420      0.901436
      0.79201      9.23031      3.89324        -0.709230      0.504781     -0.687092
      5.94473      2.71348      3.12737        -0.045772     -0.289171      1.170259
      9.97822      3.64064      8.73197         0.661323      1.048172      1.251634
      3.57979     11.64320      1.16746        -1.041266     -0.479649      0.425854
      3.25091      7.40213      1.06941         0.632211      0.392472      0.234005
      6.19801     10.04390      0.94408        -0.470649     -2.034159     -1.160217
     11.24270      0.17101      4.96144         1.097382      0.498044      1.064568
      4.86588     10.85940      6.94388        -0.130567     -0.382894     -0.602277
      3.60996      5.84797      7.45176        -0.241172     -0.382954      0.537941
 -----------------------------------------------------------------------------------
    total drift:                                0.002363     -0.012264      0.010209


--------------------------------------------------------------------------------------------------------



  FREE ENERGIE OF THE ION-ELECTRON SYSTEM (eV)
  ---------------------------------------------------
  free  energy   TOTEN  =      -809.54334129 eV

  energy  without entropy=     -809.48839126  energy(sigma->0) =     -809.51586627



--------------------------------------------------------------------------------------------------------


    POTLOK:  cpu time      1.8220: real time      1.8233


--------------------------------------------------------------------------------------------------------


     LOOP+:  cpu time   1795.4160: real time   1797.2349
    4ORBIT:  cpu time      0.0000: real time      0.0000



 total charge

# of ion       s       p       d       tot
------------------------------------------
    1        0.561   0.016   0.000   0.577
    2        0.795   0.784   0.000   1.580
    3        0.757   0.914   0.000   1.671
    4        0.753   0.905   0.000   1.658
    5        0.753   0.882   0.000   1.636
    6        0.769   0.863   0.000   1.631
    7        0.757   0.924   0.000   1.681
    8        0.762   0.979   0.000   1.741
    9        0.749   0.892   0.000   1.642
   10        0.757   0.919   0.000   1.675
   11        0.757   0.956   0.000   1.713
   12        0.756   0.908   0.000   1.664
   13        0.752   0.930   0.000   1.681
   14        0.756   0.887   0.000   1.644
   15        0.767   0.916   0.000   1.683
   16        0.752   0.929   0.000   1.681
   17        0.756   1.005   0.000   1.761
   18        0.760   0.930   0.000   1.690
   19        0.749   0.898   0.000   1.647
   20        0.748   0.882   0.000   1.630
   21        0.753   0.914   0.000   1.667
   22        0.774   0.860   0.000   1.634
   23        0.752   0.912   0.000   1.665
   24        0.750   0.968   0.000   1.717
   25        0.765   0.853   0.000   1.618
   26        0.762   0.868   0.000   1.631
   27        0.756   0.932   0.000   1.689
   28        0.782   0.871   0.000   1.654
   29        0.784   0.836   0.000   1.620
   30        0.751   0.991   0.000   1.742
   31        0.745   0.956   0.000   1.702
   32        0.762   0.959   0.000   1.721
   33        0.770   0.881   0.000   1.651
   34        0.756   0.861   0.000   1.617
   35        0.757   0.934   0.000   1.691
   36        0.756   0.865   0.000   1.620
   37        0.763   0.923   0.000   1.686
   38        0.753   0.938   0.000   1.691
   39        0.768   0.859   0.000   1.627
   40        0.761   0.909   0.000   1.670
   41        0.754   0.956   0.000   1.710
   42        0.783   0.879   0.000   1.663
   43        0.777   0.879   0.000   1.656
   44        0.754   0.911   0.000   1.665
   45        0.755   0.897   0.000   1.652
   46        0.750   0.858   0.000   1.607
   47        0.751   0.889   0.000   1.640
   48        0.757   0.913   0.000   1.670
   49        0.748   0.927   0.000   1.675
   50        0.754   0.939   0.000   1.693
   51        0.749   0.907   0.000   1.656
   52        0.761   0.899   0.000   1.660
   53        0.767   0.852   0.000   1.619
   54        0.761   0.886   0.000   1.646
   55        0.760   0.871   0.000   1.631
   56        0.794   0.829   0.000   1.623
   57        0.752   0.874   0.000   1.625
   58        0.751   0.925   0.000   1.676
   59        0.762   0.877   0.000   1.639
   60        0.773   0.878   0.000   1.651
   61        0.809   0.805   0.000   1.615
   62        0.803   0.784   0.000   1.587
   63        0.757   0.923   0.000   1.680
   64        0.756   0.892   0.000   1.648
   65        0.752   0.868   0.000   1.619
   66        0.751   0.945   0.000   1.696
   67        0.810   0.822   0.000   1.632
   68        0.763   0.879   0.000   1.642
   69        0.756   0.950   0.000   1.706
   70        0.755   0.888   0.000   1.643
   71        0.750   0.915   0.000   1.666
   72        0.758   0.890   0.000   1.648
   73        0.774   0.885   0.000   1.660
   74        0.758   0.866   0.000   1.623
   75        0.755   0.880   0.000   1.635
   76        0.761   0.859   0.000   1.620
   77        0.750   0.958   0.000   1.708
   78        0.754   0.956   0.000   1.711
   79        0.750   0.935   0.000   1.685
   80        0.765   0.850   0.000   1.615
   81        0.763   0.904   0.000   1.667
   82        0.791   0.824   0.000   1.615
   83        0.773   0.824   0.000   1.597
   84        0.765   0.896   0.000   1.662
   85        0.757   0.908   0.000   1.665
--------------------------------------------------
tot         64.538  75.365   0.000 139.902


 total amount of memory used by VASP MPI-rank0   170037. kBytes
=======================================================================

   base                                    :      30000. kBytes
   nonl-proj                               :      29447. kBytes
   fftplans                                :      38240. kBytes
   grid                                    :      29478. kBytes
   one-center                              :         18. kBytes
   wavefun                                 :      42854. kBytes

  
  
 General timing and accounting informations for this job:
 ========================================================
  
                  Total CPU time used (sec):     1855.853
                            User time (sec):     1848.975
                          System time (sec):        6.878
                         Elapsed time (sec):     1857.683
  
                   Maximum memory used (kb):      328896.
                   Average memory used (kb):          N/A
  
                          Minor page faults:       264088
                          Major page faults:         1144
                 Voluntary context switches:         2704
