 vasp.6.5.0 16Dec24 (build Jan 20 2025 08:32:48) complex                         
 executed on        HPECrayEX_GCC date 2025.07.22  11:45:23
 running  128 mpi-ranks, with    1 threads/rank, on    1 nodes
 distrk:  each k-point on  128 cores,    1 groups
 distr:  one band on NCORE=  16 cores,    8 groups


--------------------------------------------------------------------------------------------------------


 INCAR:
   SYSTEM = a-Si SPC
   NCORE = 16
   ISTART = 1
   ICHARG = 1
   ISPIN = 1
   ISYM = 1
   EDIFF = 1E-6
   NELM = 150
   EDIFFG = -0.01
   NSW = 0
   ISIF = 2
   IBRION = -1
   PREC = Accurate
   ENCUT = 1200
   KSPACING = 0.23
   KGAMMA = .TRUE.
   METAGGA = SCAN
   LASPH = .TRUE.
   LDIAG = .FALSE.
   LMIXTAU = .TRUE.
   ADDGRID = .TRUE.
   ALGO = Normal
   ISMEAR = 0
   SIGMA = 0.1
   LORBIT = 11
   NEDOS = 2000
   LWAVE = .FALSE.
   LCHARG = .FALSE.

 POTCAR:    PAW_PBE H 15Jun2001                   
 POTCAR:    PAW_PBE Si 05Jan2001                  
 POTCAR:    PAW_PBE H 15Jun2001                   
   SHA256 =  030f79b5d3ab3cf0e668861823c8fb652ff669f3e15e46930bd03bfd63a607b6 H/POTCAR              
   COPYR  = (c) Copyright 15Jun2001 Georg Kresse                                                    
   COPYR  = This file is part of the software VASP. Any use, copying, and all other rights are regul
   COPYR  = If you do not have a valid VASP license, you may not use, copy or distribute this file. 
   VRHFIN =H: ultrasoft test                                                                        
   LEXCH  = PE                                                                                      
   EATOM  =    12.4884 eV,    0.9179 Ry                                                             
                                                                                                    
   TITEL  = PAW_PBE H 15Jun2001                                                                     
   LULTRA =        F    use ultrasoft PP ?                                                          
   IUNSCR =        0    unscreen: 0-lin 1-nonlin 2-no                                               
   RPACOR =    0.000    partial core radius                                                         
   POMASS =    1.000; ZVAL   =    1.000    mass and valenz                                          
   RCORE  =    1.100    outmost cutoff radius                                                       
   RWIGS  =    0.700; RWIGS  =    0.370    wigner-seitz radius (au A)                               
   ENMAX  =  250.000; ENMIN  =  200.000 eV                                                          
   RCLOC  =    0.701    cutoff for local pot                                                        
   LCOR   =        T    correct aug charges                                                         
   LPAW   =        T    paw PP                                                                      
   EAUG   =  400.000                                                                                
   RMAX   =    1.123    core radius for proj-oper                                                   
   RAUG   =    1.200    factor for augmentation sphere                                              
   RDEP   =    1.112    radius for radial grids                                                     
   RDEPT  =    0.926    core radius for aug-charge                                                  
                                                                                                    
   Atomic configuration                                                                             
    2 entries                                                                                       
     n  l   j            E        occ.                                                              
     1  0  0.50        -6.4927   1.0000                                                             
     2  1  0.50        -3.4015   0.0000                                                             
   Description                                                                                      
     l       E           TYP  RCUT    TYP  RCUT                                                     
     0     -6.4927494     23  1.100                                                                 
     0      6.8029130     23  1.100                                                                 
     1     -4.0817478     23  1.100                                                                 
  local pseudopotential read in
  atomic valenz-charges read in
  non local Contribution for L=           0  read in
    real space projection operators read in
  non local Contribution for L=           0  read in
    real space projection operators read in
  non local Contribution for L=           1  read in
    real space projection operators read in
    PAW grid and wavefunctions read in

   number of l-projection  operators is LMAX  =           3
   number of lm-projection operators is LMMAX =           5

 POTCAR:    PAW_PBE Si 05Jan2001                  
   SHA256 =  79d9987ad8750f624c4d6acb2a16d13abf6a777132adc04dc6c8399be72b42bb Si/POTCAR             
   COPYR  = (c) Copyright 05Jan2001 Georg Kresse                                                    
   COPYR  = This file is part of the software VASP. Any use, copying, and all other rights are regul
   COPYR  = If you do not have a valid VASP license, you may not use, copy or distribute this file. 
   VRHFIN =Si: s2p2                                                                                 
   LEXCH  = PE                                                                                      
   EATOM  =   103.0669 eV,    7.5752 Ry                                                             
                                                                                                    
   TITEL  = PAW_PBE Si 05Jan2001                                                                    
   LULTRA =        F    use ultrasoft PP ?                                                          
   IUNSCR =        1    unscreen: 0-lin 1-nonlin 2-no                                               
   RPACOR =    1.500    partial core radius                                                         
   POMASS =   28.085; ZVAL   =    4.000    mass and valenz                                          
   RCORE  =    1.900    outmost cutoff radius                                                       
   RWIGS  =    2.480; RWIGS  =    1.312    wigner-seitz radius (au A)                               
   ENMAX  =  245.345; ENMIN  =  184.009 eV                                                          
   ICORE  =        2    local potential                                                             
   LCOR   =        T    correct aug charges                                                         
   LPAW   =        T    paw PP                                                                      
   EAUG   =  322.069                                                                                
   DEXC   =    0.000                                                                                
   RMAX   =    1.950    core radius for proj-oper                                                   
   RAUG   =    1.300    factor for augmentation sphere                                              
   RDEP   =    1.993    radius for radial grids                                                     
   RDEPT  =    1.837    core radius for aug-charge                                                  
                                                                                                    
   Atomic configuration                                                                             
    6 entries                                                                                       
     n  l   j            E        occ.                                                              
     1  0  0.50     -1785.8828   2.0000                                                             
     2  0  0.50      -139.4969   2.0000                                                             
     2  1  1.50       -95.5546   6.0000                                                             
     3  0  0.50       -10.8127   2.0000                                                             
     3  1  0.50        -4.0811   2.0000                                                             
     3  2  1.50        -4.0817   0.0000                                                             
   Description                                                                                      
     l       E           TYP  RCUT    TYP  RCUT                                                     
     0    -10.8127223     23  1.900                                                                 
     0     -7.6451159     23  1.900                                                                 
     1     -4.0811372     23  1.900                                                                 
     1      2.4879257     23  1.900                                                                 
     2     -4.0817478      7  1.900                                                                 
  local pseudopotential read in
  partial core-charges read in
  partial kinetic energy density read in
  atomic valenz-charges read in
  non local Contribution for L=           0  read in
    real space projection operators read in
  non local Contribution for L=           0  read in
    real space projection operators read in
  non local Contribution for L=           1  read in
    real space projection operators read in
  non local Contribution for L=           1  read in
    real space projection operators read in
    PAW grid and wavefunctions read in

   number of l-projection  operators is LMAX  =           4
   number of lm-projection operators is LMMAX =           8

 -----------------------------------------------------------------------------
|                                                                             |
|               ----> ADVICE to this user running VASP <----                  |
|                                                                             |
|     You have a (more or less) 'large supercell' and for larger cells it     |
|     might be more efficient to use real-space projection operators.         |
|     Therefore, try LREAL= Auto in the INCAR file.                           |
|     Mind: For very accurate calculation, you might also keep the            |
|     reciprocal projection scheme (i.e. LREAL=.FALSE.).                      |
|                                                                             |
 -----------------------------------------------------------------------------

 -----------------------------------------------------------------------------
|                                                                             |
|               ----> ADVICE to this user running VASP <----                  |
|                                                                             |
|     You enforced a specific xc type in the INCAR file but a different       |
|     type was found in the POTCAR file.                                      |
|     I HOPE YOU KNOW WHAT YOU ARE DOING!                                     |
|                                                                             |
 -----------------------------------------------------------------------------

  PAW_PBE H 15Jun2001                   :
 energy of atom  1       EATOM=  -12.4884
 kinetic energy error for atom=    0.0000 (will be added to EATOM!!)
  PAW_PBE Si 05Jan2001                  :
 energy of atom  2       EATOM= -103.0669
 kinetic energy error for atom=    0.0001 (will be added to EATOM!!)


 POSCAR:  H Si
  positions in cartesian coordinates
  No initial velocities read in


 exchange-correlation table for SCAN
   RHO(1)=    0.500       N(1)  =     2000
   RHO(2)=  100.500       N(2)  =     4000



--------------------------------------------------------------------------------------------------------


 ion  position               nearest neighbor table
   1  0.377  0.460  0.233-  97 1.44
   2  0.095  0.689  0.682-  52 1.52
   3  0.308  0.715  0.692-  15 0.79
   4  0.366  0.669  0.065-  10 0.71
   5  0.172  0.778  0.635- 114 1.44
   6  0.481  0.612  0.235-   7 0.77
   7  0.466  0.592  0.297-   6 0.77
   8  0.179  0.553  0.941-  88 1.51
   9  0.354  0.567  0.806-  19 0.81
  10  0.349  0.664  0.005-   4 0.71
  11  0.455  0.704  0.774-  20 0.75
  12  0.436  0.553  0.678-  66 1.60
  13  0.273  0.863  0.013-  47 1.44
  14  0.572  0.724  0.959-  58 1.55
  15  0.309  0.677  0.641-   3 0.79
  16  0.258  0.574  0.206-  97 1.54
  17  0.274  0.774  0.202-  22 0.78
  18  0.429  0.817  0.281-  57 1.42
  19  0.334  0.589  0.868-   9 0.81
  20  0.446  0.743  0.816-  11 0.75
  21  0.348  0.519  0.041-  97 1.50
  22  0.284  0.722  0.218-  17 0.78
  23  0.104  0.721  0.925-  73 1.53
  24  0.362  0.707  0.423-  25 0.85
  25  0.384  0.747  0.471-  24 0.85
  26  0.381  0.582  0.486-  66 1.46
  27  0.181  0.064  0.400-  94 2.23  79 2.34  28 2.35  71 2.51
  28  0.255  0.108  0.582- 104 2.31  96 2.34  27 2.35  34 2.39
  29  0.761  0.591  0.662-  78 2.29 100 2.33  61 2.37  64 2.42
  30  0.623  0.993  0.006-  81 2.25 111 2.31  49 2.43  42 2.49
  31  0.709  0.286  0.472-  59 2.30  90 2.32 118 2.39  60 2.41
  32  0.743  0.913  0.260-  69 2.31  81 2.41  41 2.42 106 2.52
  33  0.623  0.833  0.589-  39 2.29  64 2.31  41 2.33
  34  0.120  0.147  0.694-  51 2.21  99 2.29  28 2.39  54 2.72
  35  0.992  0.004  0.083- 120 2.37  56 2.44  44 2.46  82 2.46
  36  0.350  0.224  0.344-  62 2.31  79 2.39 104 2.42 107 2.48
  37  0.792  0.367  0.888- 103 2.37  80 2.37 119 2.39  61 2.40
  38  0.068  0.936  0.764-  70 2.31  82 2.37 114 2.37  54 2.52
  39  0.618  0.984  0.642-  33 2.29 113 2.36  42 2.37  45 2.38
  40  0.813  0.092  0.838- 111 2.32  80 2.37 120 2.47  45 2.54
  41  0.643  0.815  0.379-  33 2.33  57 2.38  91 2.40  32 2.42
  42  0.525  0.992  0.820-  76 2.26 115 2.36  39 2.37  30 2.49
  43  0.364  0.053  0.105-  79 2.29  49 2.32 112 2.33  47 2.36
  44  0.015  0.905  0.262-  46 2.21  69 2.34  94 2.40  35 2.46
  45  0.771  0.039  0.624-  72 2.33  39 2.38  59 2.40  40 2.54
  46  0.032  0.759  0.209-  44 2.21  63 2.22  73 2.34  69 3.11
  47  0.281  0.957  0.972-  13 1.44 115 2.28  43 2.36  82 2.43
  48  0.861  0.797  0.696- 100 2.30  70 2.32  64 2.37  72 2.38
  49  0.505  0.994  0.164-  92 2.32  43 2.32  57 2.37  30 2.43
  50  0.551  0.433  0.984- 103 2.27  55 2.36 116 2.51
  51  0.125  0.166  0.894-  34 2.21  65 2.34  82 2.35  68 2.46
  52  0.026  0.620  0.632-   2 1.52 100 2.26  86 2.34  67 2.38
  53  0.194  0.358  0.138- 107 2.24 102 2.28  68 2.41  97 2.44
  54  0.005  0.025  0.585-  94 2.37  72 2.43  38 2.52 108 2.55  34 2.72
  55  0.644  0.438  0.161-  95 2.28  50 2.36  60 2.38 119 2.48  93 3.02
  56  0.966  0.158  0.161-  98 2.33  71 2.37  65 2.37  35 2.44
  57  0.501  0.878  0.316-  18 1.42  49 2.37  84 2.37  41 2.38
  58  0.676  0.739  0.938-  14 1.55  85 2.28  64 2.43  81 2.59
  59  0.789  0.150  0.466-  31 2.30 108 2.32 106 2.36  45 2.40
  60  0.598  0.358  0.341-  62 2.22  75 2.38  55 2.38  31 2.41
  61  0.857  0.477  0.750- 105 2.36  29 2.37  37 2.40  67 2.46
  62  0.496  0.256  0.273-  60 2.22 116 2.27  36 2.31  92 2.47
  63  0.003  0.631  0.312-  46 2.22 101 2.45  83 2.46  86 2.66
  64  0.709  0.742  0.720-  33 2.31  48 2.37  29 2.42  58 2.43
  65  0.005  0.247  0.986-  51 2.34  56 2.37 102 2.37  80 2.39
  66  0.405  0.501  0.557-  26 1.46  12 1.60 117 2.35  75 2.39
  67  0.996  0.554  0.827-  88 2.28 109 2.29  52 2.38  61 2.46
  68  0.246  0.271  0.963- 112 2.31 110 2.41  53 2.41  51 2.46
  69  0.876  0.859  0.350-  83 2.29  32 2.31  44 2.34  72 2.50  46 3.11
  70  0.955  0.847  0.853-  38 2.31  48 2.32 120 2.34  73 2.39
  71  0.066  0.180  0.330-  56 2.37 108 2.37 107 2.37  27 2.51
  72  0.873  0.925  0.561-  45 2.33  48 2.38  54 2.43  69 2.50
  73  0.016  0.741  0.997-  23 1.53 109 2.31  46 2.34  70 2.39
  74  0.165  0.380  0.486-  99 2.34 117 2.34 107 2.38  86 2.50
  75  0.556  0.446  0.515-  78 2.34  60 2.38  66 2.39  90 2.44
  76  0.481  0.140  0.835-  42 2.26 112 2.27  87 2.37  89 2.39
  77  0.942  0.271  0.629- 108 2.23 105 2.30  99 2.31  80 2.48
  78  0.689  0.536  0.491-  91 2.29  29 2.29  75 2.34 118 2.38
  79  0.326  0.065  0.307-  43 2.29  27 2.34  36 2.39  84 2.47
  80  0.884  0.238  0.838-  40 2.37  37 2.37  65 2.39  77 2.48
  81  0.732  0.888  0.043-  30 2.25  32 2.41 120 2.43  58 2.59
  82  0.124  0.009  0.943-  51 2.35  38 2.37  47 2.43  35 2.46
  83  0.858  0.704  0.374-  69 2.29 100 2.32  91 2.41  63 2.46
  84  0.417  0.972  0.452- 113 2.29  57 2.37  96 2.38  79 2.47
  85  0.762  0.612  0.982- 109 2.26  58 2.28  95 2.36
  86  0.054  0.511  0.481-  52 2.34 105 2.48  74 2.50  63 2.66
  87  0.500  0.195  0.632- 113 2.29 104 2.32  76 2.37  90 2.39
  88  0.122  0.476  0.889-   8 1.51 110 2.20  67 2.28 102 2.41
  89  0.594  0.220  0.952- 111 2.27 116 2.33  76 2.39 103 2.43
  90  0.611  0.316  0.635-  31 2.32 103 2.33  87 2.39  75 2.44
  91  0.698  0.660  0.363-  78 2.29  95 2.40  41 2.40  83 2.41
  92  0.562  0.102  0.299-  49 2.32 113 2.34 106 2.35  62 2.47
  93  0.843  0.450  0.236- 101 2.21 118 2.24 119 2.39  95 2.47  55 3.02
  94  0.097  0.941  0.445-  27 2.23 114 2.35  54 2.37  44 2.40
  95  0.728  0.569  0.185-  55 2.28  85 2.36  91 2.40  93 2.47
  96  0.311  0.960  0.617- 115 2.20  28 2.34 114 2.38  84 2.38
  97  0.302  0.485  0.155-   1 1.44  21 1.50  16 1.54  53 2.44
  98  0.808  0.175  0.153- 111 2.33  56 2.33 106 2.37 119 2.51
  99  0.097  0.299  0.647-  34 2.29  77 2.31  74 2.34 110 2.47
 100  0.885  0.669  0.577-  52 2.26  48 2.30  83 2.32  29 2.33
 101  0.964  0.518  0.155-  93 2.21 109 2.44  63 2.45 102 2.49
 102  0.054  0.393  0.057-  53 2.28  65 2.37  88 2.41 101 2.49
 103  0.634  0.358  0.838-  50 2.27  90 2.33  37 2.37  89 2.43
 104  0.354  0.231  0.565-  28 2.31  87 2.32  36 2.42 117 2.49
 105  0.926  0.421  0.569-  77 2.30  61 2.36 118 2.44  86 2.48
 106  0.722  0.083  0.291-  92 2.35  59 2.36  98 2.37  32 2.52
 107  0.192  0.282  0.316-  53 2.24  71 2.37  74 2.38  36 2.48
 108  0.947  0.169  0.477-  77 2.23  59 2.32  71 2.37  54 2.55
 109  0.917  0.617  0.988-  85 2.26  67 2.29  73 2.31 101 2.44
 110  0.204  0.369  0.796-  88 2.20  68 2.41 117 2.47  99 2.47
 111  0.712  0.125  0.997-  89 2.27  30 2.31  40 2.32  98 2.33
 112  0.376  0.181  0.979-  76 2.27  68 2.31  43 2.33 116 2.43
 113  0.530  0.073  0.506-  87 2.29  84 2.29  92 2.34  39 2.36
 114  0.170  0.876  0.616-   5 1.44  94 2.35  38 2.37  96 2.38
 115  0.370  0.948  0.801-  96 2.20  47 2.28  42 2.36
 116  0.481  0.289  0.072-  62 2.27  89 2.33 112 2.43  50 2.51
 117  0.296  0.389  0.609-  74 2.34  66 2.35 110 2.47 104 2.49
 118  0.796  0.421  0.428-  93 2.24  78 2.38  31 2.39 105 2.44
 119  0.775  0.340  0.102-  37 2.39  93 2.39  55 2.48  98 2.51
 120  0.869  0.959  0.955-  70 2.34  35 2.37  81 2.43  40 2.47

  LATTYP: Found a simple tetragonal cell.
 ALAT       =    14.5687987818
 C/A-ratio  =     0.7511742886
  
  Lattice vectors:
  
 A1 = (  14.5687987818,   0.0000000000,   0.0000000000)
 A2 = (   0.0000000000,  14.5687987818,   0.0000000000)
 A3 = (   0.0000000000,   0.0000000000,  10.9437070610)


Analysis of symmetry for initial positions (statically):
=====================================================================
 Subroutine PRICEL returns:
 Original cell was already a primitive cell.
 

 Routine SETGRP: Setting up the symmetry group for a 
 simple tetragonal supercell.


 Subroutine GETGRP returns: Found  1 space group operations
 (whereof  1 operations were pure point group operations)
 out of a pool of 16 trial point group operations.


The static configuration has the point symmetry C_1 .


Analysis of symmetry for dynamics (positions and initial velocities):
=====================================================================
 Subroutine PRICEL returns:
 Original cell was already a primitive cell.
 

 Routine SETGRP: Setting up the symmetry group for a 
 simple tetragonal supercell.


 Subroutine GETGRP returns: Found  1 space group operations
 (whereof  1 operations were pure point group operations)
 out of a pool of 16 trial point group operations.


The dynamic configuration has the point symmetry C_1 .


 Subroutine INISYM returns: Found  1 space group operations
 (whereof  1 operations are pure point group operations),
 and found     1 'primitive' translations


----------------------------------------------------------------------------------------

                                     Primitive cell                                     

  volume of cell :    2322.8007

  direct lattice vectors                    reciprocal lattice vectors
    14.568798782  0.000000000  0.000000000     0.068639839  0.000000000  0.000000000
     0.000000000 14.568798782  0.000000000     0.000000000  0.068639839  0.000000000
     0.000000000  0.000000000 10.943707061     0.000000000  0.000000000  0.091376715

  length of vectors
    14.568798782 14.568798782 10.943707061     0.068639839  0.068639839  0.091376715

  position of ions in fractional coordinates (direct lattice)
     0.377132671  0.460350925  0.233167791
     0.095451933  0.689240077  0.682386687
     0.308375458  0.714829009  0.692074446
     0.366181871  0.668998875  0.065189885
     0.172307274  0.778416956  0.634868054
     0.480952487  0.612465045  0.234754091
     0.465931344  0.592136670  0.296835431
     0.179020936  0.552633757  0.940567939
     0.354023697  0.567095484  0.806078777
     0.349101534  0.663837846  0.004562211
     0.455201565  0.703743675  0.774178252
     0.435543115  0.553215822  0.678031672
     0.272789134  0.863015557  0.013235460
     0.572412326  0.724177755  0.959144826
     0.309118141  0.676839604  0.640710681
     0.258438603  0.573752176  0.206253693
     0.274460514  0.773886727  0.202268755
     0.429010661  0.816649346  0.281402817
     0.333832602  0.588847449  0.868466229
     0.446279758  0.743033119  0.816284642
     0.347840620  0.518545840  0.041034998
     0.284089997  0.722310752  0.218170131
     0.103546629  0.721370386  0.924915108
     0.362382656  0.706777556  0.422719648
     0.383792795  0.746616119  0.471191340
     0.381430898  0.582319114  0.485904819
     0.181201624  0.064048108  0.400080153
     0.254893355  0.108328080  0.581670358
     0.761105989  0.590737104  0.662099228
     0.623170801  0.993396931  0.006279454
     0.709118175  0.286472486  0.472424012
     0.742772288  0.912944176  0.259763898
     0.623321808  0.832642429  0.589256453
     0.119670127  0.147421900  0.694402725
     0.992278102  0.003808125  0.083002587
     0.350472958  0.224321857  0.344308375
     0.791527165  0.367003490  0.887754940
     0.067701395  0.936144442  0.763732979
     0.617581458  0.984411976  0.642483389
     0.813114394  0.092081030  0.838365825
     0.643238344  0.814850982  0.379026045
     0.524991807  0.992236918  0.819895850
     0.364067078  0.052977669  0.104933364
     0.014564619  0.904611300  0.261917647
     0.771244093  0.038688982  0.624447453
     0.032224276  0.759046793  0.209041597
     0.281021110  0.956530474  0.972001529
     0.860832810  0.797224272  0.695613466
     0.505109591  0.993815634  0.163692247
     0.551164178  0.432682893  0.983825676
     0.124981478  0.165674606  0.894487576
     0.026366759  0.620287927  0.632498655
     0.193660441  0.357614933  0.137567644
     0.005462962  0.024929440  0.584669341
     0.643637141  0.438337443  0.160986583
     0.966414610  0.158409766  0.160907085
     0.500601327  0.877841762  0.315561261
     0.676368735  0.738578394  0.937735261
     0.789117907  0.150389200  0.465599086
     0.597946346  0.358094725  0.340603050
     0.857133123  0.477335167  0.750040179
     0.496064920  0.256255169  0.273083881
     0.002962276  0.631073992  0.311849539
     0.708974031  0.742257489  0.720015618
     0.004920344  0.246734824  0.986009580
     0.404937983  0.500807933  0.556624000
     0.995559086  0.554279740  0.826962011
     0.246443104  0.271214536  0.963402980
     0.875782567  0.858677519  0.350158313
     0.954876254  0.846981291  0.852881016
     0.065646112  0.180232430  0.329940301
     0.873270349  0.925210115  0.560810881
     0.016008115  0.740548357  0.997413394
     0.165028705  0.379727943  0.485755875
     0.556353349  0.446257107  0.514833773
     0.480559867  0.140247664  0.834867924
     0.942033740  0.270773182  0.629114062
     0.689027294  0.535545869  0.490756923
     0.325687112  0.064810491  0.307306289
     0.884376275  0.238495298  0.837920821
     0.732490040  0.887753355  0.042986257
     0.123899714  0.008671339  0.942760981
     0.857503778  0.703743675  0.373762746
     0.416619798  0.972242133  0.452150261
     0.761998307  0.612171266  0.982034693
     0.054352868  0.510738058  0.481180643
     0.500328827  0.194990681  0.632272955
     0.122325802  0.475555336  0.888679672
     0.593774417  0.219819770  0.951770725
     0.611270712  0.315945746  0.634573820
     0.698376040  0.660068146  0.363038775
     0.562195973  0.101641187  0.299456115
     0.842890357  0.450306858  0.236262720
     0.097051241  0.940832543  0.444984499
     0.728385377  0.568838936  0.185219687
     0.310661165  0.959770274  0.616985630
     0.301619239  0.484926047  0.155086388
     0.807767351  0.175227212  0.153491864
     0.097257847  0.299196939  0.647223099
     0.885323505  0.669344820  0.577151779
     0.964300503  0.517505946  0.155364173
     0.054134731  0.392766081  0.056552775
     0.633559440  0.357825657  0.838172106
     0.353945447  0.231402743  0.564850646
     0.925587634  0.421228963  0.569403947
     0.722255840  0.083340433  0.290736949
     0.191982884  0.282111797  0.315689188
     0.946859120  0.168881459  0.477054071
     0.917028246  0.616962327  0.987846252
     0.203711373  0.369432654  0.795977995
     0.712357975  0.124669853  0.997020474
     0.376143571  0.180954521  0.978589790
     0.529963391  0.073473456  0.505686050
     0.170433406  0.876036535  0.615515379
     0.369749770  0.947923038  0.801208398
     0.481465913  0.289303193  0.071770836
     0.296306515  0.388548163  0.608732486
     0.796194674  0.421344278  0.427503219
     0.775286979  0.339760338  0.101662992
     0.868644024  0.958514165  0.955316141

  ion indices of the primitive-cell ions
   primitive index   ion index
                 1           1
                 2           2
                 3           3
                 4           4
                 5           5
                 6           6
                 7           7
                 8           8
                 9           9
                10          10
                11          11
                12          12
                13          13
                14          14
                15          15
                16          16
                17          17
                18          18
                19          19
                20          20
                21          21
                22          22
                23          23
                24          24
                25          25
                26          26
                27          27
                28          28
                29          29
                30          30
                31          31
                32          32
                33          33
                34          34
                35          35
                36          36
                37          37
                38          38
                39          39
                40          40
                41          41
                42          42
                43          43
                44          44
                45          45
                46          46
                47          47
                48          48
                49          49
                50          50
                51          51
                52          52
                53          53
                54          54
                55          55
                56          56
                57          57
                58          58
                59          59
                60          60
                61          61
                62          62
                63          63
                64          64
                65          65
                66          66
                67          67
                68          68
                69          69
                70          70
                71          71
                72          72
                73          73
                74          74
                75          75
                76          76
                77          77
                78          78
                79          79
                80          80
                81          81
                82          82
                83          83
                84          84
                85          85
                86          86
                87          87
                88          88
                89          89
                90          90
                91          91
                92          92
                93          93
                94          94
                95          95
                96          96
                97          97
                98          98
                99          99
               100         100
               101         101
               102         102
               103         103
               104         104
               105         105
               106         106
               107         107
               108         108
               109         109
               110         110
               111         111
               112         112
               113         113
               114         114
               115         115
               116         116
               117         117
               118         118
               119         119
               120         120

----------------------------------------------------------------------------------------


 -----------------------------------------------------------------------------
|                                                                             |
|           W    W    AA    RRRRR   N    N  II  N    N   GGGG   !!!           |
|           W    W   A  A   R    R  NN   N  II  NN   N  G    G  !!!           |
|           W    W  A    A  R    R  N N  N  II  N N  N  G       !!!           |
|           W WW W  AAAAAA  RRRRR   N  N N  II  N  N N  G  GGG   !            |
|           WW  WW  A    A  R   R   N   NN  II  N   NN  G    G                |
|           W    W  A    A  R    R  N    N  II  N    N   GGGG   !!!           |
|                                                                             |
|     The requested file  could not be found or opened for reading            |
|     k-point information. Automatic k-point generation is used as a          |
|     fallback, which may lead to unwanted results.                           |
|                                                                             |
 -----------------------------------------------------------------------------



Automatic generation of k-mesh.
 Grid dimensions derived from KSPACING:
 generate k-points for:    2    2    3

 Generating k-lattice:

  Cartesian coordinates                     Fractional coordinates (reciprocal lattice)
     0.034319919  0.000000000  0.000000000     0.500000000  0.000000000  0.000000000
     0.000000000  0.034319919  0.000000000     0.000000000  0.500000000  0.000000000
     0.000000000  0.000000000  0.030458905     0.000000000  0.000000000  0.333333333

  Length of vectors
     0.034319919  0.034319919  0.030458905

  Shift w.r.t. Gamma in fractional coordinates (k-lattice)
     0.000000000  0.000000000  0.000000000

 
 Subroutine IBZKPT returns following result:
 ===========================================
 
 Found      8 irreducible k-points:
 
 Following reciprocal coordinates:
            Coordinates               Weight
  0.000000  0.000000  0.000000      1.000000
  0.500000  0.000000  0.000000      1.000000
  0.000000  0.500000  0.000000      1.000000
  0.500000  0.500000  0.000000      1.000000
  0.000000  0.000000  0.333333      2.000000
  0.500000  0.000000  0.333333      2.000000
  0.000000  0.500000  0.333333      2.000000
  0.500000  0.500000  0.333333      2.000000
 
 Following cartesian coordinates:
            Coordinates               Weight
  0.000000  0.000000  0.000000      1.000000
  0.034320  0.000000  0.000000      1.000000
  0.000000  0.034320  0.000000      1.000000
  0.034320  0.034320  0.000000      1.000000
  0.000000  0.000000  0.030459      2.000000
  0.034320  0.000000  0.030459      2.000000
  0.000000  0.034320  0.030459      2.000000
  0.034320  0.034320  0.030459      2.000000
 


--------------------------------------------------------------------------------------------------------




 Dimension of arrays:
   k-points           NKPTS =      8   k-points in BZ     NKDIM =      8   number of bands    NBANDS=    264
   number of dos      NEDOS =   2000   number of ions     NIONS =    120
   non local maximal  LDIM  =      4   non local SUM 2l+1 LMDIM =      8
   total plane-waves  NPLWV = ******
   max r-space proj   IRMAX =      1   max aug-charges    IRDMAX= 409665
   dimension x,y,z NGX =   168 NGY =  168 NGZ =  126
   dimension x,y,z NGXF=   336 NGYF=  336 NGZF=  252
   support grid    NGXF=   672 NGYF=  672 NGZF=  504
   ions per type =              26  94
   NGX,Y,Z   is equivalent  to a cutoff of  19.17, 19.17, 19.14 a.u.
   NGXF,Y,Z  is equivalent  to a cutoff of  38.34, 38.34, 38.28 a.u.

 SYSTEM =  a-Si SPC                                
 POSCAR =   H Si                                   

 Startparameter for this run:
   NWRITE =      2    write-flag & timer
   PREC   = accura    normal or accurate (medium, high low for compatibility)
   ISTART =      1    job   : 0-new  1-cont  2-samecut
   ICHARG =      1    charge: 1-file 2-atom 10-const
   ISPIN  =      1    spin polarized calculation?
   LNONCOLLINEAR =      F non collinear calculations
   LSORBIT =      F    spin-orbit coupling
   INIWAV =      1    electr: 0-lowe 1-rand  2-diag
   LASPH  =      T    aspherical Exc in radial PAW
 Electronic Relaxation 1
   ENCUT  = 1200.0 eV  88.20 Ry    9.39 a.u.  41.15 41.15 30.91*2*pi/ulx,y,z
   ENINI  = 1200.0     initial cutoff
   ENAUG  =  400.0 eV  augmentation charge cutoff
   NELM   =    150;   NELMIN=  2; NELMDL=  0     # of ELM steps 
   EDIFF  = 0.1E-05   stopping-criterion for ELM
   LREAL  =      F    real-space projection
   NLSPLINE    = F    spline interpolate recip. space projectors
   LCOMPAT=      F    compatible to vasp.4.4
   GGA_COMPAT  = T    GGA compatible to vasp.4.4-vasp.4.6
   LMAXPAW     = -100 max onsite density
   LMAXMIX     =    2 max onsite mixed and CHGCAR
   VOSKOWN=      0    Vosko Wilk Nusair interpolation
   ROPT   =    0.00000   0.00000
 Ionic relaxation
   EDIFFG = -.1E-01   stopping-criterion for IOM
   NSW    =      0    number of steps for IOM
   NBLOCK =      1;   KBLOCK =      1    inner block; outer block 
   IBRION =     -1    ionic relax: 0-MD 1-quasi-New 2-CG
   NFREE  =      0    steps in history (QN), initial steepest desc. (CG)
   ISIF   =      2    stress and relaxation
   IWAVPR =     10    prediction:  0-non 1-charg 2-wave 3-comb
   ISYM   =      1    0-nonsym 1-usesym 2-fastsym
   LCORR  =      T    Harris-Foulkes like correction to forces

   POTIM  = 0.5000    time-step for ionic-motion
   TEIN   =    0.0    initial temperature
   TEBEG  =    0.0;   TEEND  =   0.0 temperature during run
   SMASS  =  -3.00    Nose mass-parameter (am)
   estimated Nose-frequenzy (Omega)   =  0.10E-29 period in steps = 0.13E+47 mass=  -0.485E-26a.u.
   SCALEE = 1.0000    scale energy and forces
   NPACO  =    256;   APACO  = 10.0  distance and # of slots for P.C.
   PSTRESS=    0.0 pullay stress

  Mass of Ions in am
   POMASS =   1.00 28.09
  Ionic Valenz
   ZVAL   =   1.00  4.00
  Atomic Wigner-Seitz radii
   RWIGS  =  -1.00 -1.00
  virtual crystal weights 
   VCA    =   1.00  1.00
   NELECT =     402.0000    total number of electrons
   NUPDOWN=      -1.0000    fix difference up-down

 DOS related values:
   EMIN   =  10.00;   EMAX   =-10.00  energy-range for DOS
   EFERMI =   0.00;   METHOD = LEGACY      
   ISMEAR =     0;   SIGMA  =   0.10  broadening in eV -4-tet -1-fermi 0-gaus
   EFERMI_NEDOS =   21; number of points for ismear=-14 and -15

 Electronic relaxation 2 (details)
   IALGO  =     38    algorithm
   LDIAG  =      F    sub-space diagonalisation (order eigenvalues)
   LSUBROT=      F    optimize rotation matrix (better conditioning)
   TURBO    =      0    0=normal 1=particle mesh
   IRESTART =      0    0=no restart 2=restart with 2 vectors
   NREBOOT  =      0    no. of reboots
   NMIN     =      0    reboot dimension
   EREF     =   0.00    reference energy to select bands
   IMIX   =      4    mixing-type and parameters
     AMIX     =   0.40;   BMIX     =  1.00
     AMIX_MAG =   1.60;   BMIX_MAG =  1.00
     AMIN     =   0.10
     WC   =   100.;   INIMIX=   1;  MIXPRE=   1;  MAXMIX= -45

 Intra band minimization:
   WEIMIN = 0.0000     energy-eigenvalue tresh-hold
   EBREAK =  0.95E-09  absolut break condition
   DEPER  =   0.30     relativ break condition  

   TIME   =   0.40     timestep for ELM

  volume/ion in A,a.u.               =      19.36       130.63
  Fermi-wavevector in a.u.,A,eV,Ry     =   0.912318  1.724031 11.324455  0.832324
  Thomas-Fermi vector in A             =   2.036700

 Write flags
   LWAVE        =      F    write WAVECAR
   LDOWNSAMPLE  =      F    k-point downsampling of WAVECAR
   LCHARG       =      F    write CHGCAR
   LVTOT        =      F    write LOCPOT, total local potential
   LVHAR        =      F    write LOCPOT, Hartree potential only
   WRT_POTENTIAL= false  ! write potential to hdf5 file
   LELF         =      F    write electronic localiz. function (ELF)
   LORBIT       =     11    0 simple, 1 ext, 2 COOP (PROOUT), +10 PAW based schemes


 Python interface
   PLUGINS active      =      F    recompile with -DPLUGINS to activate

 Dipole corrections
   LMONO      =      F    monopole corrections only (constant potential shift)
   LDIPOL     =      F    correct potential (dipole corrections)
   IDIPOL     =      0    1-x, 2-y, 3-z, 4-all directions 
   EPSILON    =  1.0000000 bulk dielectric constant
   LVACPOTAV  =      F  vacuum potentials using an averaging scheme for the charge density
   VACPOTFLAT =  0.1000000 required flatness to determine vacuum potential

Coulomb truncation method
  LTRUNCATE          =      F  Coulomb kernel truncation to be used
  IDIMENSIONALITY    =      3  Dimensionality of cutoff (0 molecules / 2 surfaces)
  ISURFACE           =     -1  Direction of surface normal
  LCOARSEN           =      F  Coarsen the charge grid before padding, preferred


 Exchange correlation treatment:
   METAGGA = SCAN    functional components
   XC_C    = 1    coefficients multiplying the functional components
   LIBXC   =     F    Libxc                    
   VOSKOWN =     0    Vosko Wilk Nusair interpolation
   LHFCALC =     F    Hartree Fock is set to
   LHFONE  =     F    Hartree Fock one center treatment
   AEXX    =    0.0000 exact exchange contribution

 Parameters of functionals:
   SCAN:
     P1 =  0.000000E+00
     P2 =  0.000000E+00
     P3 =  0.000000E+00

 Accuracy and mixing parameters for tau-dependent meta-GGA functionals:
   LMAXTAU = 6
   LMIXTAU = T

 Van der Waals corrections
   IVDW    =     0    specifies the selected vdW correction

 Linear response parameters
   LEPSILON=     F    determine dielectric tensor
   LRPA    =     F    only Hartree local field effects (RPA)
   LNABLA  =     F    use nabla operator in PAW spheres
   LVEL    =     F    velocity operator in full k-point grid
   CSHIFT  =0.1000    complex shift for real part using Kramers Kronig
   OMEGAMAX=  -1.0    maximum frequency
   DEG_THRESHOLD= 0.2000000E-02 threshold for treating states as degnerate
   RTIME   =   -0.100 relaxation time in fs
  (WPLASMAI=    0.000 imaginary part of plasma frequency in eV, 0.658/RTIME)
   DFIELD  = 0.0000000 0.0000000 0.0000000 field for delta impulse in time

  Optional k-point grid parameters
   LKPOINTS_OPT  =     F    use optional k-point grid
   KPOINTS_OPT_MODE=     1    mode for optional k-point grid

 Orbital magnetization related:
   ORBITALMAG=     F  switch on orbital magnetization
   LCHIMAG   =     F  perturbation theory with respect to B field
   DQ        =  0.001000  dq finite difference perturbation B field
   LLRAUG    =     F  two centre corrections for induced B field
   LBONE     =     F  B-component reconstruction in AE one-centre
   LVGVCALC  =     T  calculate vGv susceptibility
   LVGVAPPL  =     F  apply vGv susceptibility instead of pGv for G=0

 Random number generation:
   RANDOM_GENERATOR = DEFAULT
   PCG_SEED         = not used


--------------------------------------------------------------------------------------------------------


 Static calculation
 charge density and potential will be updated during run
 non-spin polarized calculation
 Variant of blocked Davidson
 perform Loewdin sub-space diagonalisation
    ordering is kept fixed
    before iterative eigenvector-optimisation
 modified Broyden-mixing scheme, WC =      100.0
 initial mixing is a Kerker type mixing with AMIX =  0.4000 and BMIX =      1.0000
 Hartree-type preconditioning will be used
 using additional bands           63
 reciprocal scheme for non local part
 use partial core corrections
 calculate Harris-corrections to forces   (improved forces if not selfconsistent)
 use gradient corrections 
 use of overlap-Matrix (Vanderbilt PP)
 Gauss-broadening in eV      SIGMA  =   0.10


--------------------------------------------------------------------------------------------------------


  energy-cutoff  :     1200.00
  volume of cell :     2322.80
      direct lattice vectors                 reciprocal lattice vectors
    14.568798782  0.000000000  0.000000000     0.068639839  0.000000000  0.000000000
     0.000000000 14.568798782  0.000000000     0.000000000  0.068639839  0.000000000
     0.000000000  0.000000000 10.943707061     0.000000000  0.000000000  0.091376715

  length of vectors
    14.568798782 14.568798782 10.943707061     0.068639839  0.068639839  0.091376715



 old parameters found on file WAVECAR:
  energy-cutoff  :     1200.00
  volume of cell :     2322.80
      direct lattice vectors                 reciprocal lattice vectors
    14.568798782  0.000000000  0.000000000     0.068639839  0.000000000  0.000000000
     0.000000000 14.568798782  0.000000000     0.000000000  0.068639839  0.000000000
     0.000000000  0.000000000 10.943707061     0.000000000  0.000000000  0.091376715

  length of vectors


 k-points in units of 2pi/SCALE and weight: read from INCAR                         
   0.00000000  0.00000000  0.00000000       0.083
   0.03431992  0.00000000  0.00000000       0.083
   0.00000000  0.03431992  0.00000000       0.083
   0.03431992  0.03431992  0.00000000       0.083
   0.00000000  0.00000000  0.03045890       0.167
   0.03431992  0.00000000  0.03045890       0.167
   0.00000000  0.03431992  0.03045890       0.167
   0.03431992  0.03431992  0.03045890       0.167

 k-points in reciprocal lattice and weights: read from INCAR                         
   0.00000000  0.00000000  0.00000000       0.083
   0.50000000  0.00000000  0.00000000       0.083
   0.00000000  0.50000000  0.00000000       0.083
   0.50000000  0.50000000  0.00000000       0.083
   0.00000000  0.00000000  0.33333333       0.167
   0.50000000  0.00000000  0.33333333       0.167
   0.00000000  0.50000000  0.33333333       0.167
   0.50000000  0.50000000  0.33333333       0.167

 position of ions in fractional coordinates (direct lattice) 
   0.37713267  0.46035093  0.23316779
   0.09545193  0.68924008  0.68238669
   0.30837546  0.71482901  0.69207445
   0.36618187  0.66899888  0.06518988
   0.17230727  0.77841696  0.63486805
   0.48095249  0.61246504  0.23475409
   0.46593134  0.59213667  0.29683543
   0.17902094  0.55263376  0.94056794
   0.35402370  0.56709548  0.80607878
   0.34910153  0.66383785  0.00456221
   0.45520156  0.70374368  0.77417825
   0.43554311  0.55321582  0.67803167
   0.27278913  0.86301556  0.01323546
   0.57241233  0.72417776  0.95914483
   0.30911814  0.67683960  0.64071068
   0.25843860  0.57375218  0.20625369
   0.27446051  0.77388673  0.20226875
   0.42901066  0.81664935  0.28140282
   0.33383260  0.58884745  0.86846623
   0.44627976  0.74303312  0.81628464
   0.34784062  0.51854584  0.04103500
   0.28409000  0.72231075  0.21817013
   0.10354663  0.72137039  0.92491511
   0.36238266  0.70677756  0.42271965
   0.38379279  0.74661612  0.47119134
   0.38143090  0.58231911  0.48590482
   0.18120162  0.06404811  0.40008015
   0.25489336  0.10832808  0.58167036
   0.76110599  0.59073710  0.66209923
   0.62317080  0.99339693  0.00627945
   0.70911817  0.28647249  0.47242401
   0.74277229  0.91294418  0.25976390
   0.62332181  0.83264243  0.58925645
   0.11967013  0.14742190  0.69440272
   0.99227810  0.00380812  0.08300259
   0.35047296  0.22432186  0.34430838
   0.79152717  0.36700349  0.88775494
   0.06770139  0.93614444  0.76373298
   0.61758146  0.98441198  0.64248339
   0.81311439  0.09208103  0.83836583
   0.64323834  0.81485098  0.37902604
   0.52499181  0.99223692  0.81989585
   0.36406708  0.05297767  0.10493336
   0.01456462  0.90461130  0.26191765
   0.77124409  0.03868898  0.62444745
   0.03222428  0.75904679  0.20904160
   0.28102111  0.95653047  0.97200153
   0.86083281  0.79722427  0.69561347
   0.50510959  0.99381563  0.16369225
   0.55116418  0.43268289  0.98382568
   0.12498148  0.16567461  0.89448758
   0.02636676  0.62028793  0.63249866
   0.19366044  0.35761493  0.13756764
   0.00546296  0.02492944  0.58466934
   0.64363714  0.43833744  0.16098658
   0.96641461  0.15840977  0.16090708
   0.50060133  0.87784176  0.31556126
   0.67636873  0.73857839  0.93773526
   0.78911791  0.15038920  0.46559909
   0.59794635  0.35809473  0.34060305
   0.85713312  0.47733517  0.75004018
   0.49606492  0.25625517  0.27308388
   0.00296228  0.63107399  0.31184954
   0.70897403  0.74225749  0.72001562
   0.00492034  0.24673482  0.98600958
   0.40493798  0.50080793  0.55662400
   0.99555909  0.55427974  0.82696201
   0.24644310  0.27121454  0.96340298
   0.87578257  0.85867752  0.35015831
   0.95487625  0.84698129  0.85288102
   0.06564611  0.18023243  0.32994030
   0.87327035  0.92521012  0.56081088
   0.01600811  0.74054836  0.99741339
   0.16502871  0.37972794  0.48575588
   0.55635335  0.44625711  0.51483377
   0.48055987  0.14024766  0.83486792
   0.94203374  0.27077318  0.62911406
   0.68902729  0.53554587  0.49075692
   0.32568711  0.06481049  0.30730629
   0.88437628  0.23849530  0.83792082
   0.73249004  0.88775336  0.04298626
   0.12389971  0.00867134  0.94276098
   0.85750378  0.70374368  0.37376275
   0.41661980  0.97224213  0.45215026
   0.76199831  0.61217127  0.98203469
   0.05435287  0.51073806  0.48118064
   0.50032883  0.19499068  0.63227295
   0.12232580  0.47555534  0.88867967
   0.59377442  0.21981977  0.95177072
   0.61127071  0.31594575  0.63457382
   0.69837604  0.66006815  0.36303877
   0.56219597  0.10164119  0.29945611
   0.84289036  0.45030686  0.23626272
   0.09705124  0.94083254  0.44498450
   0.72838538  0.56883894  0.18521969
   0.31066116  0.95977027  0.61698563
   0.30161924  0.48492605  0.15508639
   0.80776735  0.17522721  0.15349186
   0.09725785  0.29919694  0.64722310
   0.88532350  0.66934482  0.57715178
   0.96430050  0.51750595  0.15536417
   0.05413473  0.39276608  0.05655277
   0.63355944  0.35782566  0.83817211
   0.35394545  0.23140274  0.56485065
   0.92558763  0.42122896  0.56940395
   0.72225584  0.08334043  0.29073695
   0.19198288  0.28211180  0.31568919
   0.94685912  0.16888146  0.47705407
   0.91702825  0.61696233  0.98784625
   0.20371137  0.36943265  0.79597799
   0.71235798  0.12466985  0.99702047
   0.37614357  0.18095452  0.97858979
   0.52996339  0.07347346  0.50568605
   0.17043341  0.87603653  0.61551538
   0.36974977  0.94792304  0.80120840
   0.48146591  0.28930319  0.07177084
   0.29630652  0.38854816  0.60873249
   0.79619467  0.42134428  0.42750322
   0.77528698  0.33976034  0.10166299
   0.86864402  0.95851417  0.95531614

 position of ions in cartesian coordinates  (Angst):
   5.49437000  6.70676000  2.55172000
   1.39062000 10.04140000  7.46784000
   4.49266000 10.41420000  7.57386000
   5.33483000  9.74651000  0.71341900
   2.51031000 11.34060000  6.94781000
   7.00690000  8.92288000  2.56908000
   6.78806000  8.62672000  3.24848000
   2.60812000  8.05121000 10.29330000
   5.15770000  8.26190000  8.82149000
   5.08599000  9.67132000  0.04992750
   6.63174000 10.25270000  8.47238000
   6.34534000  8.05969000  7.42018000
   3.97421000 12.57310000  0.14484500
   8.33936000 10.55040000 10.49660000
   4.50348000  9.86074000  7.01175000
   3.76514000  8.35888000  2.25718000
   3.99856000 11.27460000  2.21357000
   6.25017000 11.89760000  3.07959000
   4.86354000  8.57880000  9.50424000
   6.50176000 10.82510000  8.93318000
   5.06762000  7.55459000  0.44907500
   4.13885000 10.52320000  2.38759000
   1.50855000 10.50950000 10.12200000
   5.27948000 10.29690000  4.62612000
   5.59140000 10.87730000  5.15658000
   5.55699000  8.48369000  5.31760000
   2.63989000  0.93310400  4.37836000
   3.71349000  1.57821000  6.36563000
  11.08840000  8.60633000  7.24582000
   9.07885000 14.47260000  0.06872050
  10.33100000  4.17356000  5.17007000
  10.82130000 13.30050000  2.84278000
   9.08105000 12.13060000  6.44865000
   1.74345000  2.14776000  7.59934000
  14.45630000  0.05547980  0.90835600
   5.10597000  3.26810000  3.76801000
  11.53160000  5.34680000  9.71533000
   0.98632800 13.63850000  8.35807000
   8.99742000 14.34170000  7.03115000
  11.84610000  1.34151000  9.17483000
   9.37121000 11.87140000  4.14795000
   7.64850000 14.45570000  8.97270000
   5.30402000  0.77182100  1.14836000
   0.21218900 13.17910000  2.86635000
  11.23610000  0.56365200  6.83377000
   0.46946900 11.05840000  2.28769000
   4.09414000 13.93550000 10.63730000
  12.54130000 11.61460000  7.61259000
   7.35884000 14.47870000  1.79140000
   8.02980000  6.30367000 10.76670000
   1.82083000  2.41368000  9.78901000
   0.38413200  9.03685000  6.92188000
   2.82140000  5.21002000  1.50550000
   0.07958880  0.36319200  6.39845000
   9.37702000  6.38605000  1.76179000
  14.07950000  2.30784000  1.76092000
   7.29316000 12.78910000  3.45341000
   9.85388000 10.76020000 10.26230000
  11.49650000  2.19099000  5.09538000
   8.71136000  5.21701000  3.72746000
  12.48740000  6.95420000  8.20822000
   7.22707000  3.73333000  2.98855000
   0.04315680  9.19399000  3.41279000
  10.32890000 10.81380000  7.87964000
   0.07168350  3.59463000 10.79060000
   5.89946000  7.29617000  6.09153000
  14.50410000  8.07519000  9.05003000
   3.59038000  3.95127000 10.54320000
  12.75910000 12.50990000  3.83203000
  13.91140000 12.33950000  9.33368000
   0.95638500  2.62577000  3.61077000
  12.72250000 13.47920000  6.13735000
   0.23321900 10.78890000 10.91540000
   2.40427000  5.53218000  5.31597000
   8.10540000  6.50143000  5.63419000
   7.00118000  2.04324000  9.13655000
  13.72430000  3.94484000  6.88484000
  10.03830000  7.80226000  5.37070000
   4.74487000  0.94421100  3.36307000
  12.88430000  3.47459000  9.16996000
  10.67150000 12.93350000  0.47042900
   1.80507000  0.12633100 10.31730000
  12.49280000 10.25270000  4.09035000
   6.06965000 14.16440000  4.94820000
  11.10140000  8.91860000 10.74710000
   0.79185600  7.44084000  5.26590000
   7.28919000  2.84078000  6.91941000
   1.78214000  6.92827000  9.72545000
   8.65058000  3.20251000 10.41590000
   8.90548000  4.60295000  6.94459000
  10.17450000  9.61640000  3.97299000
   8.19052000  1.48079000  3.27716000
  12.27990000  6.56043000  2.58559000
   1.41392000 13.70680000  4.86978000
  10.61170000  8.28730000  2.02699000
   4.52596000 13.98270000  6.75211000
   4.39423000  7.06479000  1.69722000
  11.76820000  2.55285000  1.67977000
   1.41693000  4.35894000  7.08302000
  12.89810000  9.75155000  6.31618000
  14.04870000  7.53944000  1.70026000
   0.78867800  5.72213000  0.61889700
   9.23020000  5.21309000  9.17271000
   5.15656000  3.37126000  6.18156000
  13.48470000  6.13680000  6.23139000
  10.52240000  1.21417000  3.18174000
   2.79696000  4.11003000  3.45481000
  13.79460000  2.46040000  5.22074000
  13.36000000  8.98840000 10.81070000
   2.96783000  5.38219000  8.71095000
  10.37820000  1.81629000 10.91110000
   5.47996000  2.63629000 10.70940000
   7.72093000  1.07042000  5.53408000
   2.48301000 12.76280000  6.73602000
   5.38681000 13.81010000  8.76819000
   7.01438000  4.21480000  0.78543900
   4.31683000  5.66068000  6.66179000
  11.59960000  6.13848000  4.67847000
  11.29500000  4.94990000  1.11257000
  12.65510000 13.96440000 10.45470000



--------------------------------------------------------------------------------------------------------


 k-point     1 :   0.0000 0.0000 0.0000  plane waves:  219125
 k-point     2 :   0.5000 0.0000 0.0000  plane waves:  219194
 k-point     3 :   0.0000 0.5000 0.0000  plane waves:  219194
 k-point     4 :   0.5000 0.5000 0.0000  plane waves:  219188
 k-point     5 :   0.0000 0.0000 0.3333  plane waves:  219282
 k-point     6 :   0.5000 0.0000 0.3333  plane waves:  219210
 k-point     7 :   0.0000 0.5000 0.3333  plane waves:  219210
 k-point     8 :   0.5000 0.5000 0.3333  plane waves:  219316

 maximum and minimum number of plane-waves per node :     13764    13642

 maximum number of plane-waves:    219316
 maximum index in each direction: 
   IXMAX=   41   IYMAX=   41   IZMAX=   30
   IXMIN=  -41   IYMIN=  -41   IZMIN=  -31


 parallel 3D FFT for wavefunctions:
    minimum data exchange during FFTs selected (reduces bandwidth)
 parallel 3D FFT for charge:
    minimum data exchange during FFTs selected (reduces bandwidth)


 total amount of memory used by VASP MPI-rank0   204770. kBytes
=======================================================================

   base                                    :      30000. kBytes
   nonl-proj                               :      40391. kBytes
   fftplans                                :      42984. kBytes
   grid                                    :      33148. kBytes
   one-center                              :         24. kBytes
   wavefun                                 :      58223. kBytes

     INWAV:  cpu time     11.1271: real time     11.1322
 Broyden mixing: mesh for mixing (old mesh)
   NGX = 83   NGY = 83   NGZ = 61
  (NGX  =336   NGY  =336   NGZ  =252)
  gives a total of 420229 points

 initial charge density was supplied:
 number of electron     401.9999999 magnetization 
 keeping initial charge density in first step


--------------------------------------------------------------------------------------------------------


 Maximum index for augmentation-charges        11190 (set IRDMAX)


--------------------------------------------------------------------------------------------------------


 First call to EWALD:  gamma=   0.134
 Maximum number of real-space cells   3x   3x   3
 Maximum number of reciprocal cells   3x   3x   2

    FEWALD:  cpu time      0.0200: real time      0.0201


--------------------------------------- Ionic step        1  -------------------------------------------




--------------------------------------- Iteration      1(   1)  ---------------------------------------


    POTLOK:  cpu time      0.7624: real time      0.7632
    SETDIJ:  cpu time      1.4785: real time      1.4793
    EDDIAG:  cpu time     23.6103: real time     23.6291
     EDDAV:  cpu time    116.4996: real time    116.6087
       DOS:  cpu time      0.0100: real time      0.0104
    CHARGE:  cpu time     10.8506: real time     10.8597
    MIXING:  cpu time      0.0254: real time      0.0262
    --------------------------------------------
      LOOP:  cpu time    153.2369: real time    153.3767

 eigenvalue-minimisations  :  4472
 total energy-change (2. order) :-0.1065960E+04  (-0.1156763E+01)
 number of electron     401.9999999 magnetization 
 augmentation part      -20.4860816 magnetization 

 Broyden mixing:
  rms(total) = 0.12648E+01    rms(broyden)= 0.50666E+02
  rms(prec ) = 0.13683E+01
  weight for this iteration     100.00
  WARNING: grid for Broyden might be to small

 Free energy of the ion-electron system (eV)
  ---------------------------------------------------
  alpha Z        PSCENC =       147.87253094
  Ewald energy   TEWEN  =     -8414.94664483
  -Hartree energ DENC   =     -2785.03841396
  -exchange      EXHF   =         0.00000000
  -V(xc)+E(xc)   XCENC  =      -371.78661524
  PAW double counting   =     38054.99715396   -37118.98166142
  entropy T*S    EENTRO =        -0.10836409
  eigenvalues    EBANDS =      -590.94754501
  atomic energy  EATOM  =     10012.97997727
  Solvation  Ediel_sol  =         0.00000000
  ---------------------------------------------------
  free energy    TOTEN  =     -1065.95958238 eV

  energy without entropy =    -1065.85121830  energy(sigma->0) =    -1065.90540034


--------------------------------------------------------------------------------------------------------




--------------------------------------- Iteration      1(   2)  ---------------------------------------


    POTLOK:  cpu time      0.7448: real time      0.7721
    SETDIJ:  cpu time      1.4611: real time      1.4618
    EDDIAG:  cpu time     23.8398: real time     23.8604
     EDDAV:  cpu time    113.6233: real time    113.7227
       DOS:  cpu time      0.0038: real time      0.0038
    CHARGE:  cpu time     10.6283: real time     10.6374
    MIXING:  cpu time      0.0171: real time      0.0173
    --------------------------------------------
      LOOP:  cpu time    150.3181: real time    150.4754

 eigenvalue-minimisations  :  4256
 total energy-change (2. order) : 0.7181721E+02  (-0.1122982E+01)
 number of electron     401.9999999 magnetization 
 augmentation part      -20.3989910 magnetization 

 Broyden mixing:
  rms(total) = 0.84136E+00    rms(broyden)= 0.29208E+02
  rms(prec ) = 0.89483E+00
  weight for this iteration     100.00
  WARNING: grid for Broyden might be to small

 eigenvalues of (default mixing * dielectric matrix)
  average eigenvalue GAMMA=   0.6343
  0.6343

 Free energy of the ion-electron system (eV)
  ---------------------------------------------------
  alpha Z        PSCENC =       147.87253094
  Ewald energy   TEWEN  =     -8414.94664483
  -Hartree energ DENC   =     -2774.12061009
  -exchange      EXHF   =         0.00000000
  -V(xc)+E(xc)   XCENC  =      -363.13810489
  PAW double counting   =     45566.87465522   -44630.58007954
  entropy T*S    EENTRO =        -0.10607860
  eigenvalues    EBANDS =      -538.97801569
  atomic energy  EATOM  =     10012.97997727
  Solvation  Ediel_sol  =         0.00000000
  ---------------------------------------------------
  free energy    TOTEN  =      -994.14237021 eV

  energy without entropy =     -994.03629161  energy(sigma->0) =     -994.08933091


--------------------------------------------------------------------------------------------------------




--------------------------------------- Iteration      1(   3)  ---------------------------------------


    POTLOK:  cpu time      0.7504: real time      0.7745
    SETDIJ:  cpu time      1.4600: real time      1.4608
    EDDIAG:  cpu time     23.7911: real time     23.8114
     EDDAV:  cpu time    112.9174: real time    113.0236
       DOS:  cpu time      0.0039: real time      0.0039
    CHARGE:  cpu time     10.6405: real time     10.6505
    MIXING:  cpu time      0.0146: real time      0.0146
    --------------------------------------------
      LOOP:  cpu time    149.5779: real time    149.7392

 eigenvalue-minimisations  :  4224
 total energy-change (2. order) :-0.3190958E+01  (-0.8279616E+00)
 number of electron     401.9999999 magnetization 
 augmentation part      -20.3406817 magnetization 

 Broyden mixing:
  rms(total) = 0.48770E+00    rms(broyden)= 0.22435E+02
  rms(prec ) = 0.54168E+00
  weight for this iteration     100.00
  WARNING: grid for Broyden might be to small

 eigenvalues of (default mixing * dielectric matrix)
  average eigenvalue GAMMA=   0.7060
  0.7893  0.6227

 Free energy of the ion-electron system (eV)
  ---------------------------------------------------
  alpha Z        PSCENC =       147.87253094
  Ewald energy   TEWEN  =     -8414.94664483
  -Hartree energ DENC   =     -2778.44913163
  -exchange      EXHF   =         0.00000000
  -V(xc)+E(xc)   XCENC  =      -367.98562434
  PAW double counting   =     51709.62253651   -50773.41708241
  entropy T*S    EENTRO =        -0.10922837
  eigenvalues    EBANDS =      -532.90066182
  atomic energy  EATOM  =     10012.97997727
  Solvation  Ediel_sol  =         0.00000000
  ---------------------------------------------------
  free energy    TOTEN  =      -997.33332869 eV

  energy without entropy =     -997.22410032  energy(sigma->0) =     -997.27871450


--------------------------------------------------------------------------------------------------------




--------------------------------------- Iteration      1(   4)  ---------------------------------------


    POTLOK:  cpu time      0.7711: real time      0.7721
    SETDIJ:  cpu time      1.4605: real time      1.4611
    EDDIAG:  cpu time     23.8237: real time     23.8458
     EDDAV:  cpu time    116.6949: real time    116.7985
       DOS:  cpu time      0.0036: real time      0.0036
    CHARGE:  cpu time     10.7562: real time     10.7650
    MIXING:  cpu time      0.0148: real time      0.0148
    --------------------------------------------
      LOOP:  cpu time    153.5248: real time    153.6610

 eigenvalue-minimisations  :  4464
 total energy-change (2. order) :-0.3880633E+00  (-0.8483859E-01)
 number of electron     401.9999999 magnetization 
 augmentation part      -20.3292186 magnetization 

 Broyden mixing:
  rms(total) = 0.52259E-01    rms(broyden)= 0.22997E+01
  rms(prec ) = 0.88266E-01
  weight for this iteration     100.00
  WARNING: grid for Broyden might be to small

 eigenvalues of (default mixing * dielectric matrix)
  average eigenvalue GAMMA=   0.9817
  1.6256  0.6999  0.6195

 Free energy of the ion-electron system (eV)
  ---------------------------------------------------
  alpha Z        PSCENC =       147.87253094
  Ewald energy   TEWEN  =     -8414.94664483
  -Hartree energ DENC   =     -2785.74815179
  -exchange      EXHF   =         0.00000000
  -V(xc)+E(xc)   XCENC  =      -368.16353771
  PAW double counting   =     60568.18900083   -59632.04655686
  entropy T*S    EENTRO =        -0.10091918
  eigenvalues    EBANDS =      -525.75709062
  atomic energy  EATOM  =     10012.97997727
  Solvation  Ediel_sol  =         0.00000000
  ---------------------------------------------------
  free energy    TOTEN  =      -997.72139196 eV

  energy without entropy =     -997.62047278  energy(sigma->0) =     -997.67093237


--------------------------------------------------------------------------------------------------------




--------------------------------------- Iteration      1(   5)  ---------------------------------------


    POTLOK:  cpu time      0.7517: real time      0.7687
    SETDIJ:  cpu time      1.4597: real time      1.4608
    EDDIAG:  cpu time     23.8183: real time     23.8396
     EDDAV:  cpu time    126.4248: real time    126.5410
       DOS:  cpu time      0.0060: real time      0.0060
    CHARGE:  cpu time     10.5286: real time     10.5383
    MIXING:  cpu time      0.0151: real time      0.0151
    --------------------------------------------
      LOOP:  cpu time    163.0042: real time    163.1695

 eigenvalue-minimisations  :  5088
 total energy-change (2. order) :-0.3586565E-01  (-0.7133942E-02)
 number of electron     401.9999999 magnetization 
 augmentation part      -20.3304194 magnetization 

 Broyden mixing:
  rms(total) = 0.47188E-01    rms(broyden)= 0.62113E+00
  rms(prec ) = 0.84135E-01
  weight for this iteration     100.00
  WARNING: grid for Broyden might be to small

 eigenvalues of (default mixing * dielectric matrix)
  average eigenvalue GAMMA=   1.0446
  2.2181  0.7778  0.6227  0.5596

 Free energy of the ion-electron system (eV)
  ---------------------------------------------------
  alpha Z        PSCENC =       147.87253094
  Ewald energy   TEWEN  =     -8414.94664483
  -Hartree energ DENC   =     -2785.88205170
  -exchange      EXHF   =         0.00000000
  -V(xc)+E(xc)   XCENC  =      -369.29214617
  PAW double counting   =     60441.18550560   -59505.01916873
  entropy T*S    EENTRO =        -0.11226625
  eigenvalues    EBANDS =      -524.54299373
  atomic energy  EATOM  =     10012.97997727
  Solvation  Ediel_sol  =         0.00000000
  ---------------------------------------------------
  free energy    TOTEN  =      -997.75725761 eV

  energy without entropy =     -997.64499136  energy(sigma->0) =     -997.70112448


--------------------------------------------------------------------------------------------------------




--------------------------------------- Iteration      1(   6)  ---------------------------------------


    POTLOK:  cpu time      0.7410: real time      0.7699
    SETDIJ:  cpu time      1.4593: real time      1.4599
    EDDIAG:  cpu time     23.8013: real time     23.8231
     EDDAV:  cpu time    122.7847: real time    122.8903
       DOS:  cpu time      0.0040: real time      0.0040
    CHARGE:  cpu time     10.5682: real time     10.5764
    MIXING:  cpu time      0.0152: real time      0.0152
    --------------------------------------------
      LOOP:  cpu time    159.3738: real time    159.5389

 eigenvalue-minimisations  :  4848
 total energy-change (2. order) : 0.4279388E-03  (-0.2172096E-02)
 number of electron     401.9999999 magnetization 
 augmentation part      -20.3313927 magnetization 

 Broyden mixing:
  rms(total) = 0.22361E-01    rms(broyden)= 0.29458E+00
  rms(prec ) = 0.26998E-01
  weight for this iteration     100.00
  WARNING: grid for Broyden might be to small

 eigenvalues of (default mixing * dielectric matrix)
  average eigenvalue GAMMA=   1.0474
  2.5678  0.9689  0.6470  0.6299  0.4235

 Free energy of the ion-electron system (eV)
  ---------------------------------------------------
  alpha Z        PSCENC =       147.87253094
  Ewald energy   TEWEN  =     -8414.94664483
  -Hartree energ DENC   =     -2786.24355675
  -exchange      EXHF   =         0.00000000
  -V(xc)+E(xc)   XCENC  =      -369.59703510
  PAW double counting   =     60283.87925943   -59347.69852264
  entropy T*S    EENTRO =        -0.10582184
  eigenvalues    EBANDS =      -523.89701613
  atomic energy  EATOM  =     10012.97997727
  Solvation  Ediel_sol  =         0.00000000
  ---------------------------------------------------
  free energy    TOTEN  =      -997.75682967 eV

  energy without entropy =     -997.65100783  energy(sigma->0) =     -997.70391875


--------------------------------------------------------------------------------------------------------




--------------------------------------- Iteration      1(   7)  ---------------------------------------


    POTLOK:  cpu time      0.7456: real time      0.7693
    SETDIJ:  cpu time      1.4629: real time      1.4637
    EDDIAG:  cpu time     23.8573: real time     23.8775
     EDDAV:  cpu time    118.9998: real time    119.1079
       DOS:  cpu time      0.0045: real time      0.0044
    CHARGE:  cpu time     10.5269: real time     10.5364
    MIXING:  cpu time      0.0153: real time      0.0153
    --------------------------------------------
      LOOP:  cpu time    155.6122: real time    155.7745

 eigenvalue-minimisations  :  4600
 total energy-change (2. order) :-0.1207663E-02  (-0.6971695E-03)
 number of electron     401.9999999 magnetization 
 augmentation part      -20.3298407 magnetization 

 Broyden mixing:
  rms(total) = 0.11813E-01    rms(broyden)= 0.14485E+00
  rms(prec ) = 0.14127E-01
  weight for this iteration     100.00
  WARNING: grid for Broyden might be to small

 eigenvalues of (default mixing * dielectric matrix)
  average eigenvalue GAMMA=   1.0552
  2.5652  1.2341  0.8525  0.6414  0.6294  0.4086

 Free energy of the ion-electron system (eV)
  ---------------------------------------------------
  alpha Z        PSCENC =       147.87253094
  Ewald energy   TEWEN  =     -8414.94664483
  -Hartree energ DENC   =     -2786.82906737
  -exchange      EXHF   =         0.00000000
  -V(xc)+E(xc)   XCENC  =      -369.53650275
  PAW double counting   =     60258.03521849   -59321.83946932
  entropy T*S    EENTRO =        -0.10697810
  eigenvalues    EBANDS =      -523.38710166
  atomic energy  EATOM  =     10012.97997727
  Solvation  Ediel_sol  =         0.00000000
  ---------------------------------------------------
  free energy    TOTEN  =      -997.75803733 eV

  energy without entropy =     -997.65105923  energy(sigma->0) =     -997.70454828


--------------------------------------------------------------------------------------------------------




--------------------------------------- Iteration      1(   8)  ---------------------------------------


    POTLOK:  cpu time      0.7458: real time      0.7698
    SETDIJ:  cpu time      1.4603: real time      1.4610
    EDDIAG:  cpu time     23.8566: real time     23.8782
     EDDAV:  cpu time    122.2879: real time    122.3954
       DOS:  cpu time      0.0056: real time      0.0056
    CHARGE:  cpu time     10.6531: real time     10.6623
    MIXING:  cpu time      0.0153: real time      0.0153
    --------------------------------------------
      LOOP:  cpu time    159.0245: real time    159.1874

 eigenvalue-minimisations  :  4800
 total energy-change (2. order) :-0.7066142E-03  (-0.1818672E-03)
 number of electron     401.9999999 magnetization 
 augmentation part      -20.3282082 magnetization 

 Broyden mixing:
  rms(total) = 0.46649E-02    rms(broyden)= 0.51034E-01
  rms(prec ) = 0.76187E-02
  weight for this iteration     100.00
  WARNING: grid for Broyden might be to small

 eigenvalues of (default mixing * dielectric matrix)
  average eigenvalue GAMMA=   1.0890
  2.5943  1.6757  0.9561  0.4090  0.7267  0.6396  0.6219

 Free energy of the ion-electron system (eV)
  ---------------------------------------------------
  alpha Z        PSCENC =       147.87253094
  Ewald energy   TEWEN  =     -8414.94664483
  -Hartree energ DENC   =     -2787.31498798
  -exchange      EXHF   =         0.00000000
  -V(xc)+E(xc)   XCENC  =      -369.40483825
  PAW double counting   =     60264.52406469   -59328.31381841
  entropy T*S    EENTRO =        -0.10644908
  eigenvalues    EBANDS =      -523.04857829
  atomic energy  EATOM  =     10012.97997727
  Solvation  Ediel_sol  =         0.00000000
  ---------------------------------------------------
  free energy    TOTEN  =      -997.75874394 eV

  energy without entropy =     -997.65229486  energy(sigma->0) =     -997.70551940


--------------------------------------------------------------------------------------------------------




--------------------------------------- Iteration      1(   9)  ---------------------------------------


    POTLOK:  cpu time      0.7415: real time      0.7678
    SETDIJ:  cpu time      1.4594: real time      1.4601
    EDDIAG:  cpu time     23.8818: real time     23.9022
     EDDAV:  cpu time    124.9920: real time    125.1066
       DOS:  cpu time      0.0061: real time      0.0061
    CHARGE:  cpu time     10.7088: real time     10.7185
    MIXING:  cpu time      0.0155: real time      0.0155
    --------------------------------------------
      LOOP:  cpu time    161.8053: real time    161.9770

 eigenvalue-minimisations  :  4984
 total energy-change (2. order) :-0.2852542E-04  (-0.2223197E-04)
 number of electron     401.9999999 magnetization 
 augmentation part      -20.3283707 magnetization 

 Broyden mixing:
  rms(total) = 0.21915E-02    rms(broyden)= 0.37161E-01
  rms(prec ) = 0.32383E-02
  weight for this iteration     100.00
  WARNING: grid for Broyden might be to small

 eigenvalues of (default mixing * dielectric matrix)
  average eigenvalue GAMMA=   1.1280
  2.6995  2.2628  1.0362  0.8129  0.6537  0.6279  0.4107  0.5205

 Free energy of the ion-electron system (eV)
  ---------------------------------------------------
  alpha Z        PSCENC =       147.87253094
  Ewald energy   TEWEN  =     -8414.94664483
  -Hartree energ DENC   =     -2787.36594404
  -exchange      EXHF   =         0.00000000
  -V(xc)+E(xc)   XCENC  =      -369.42261451
  PAW double counting   =     60281.89895759   -59345.68573386
  entropy T*S    EENTRO =        -0.10724303
  eigenvalues    EBANDS =      -522.98205799
  atomic energy  EATOM  =     10012.97997727
  Solvation  Ediel_sol  =         0.00000000
  ---------------------------------------------------
  free energy    TOTEN  =      -997.75877247 eV

  energy without entropy =     -997.65152944  energy(sigma->0) =     -997.70515096


--------------------------------------------------------------------------------------------------------




--------------------------------------- Iteration      1(  10)  ---------------------------------------


    POTLOK:  cpu time      0.7449: real time      0.7671
    SETDIJ:  cpu time      1.4625: real time      1.4633
    EDDIAG:  cpu time     23.8866: real time     23.9058
     EDDAV:  cpu time    120.8075: real time    120.9148
       DOS:  cpu time      0.0052: real time      0.0052
    CHARGE:  cpu time     10.5266: real time     10.5354
    MIXING:  cpu time      0.0158: real time      0.0159
    --------------------------------------------
      LOOP:  cpu time    157.4490: real time    157.6074

 eigenvalue-minimisations  :  4688
 total energy-change (2. order) :-0.1533517E-04  (-0.9505164E-05)
 number of electron     401.9999999 magnetization 
 augmentation part      -20.3284817 magnetization 

 Broyden mixing:
  rms(total) = 0.11360E-02    rms(broyden)= 0.12751E-01
  rms(prec ) = 0.13038E-02
  weight for this iteration     100.00
  WARNING: grid for Broyden might be to small

 eigenvalues of (default mixing * dielectric matrix)
  average eigenvalue GAMMA=   1.1585
  3.0834  2.4993  1.1605  0.9307  0.6951  0.6376  0.6190  0.4147  0.3867

 Free energy of the ion-electron system (eV)
  ---------------------------------------------------
  alpha Z        PSCENC =       147.87253094
  Ewald energy   TEWEN  =     -8414.94664483
  -Hartree energ DENC   =     -2787.35998148
  -exchange      EXHF   =         0.00000000
  -V(xc)+E(xc)   XCENC  =      -369.43864638
  PAW double counting   =     60289.03214873   -59352.81714728
  entropy T*S    EENTRO =        -0.10695007
  eigenvalues    EBANDS =      -522.97407470
  atomic energy  EATOM  =     10012.97997727
  Solvation  Ediel_sol  =         0.00000000
  ---------------------------------------------------
  free energy    TOTEN  =      -997.75878781 eV

  energy without entropy =     -997.65183774  energy(sigma->0) =     -997.70531277


--------------------------------------------------------------------------------------------------------




--------------------------------------- Iteration      1(  11)  ---------------------------------------


    POTLOK:  cpu time      0.7463: real time      0.7688
    SETDIJ:  cpu time      1.4652: real time      1.4657
    EDDIAG:  cpu time     23.8404: real time     23.8598
     EDDAV:  cpu time    121.0379: real time    121.1485
       DOS:  cpu time      0.0037: real time      0.0037
    CHARGE:  cpu time     10.4604: real time     10.4706
    MIXING:  cpu time      0.0160: real time      0.0160
    --------------------------------------------
      LOOP:  cpu time    157.5699: real time    157.7330

 eigenvalue-minimisations  :  4728
 total energy-change (2. order) :-0.1670033E-04  (-0.2796488E-05)
 number of electron     401.9999999 magnetization 
 augmentation part      -20.3285192 magnetization 

 Broyden mixing:
  rms(total) = 0.49060E-03    rms(broyden)= 0.76456E-02
  rms(prec ) = 0.65038E-03
  weight for this iteration     100.00
  WARNING: grid for Broyden might be to small

 eigenvalues of (default mixing * dielectric matrix)
  average eigenvalue GAMMA=   1.2095
  3.4875  2.5687  1.4564  1.0158  0.8568  0.6672  0.6332  0.6068  0.4150  0.3878

 Free energy of the ion-electron system (eV)
  ---------------------------------------------------
  alpha Z        PSCENC =       147.87253094
  Ewald energy   TEWEN  =     -8414.94664483
  -Hartree energ DENC   =     -2787.35699832
  -exchange      EXHF   =         0.00000000
  -V(xc)+E(xc)   XCENC  =      -369.44249479
  PAW double counting   =     60281.21159699   -59344.99478416
  entropy T*S    EENTRO =        -0.10698758
  eigenvalues    EBANDS =      -522.97500003
  atomic energy  EATOM  =     10012.97997727
  Solvation  Ediel_sol  =         0.00000000
  ---------------------------------------------------
  free energy    TOTEN  =      -997.75880451 eV

  energy without entropy =     -997.65181693  energy(sigma->0) =     -997.70531072


--------------------------------------------------------------------------------------------------------




--------------------------------------- Iteration      1(  12)  ---------------------------------------


    POTLOK:  cpu time      0.7428: real time      0.7702
    SETDIJ:  cpu time      1.4652: real time      1.4670
    EDDIAG:  cpu time     23.9313: real time     23.9516
     EDDAV:  cpu time    121.4808: real time    121.5877
       DOS:  cpu time      0.0052: real time      0.0052
    CHARGE:  cpu time     10.5967: real time     10.6058
    MIXING:  cpu time      0.0162: real time      0.0162
    --------------------------------------------
      LOOP:  cpu time    158.2383: real time    158.4038

 eigenvalue-minimisations  :  4744
 total energy-change (2. order) :-0.4509078E-05  (-0.6066957E-06)
 number of electron     401.9999999 magnetization 
 augmentation part      -20.3285401 magnetization 

 Broyden mixing:
  rms(total) = 0.25371E-03    rms(broyden)= 0.51872E-02
  rms(prec ) = 0.31829E-03
  weight for this iteration     100.00
  WARNING: grid for Broyden might be to small

 eigenvalues of (default mixing * dielectric matrix)
  average eigenvalue GAMMA=   1.2147
  3.6469  2.5857  1.6615  1.0167  1.0167  0.7468  0.6425  0.6299  0.6036  0.4153
  0.3962

 Free energy of the ion-electron system (eV)
  ---------------------------------------------------
  alpha Z        PSCENC =       147.87253094
  Ewald energy   TEWEN  =     -8414.94664483
  -Hartree energ DENC   =     -2787.35207610
  -exchange      EXHF   =         0.00000000
  -V(xc)+E(xc)   XCENC  =      -369.44704766
  PAW double counting   =     60278.72566641   -59342.50827624
  entropy T*S    EENTRO =        -0.10697772
  eigenvalues    EBANDS =      -522.97596108
  atomic energy  EATOM  =     10012.97997727
  Solvation  Ediel_sol  =         0.00000000
  ---------------------------------------------------
  free energy    TOTEN  =      -997.75880901 eV

  energy without entropy =     -997.65183130  energy(sigma->0) =     -997.70532016


--------------------------------------------------------------------------------------------------------




[...]
   -.217E+01 0.242E+02 0.919E-01   0.164E+01 -.217E+02 0.123E+01   0.845E+00 -.255E+01 -.974E+00   -.267E-03 0.281E-04 -.667E-04
   -.126E+02 -.330E+02 0.987E+01   0.122E+02 0.358E+02 -.116E+02   0.774E+00 -.247E+01 0.236E+01   0.229E-03 0.117E-03 -.110E-03
   -.575E+01 0.743E+00 0.286E+02   0.489E+01 0.557E+00 -.264E+02   0.143E+01 -.235E+01 -.201E+01   -.322E-03 0.224E-03 -.258E-03
   -.886E+01 -.226E+02 -.979E+01   0.938E+01 0.226E+02 0.981E+01   0.977E-01 -.258E+00 0.617E+00   -.350E-04 -.462E-04 0.617E-04
   -.605E+02 -.547E+02 -.652E+00   0.584E+02 0.562E+02 0.117E+01   0.284E+01 -.244E+01 -.204E+01   0.227E-03 0.184E-03 0.155E-03
   0.682E+01 0.705E+01 0.227E+01   -.770E+01 -.703E+01 -.384E+01   0.984E+00 -.234E+00 0.875E+00   -.198E-03 0.772E-04 0.103E-04
   0.282E+02 -.129E+02 0.948E+01   -.265E+02 0.142E+02 -.865E+01   -.154E+01 0.112E+00 -.817E-02   0.227E-03 -.194E-03 0.899E-04
   0.168E+00 0.178E+02 -.848E+01   -.134E+01 -.190E+02 0.875E+01   0.145E+01 0.586E+00 -.107E+00   -.245E-04 -.158E-03 0.748E-04
   -.470E+02 0.813E+02 0.577E+01   0.466E+02 -.839E+02 -.469E+01   0.352E+00 0.325E+01 -.966E+00   0.514E-03 -.296E-03 -.626E-04
   -.241E+01 0.905E+02 -.165E+02   0.115E+01 -.915E+02 0.154E+02   0.257E+01 0.752E+00 0.160E+01   0.173E-03 0.976E-05 0.516E-04
   0.449E+02 -.658E+02 0.663E+01   -.434E+02 0.637E+02 -.618E+01   -.151E+01 0.200E+01 -.138E+01   0.101E-03 0.139E-03 0.621E-04
   -.352E+02 -.752E+02 -.145E+02   0.329E+02 0.743E+02 0.130E+02   0.189E+01 0.249E-02 0.170E+01   0.232E-03 0.774E-04 -.179E-03
   -.936E+01 -.898E+01 -.827E+00   0.106E+02 0.946E+01 0.175E+01   -.655E+00 -.615E+00 0.939E+00   -.766E-04 0.370E-04 -.135E-04
   -.159E+01 -.602E+01 -.236E+01   0.115E+01 0.920E+01 0.262E+01   0.519E+00 -.245E+01 0.521E+00   -.192E-03 -.111E-03 -.614E-04
   0.371E+01 0.269E+02 -.484E+01   -.246E+01 -.281E+02 0.419E+01   -.133E+01 0.124E+01 0.508E+00   -.245E-03 0.287E-04 0.799E-04
 -----------------------------------------------------------------------------------------------
   0.237E+01 -.673E+01 0.375E+01   -.147E-12 -.746E-13 0.195E-13   -.236E+01 0.674E+01 -.377E+01   -.187E-02 -.598E-03 -.487E-03


 POSITION                                       TOTAL-FORCE (eV/Angst)
 -----------------------------------------------------------------------------------
      5.49437      6.70676      2.55172         0.535520     -0.420326      0.744784
      1.39062     10.04140      7.46784        -0.326396     -0.180665     -0.758197
      4.49266     10.41420      7.57386        -0.001907     -1.087949     -1.067466
      5.33483      9.74651      0.71342         0.445868      0.302146      0.991374
      2.51031     11.34060      6.94781         0.315982     -0.675563     -0.115583
      7.00690      8.92288      2.56908        -0.208055     -0.316837      0.805870
      6.78806      8.62672      3.24848         0.295350      0.399552     -0.823727
      2.60812      8.05121     10.29330        -0.038504     -0.221361      0.098473
      5.15770      8.26190      8.82149        -0.715177      0.721072      1.658161
      5.08599      9.67132      0.04993        -0.303625      0.087615     -1.039733
      6.63174     10.25270      8.47238         0.010625      0.086100      0.077173
      6.34534      8.05969      7.42018        -0.440759     -0.797418     -0.992132
      3.97421     12.57310      0.14484        -0.021960     -0.877087      0.453070
      8.33936     10.55040     10.49660         0.935465      0.172026      0.090150
      4.50348      9.86074      7.01175        -0.048894      1.047986      1.075916
      3.76514      8.35888      2.25718         0.141534     -0.886010     -0.116323
      3.99856     11.27460      2.21357         0.190961     -1.197070      0.337152
      6.25017     11.89760      3.07959        -0.689583     -1.027325     -0.468773
      4.86354      8.57880      9.50424         0.609038     -0.838890     -1.608441
      6.50176     10.82510      8.93318         0.060432     -0.057214     -0.069710
      5.06762      7.55459      0.44908        -0.354092     -0.587563      0.186882
      4.13885     10.52320      2.38759        -0.320698      1.278629     -0.237380
      1.50855     10.50950     10.12200        -0.246432     -0.143228      0.591624
      5.27948     10.29690      4.62612         0.980255      1.930088      1.703708
      5.59140     10.87730      5.15658        -1.025493     -1.811894     -1.676831
      5.55699      8.48369      5.31760        -0.421578     -0.076446     -0.556645
      2.63989      0.93310      4.37836         0.036037      1.042293     -1.000379
      3.71349      1.57821      6.36563        -1.233436     -0.019403      0.855450
     11.08840      8.60633      7.24582         0.082548      0.156911      0.461950
      9.07885     14.47260      0.06872        -1.739284     -0.187735     -0.069467
     10.33100      4.17356      5.17007         0.277957      1.016389     -0.421842
     10.82130     13.30050      2.84278        -0.095485      0.208252     -0.134711
      9.08105     12.13060      6.44865        -0.047487     -0.442419     -0.435952
      1.74345      2.14776      7.59934         0.727432     -0.554342     -1.927570
     14.45630      0.05548      0.90836         0.413776      0.194397      0.696538
      5.10597      3.26810      3.76801        -0.897619     -0.467937      1.184658
     11.53160      5.34680      9.71533        -0.227928     -0.146519     -0.387374
      0.98633     13.63850      8.35807         0.220807      0.270084     -0.065712
      8.99742     14.34170      7.03115         0.050363      0.117006     -0.347340
     11.84610      1.34151      9.17483         0.281134     -0.638565     -0.759684
      9.37121     11.87140      4.14795        -0.333667      0.279991     -0.062752
      7.64850     14.45570      8.97270         0.890669     -0.735973      0.705139
      5.30402      0.77182      1.14836        -0.319082     -0.645508     -0.343947
      0.21219     13.17910      2.86635        -0.030373      0.840120      0.487569
     11.23610      0.56365      6.83377        -0.282754      0.705232      1.175150
      0.46947     11.05840      2.28769         0.619740      0.103046     -1.076796
      4.09414     13.93550     10.63730        -0.699235      0.856566      0.339266
     12.54130     11.61460      7.61259        -0.076956      0.607055     -0.171076
      7.35884     14.47870      1.79140         0.984027     -0.204169     -0.476893
      8.02980      6.30367     10.76670        -1.384877     -0.434352      0.965720
      1.82083      2.41368      9.78901         0.615337      0.303409      1.853804
      0.38413      9.03685      6.92188         1.048080     -0.195791      1.488562
      2.82140      5.21002      1.50550         1.018846      0.576819     -0.846609
      0.07959      0.36319      6.39845         0.028837      0.335340     -0.055650
      9.37702      6.38605      1.76179         0.076245     -1.260663     -0.441376
     14.07950      2.30784      1.76092         0.653182     -0.862272     -1.097322
      7.29316     12.78910      3.45341         0.085846      0.463333      0.022543
      9.85388     10.76020     10.26230        -0.025401      1.109031     -0.164472
     11.49650      2.19099      5.09538        -0.418503     -1.064210     -0.146176
      8.71136      5.21701      3.72746         0.163242      0.678358      0.500565
     12.48740      6.95420      8.20822         0.701321      0.226923      0.746793
      7.22707      3.73333      2.98855        -0.351175     -1.165704     -0.288477
      0.04316      9.19399      3.41279        -0.519999     -2.376049      0.189332
     10.32890     10.81380      7.87964         0.172922     -0.081034      1.039184
      0.07168      3.59463     10.79060        -0.577812     -0.050646     -0.139651
      5.89946      7.29617      6.09153         1.617574      0.417300      1.872446
     14.50410      8.07519      9.05003        -1.344429     -0.611635     -1.761439
      3.59038      3.95127     10.54320        -0.970153     -0.606719     -0.657423
     12.75910     12.50990      3.83203        -0.056946      1.266242      0.798474
     13.91140     12.33950      9.33368        -0.198196     -0.088115      0.284311
      0.95638      2.62577      3.61077         0.466030     -0.642842      0.164228
     12.72250     13.47920      6.13735        -0.197900     -0.357074     -0.043515
      0.23322     10.78890     10.91540         0.307600      0.267085     -0.494914
      2.40427      5.53218      5.31597        -0.113769      0.496717     -0.195855
      8.10540      6.50143      5.63419        -0.168750     -0.663919     -0.320762
      7.00118      2.04324      9.13655         0.596257      0.808752     -0.992620
     13.72430      3.94484      6.88484         0.018902      1.007749      1.659541
     10.03830      7.80226      5.37070        -0.180048     -0.380571      0.640405
      4.74487      0.94421      3.36307        -0.312316      0.327897      0.589271
     12.88430      3.47459      9.16996         0.298335      0.141337     -0.619524
     10.67150     12.93350      0.47043         0.387469     -1.180636     -0.211805
      1.80507      0.12633     10.31730         0.057077      0.138835      0.179083
     12.49280     10.25270      4.09035         0.183976     -0.719282      0.095262
      6.06965     14.16440      4.94820        -0.727025      0.138426     -0.283984
     11.10140      8.91860     10.74710        -0.609154     -0.695115      0.656070
      0.79186      7.44084      5.26590        -0.155666     -0.072465      0.218900
      7.28919      2.84078      6.91941        -0.539517      0.654030      0.410510
      1.78214      6.92827      9.72545        -0.861186      0.933313      1.435983
      8.65058      3.20251     10.41590        -0.107147      1.121511     -0.568828
      8.90548      4.60295      6.94459        -0.982530      0.915520     -0.134894
     10.17450      9.61640      3.97299         0.595359      0.319562     -1.408057
      8.19052      1.48079      3.27716         0.227470      1.333160      0.043553
     12.27990      6.56043      2.58559        -1.448470     -0.145471     -1.150069
      1.41392     13.70680      4.86978        -0.434640     -0.054889      0.051641
     10.61170      8.28730      2.02699         0.470667      0.104698     -0.180208
      4.52596     13.98270      6.75211        -0.268442     -0.160684     -1.138851
      4.39423      7.06479      1.69722        -1.019497      0.746472     -0.654176
     11.76820      2.55285      1.67977        -0.842896      0.729797      0.154251
      1.41693      4.35894      7.08302         0.769771      0.238943      0.301339
     12.89810      9.75155      6.31618         0.141976      0.406591     -0.020370
     14.04870      7.53944      1.70026         1.282102      0.630751     -0.738664
      0.78868      5.72213      0.61890        -0.015252      1.166106     -0.318270
      9.23020      5.21309      9.17271         1.199547     -1.387768     -0.145295
      5.15656      3.37126      6.18156        -0.007510      1.192022     -0.718373
     13.48470      6.13680      6.23139        -1.432832      0.567322     -1.079991
     10.52240      1.21417      3.18174         0.374396     -0.227115      0.301309
      2.79696      4.11003      3.45481         0.326722      0.263540      0.766789
     13.79460      2.46040      5.22074         0.626922     -1.162832      0.228261
     13.36000      8.98840     10.81070         0.674124     -0.317967      0.668485
      2.96783      5.38219      8.71095         0.868119     -1.122339     -1.637864
     10.37820      1.81629     10.91110         0.144418     -0.238117     -0.670053
      5.47996      2.63629     10.70940         0.112855      1.416261      0.836685
      7.72093      1.07042      5.53408         0.339319     -0.588908      0.157026
      2.48301     12.76280      6.73602         0.013997      0.783809      0.068564
      5.38681     13.81010      8.76819         1.436590     -0.091057      0.591079
      7.01438      4.21480      0.78544        -0.006563     -0.123851     -1.019390
      4.31683      5.66068      6.66179        -0.302128     -0.861095      0.260727
     11.59960      6.13848      4.67847         0.503875     -0.153482      1.903035
     11.29500      4.94990      1.11257         0.139789      0.629398      0.808763
     12.65510     13.96440     10.45470        -0.123426      0.111165     -0.115187
 -----------------------------------------------------------------------------------
    total drift:                                0.011382      0.011864     -0.014135


--------------------------------------------------------------------------------------------------------



  FREE ENERGIE OF THE ION-ELECTRON SYSTEM (eV)
  ---------------------------------------------------
  free  energy   TOTEN  =      -997.75880933 eV

  energy  without entropy=     -997.65181730  energy(sigma->0) =     -997.70531332



--------------------------------------------------------------------------------------------------------


    POTLOK:  cpu time      2.1914: real time      2.2090


--------------------------------------------------------------------------------------------------------


     LOOP+:  cpu time   2249.9356: real time   2252.2666
    4ORBIT:  cpu time      0.0000: real time      0.0000



 total charge

# of ion       s       p       d       tot
------------------------------------------
    1        0.598   0.017   0.000   0.615
    2        0.551   0.015   0.000   0.566
    3        0.582   0.026   0.000   0.609
    4        0.639   0.038   0.000   0.677
    5        0.585   0.020   0.000   0.605
    6        0.590   0.028   0.000   0.618
    7        0.590   0.028   0.000   0.619
    8        0.561   0.015   0.000   0.576
    9        0.568   0.026   0.000   0.593
   10        0.638   0.038   0.000   0.677
   11        0.609   0.032   0.000   0.641
   12        0.532   0.011   0.000   0.544
   13        0.588   0.018   0.000   0.606
   14        0.538   0.013   0.000   0.551
   15        0.584   0.026   0.000   0.610
   16        0.552   0.012   0.000   0.565
   17        0.585   0.027   0.000   0.612
   18        0.601   0.019   0.000   0.620
   19        0.576   0.024   0.000   0.600
   20        0.612   0.032   0.000   0.644
   21        0.565   0.015   0.000   0.581
   22        0.583   0.027   0.000   0.610
   23        0.550   0.014   0.000   0.564
   24        0.548   0.021   0.000   0.569
   25        0.546   0.021   0.000   0.567
   26        0.579   0.017   0.000   0.596
   27        0.762   0.943   0.000   1.705
   28        0.760   0.938   0.000   1.698
   29        0.759   0.934   0.000   1.693
   30        0.757   0.935   0.000   1.692
   31        0.752   0.943   0.000   1.695
   32        0.754   0.897   0.000   1.651
   33        0.780   0.905   0.000   1.686
   34        0.780   0.909   0.000   1.688
   35        0.758   0.874   0.000   1.632
   36        0.757   0.918   0.000   1.674
   37        0.747   0.914   0.000   1.661
   38        0.761   0.910   0.000   1.671
   39        0.748   0.951   0.000   1.699
   40        0.751   0.897   0.000   1.648
   41        0.739   0.911   0.000   1.650
   42        0.749   0.929   0.000   1.678
   43        0.744   0.976   0.000   1.720
   44        0.750   0.952   0.000   1.703
   45        0.760   0.889   0.000   1.650
   46        0.786   0.915   0.000   1.700
   47        0.740   0.985   0.000   1.725
   48        0.759   0.951   0.000   1.710
   49        0.751   0.952   0.000   1.702
   50        0.813   0.819   0.000   1.633
   51        0.753   0.975   0.000   1.728
   52        0.746   0.977   0.000   1.723
   53        0.746   0.970   0.000   1.717
   54        0.751   0.878   0.000   1.629
   55        0.764   0.913   0.000   1.677
   56        0.746   0.933   0.000   1.679
   57        0.751   0.977   0.000   1.728
   58        0.740   0.907   0.000   1.647
   59        0.751   0.949   0.000   1.700
   60        0.755   0.946   0.000   1.702
   61        0.760   0.890   0.000   1.650
   62        0.754   0.982   0.000   1.737
   63        0.756   0.877   0.000   1.633
   64        0.754   0.912   0.000   1.666
   65        0.749   0.932   0.000   1.681
   66        0.732   0.974   0.000   1.705
   67        0.757   0.966   0.000   1.723
   68        0.754   0.909   0.000   1.663
   69        0.757   0.938   0.000   1.695
   70        0.754   0.958   0.000   1.712
   71        0.741   0.910   0.000   1.651
   72        0.767   0.891   0.000   1.658
   73        0.745   0.957   0.000   1.702
   74        0.754   0.915   0.000   1.669
   75        0.748   0.927   0.000   1.675
   76        0.762   0.967   0.000   1.729
   77        0.759   0.969   0.000   1.728
   78        0.753   0.959   0.000   1.712
   79        0.751   0.942   0.000   1.694
   80        0.754   0.900   0.000   1.654
   81        0.753   0.910   0.000   1.663
   82        0.749   0.918   0.000   1.667
   83        0.759   0.929   0.000   1.688
   84        0.756   0.920   0.000   1.676
   85        0.777   0.922   0.000   1.699
   86        0.767   0.834   0.000   1.601
   87        0.748   0.959   0.000   1.707
   88        0.745   1.014   0.000   1.759
   89        0.778   0.928   0.000   1.706
   90        0.748   0.925   0.000   1.672
   91        0.754   0.917   0.000   1.671
   92        0.755   0.933   0.000   1.689
   93        0.757   0.980   0.000   1.737
   94        0.754   0.969   0.000   1.722
   95        0.760   0.919   0.000   1.679
   96        0.747   0.967   0.000   1.715
   97        0.731   1.001   0.000   1.732
   98        0.748   0.921   0.000   1.669
   99        0.762   0.951   0.000   1.713
  100        0.766   0.988   0.000   1.754
  101        0.758   0.910   0.000   1.667
  102        0.748   0.937   0.000   1.684
  103        0.760   0.943   0.000   1.703
  104        0.750   0.931   0.000   1.680
  105        0.754   0.916   0.000   1.671
  106        0.752   0.912   0.000   1.664
  107        0.748   0.938   0.000   1.687
  108        0.761   0.931   0.000   1.692
  109        0.753   0.965   0.000   1.718
  110        0.754   0.917   0.000   1.671
  111        0.760   0.973   0.000   1.733
  112        0.750   0.960   0.000   1.711
  113        0.750   0.985   0.000   1.735
  114        0.748   0.970   0.000   1.718
  115        0.775   0.931   0.000   1.706
  116        0.766   0.927   0.000   1.693
  117        0.747   0.906   0.000   1.653
  118        0.752   0.943   0.000   1.695
  119        0.759   0.877   0.000   1.636
  120        0.751   0.910   0.000   1.661
--------------------------------------------------
tot         86.044  88.318   0.000 174.361


 total amount of memory used by VASP MPI-rank0   204770. kBytes
=======================================================================

   base                                    :      30000. kBytes
   nonl-proj                               :      40391. kBytes
   fftplans                                :      42984. kBytes
   grid                                    :      33148. kBytes
   one-center                              :         24. kBytes
   wavefun                                 :      58223. kBytes

  
  
 General timing and accounting informations for this job:
 ========================================================
  
                  Total CPU time used (sec):     2324.630
                            User time (sec):     2315.733
                          System time (sec):        8.896
                         Elapsed time (sec):     2326.980
  
                   Maximum memory used (kb):      371180.
                   Average memory used (kb):          N/A
  
                          Minor page faults:       259397
                          Major page faults:         1141
                 Voluntary context switches:         2318
