LAMMPS data file via write_data, version 2 Apr 2025, timestep = 1001000, units = metal

1000 atoms
2 atom types

0 23.939220401115783 xlo xhi
0 23.939220401115783 ylo yhi
0 23.939220401115783 zlo zhi

Atom Type Labels

1 H
2 Si

Masses

1 1.00784
2 28.0855

Atoms # atomic

297 2 0.1939873570885434 2.7529255738938216 2.30857057715025 -1 -1 1
999 2 1.7113657458505753 3.7147641043360617 4.434766761889136 -1 2 -1
862 2 6.234278128405978 1.8322561465465352 5.185359598378535 1 1 1
333 2 3.1604984769524984 5.900751557893363 2.946444407607923 1 1 2
123 1 2.012678515644263 0.395738998402147 4.465873827054852 2 0 -1
376 2 2.8492423719114095 2.2135725597442173 2.7185870572021855 0 -1 0
520 2 5.127319596014898 1.4370376415983628 3.0767155254406537 1 -1 1
208 1 10.62303964997133 3.198770054199855 10.164625661761514 -3 1 1
111 1 5.937194103799937 4.630509232716106 3.833923505689916 2 1 2
474 2 11.144480644086633 11.391680837684191 3.7134125959264583 -1 1 0
268 2 6.044771053321526 5.348738173116237 6.18080095319785 -1 -1 -1
26 1 1.263256012534991 4.357244816625525 2.070498127491526 0 4 1
277 2 3.209326968686012 4.977897113552712 6.294650633519471 0 2 0
424 2 3.809234533297442 5.634229090665186 0.7930417462171973 0 0 0
20 1 2.992260484529821 0.7767395048826534 2.7385986570194722 0 2 -1
417 2 5.621526078209227 10.83847620019757 0.27625273267937406 1 0 0
135 1 1.20649404789606 0.12611094547635673 2.0344463332056213 0 -1 2
212 1 2.9178388814569063 4.236355790971472 3.06240091479398 -2 -3 -2
757 2 7.837678917004915 3.5904369658444644 4.552713768712253 2 1 0
286 2 7.335429910729981 5.271504392945589 3.0987707914788833 0 1 1
596 2 7.551571503970557 0.24862551007531258 3.752696779539494 2 0 0
689 2 8.895003962740518 3.150934080239354 2.8293471754823685 0 0 0
511 2 11.855088851873893 1.376227401579234 6.059275801488633 1 0 2
927 2 11.333595778569112 11.371779554254614 1.302755134201757 1 1 0
817 2 6.958427352079599 1.8387558311289183 1.8948336483476533 1 -2 0
91 1 9.4675723123811 1.7782924813646592 1.9726238915445566 -1 2 -3
875 2 10.505743098401707 2.1818929627198687 4.301010016191432 0 1 0
890 2 9.16499391223527 4.865412884062708 1.4669347832560236 1 -1 0
249 1 7.658015393677906 1.4217483077182134 0.6437407257347068 -3 0 0
235 1 9.321256702519081 4.501393002241887 5.076833808887969 0 4 1
980 2 9.418618937761773 6.789707945734102 5.970131632150018 -1 0 0
856 2 11.551617930806229 3.443196778175318 2.149131221919805 -2 0 0
531 2 11.434139816701068 5.819565982007341 1.4491010900188899 3 0 1
89 1 5.011353154103799 9.554315757903643 0.9080298979904102 -2 -3 5
914 2 5.240325212270603 6.272043477711427 2.380397637069833 1 -2 0
820 2 0.8530359058648455 9.031780603126757 2.2147435942844163 1 -1 1
121 1 4.67928370721717 11.345988199732297 5.97098570743716 1 -1 2
599 2 4.368194640563868 11.320764688480745 2.1038732012080126 1 -1 1
459 2 3.3118319467751753 9.115469876805225 1.8820023366083727 0 1 0
304 2 2.526589740090543 7.98881591718949 4.123286692038732 0 -2 0
807 2 1.843669635302583 11.151701522245112 3.316188826076173 3 0 0
448 2 6.65633693506176 7.3584811413774025 4.078549651401155 0 0 1
528 2 11.596645567799541 9.126634537466257 3.1125215091356377 0 0 1
2 1 1.4774402919972158 5.2206377643520945 5.305248934617463 0 1 1
155 1 1.080918634202886 5.436735320110729 2.179954215286278 2 0 2
661 2 4.825746275180704 8.986616802197359 3.6883819640443685 0 1 -1
250 1 9.732116950894078 7.50529513162408 3.347943197752113 -1 2 0
869 2 10.116236365762589 5.7554773072503895 3.6349065798625744 -3 0 0
352 2 6.184239107528358 10.839228594182268 4.102692691707387 -1 1 1
668 2 11.815615702279768 7.974242947611706 5.163777854208069 2 1 -1
647 2 7.793397045572267 8.846936650574918 2.7364065639912933 -1 -2 0
679 2 7.6887071751126035 10.505768533447679 0.7567375523190213 -1 0 1
777 2 6.424300257219574 8.190407150938281 1.0657367605485684 0 0 1
897 2 10.002199917455211 8.996833875590982 1.741078217460405 -1 1 0
481 2 9.323524245621117 9.437463044043149 4.833143757091783 1 -1 0
509 2 8.06488270280428 11.060141804754835 5.533085251121113 0 -1 -2
811 2 7.565690554103449 8.810589666941244 6.366137779508372 -2 0 0
962 2 4.361613063768494 3.13507702050485 7.403971115174835 -1 1 1
710 2 0.7978919571776342 5.181355533314326 7.831817038292942 -1 0 1
955 2 0.625338793728147 8.882548045939501 4.900205168413956 0 0 -1
461 2 1.986613248370084 1.4656512338219014 8.407319698841606 1 0 1
883 2 4.785646383687631 1.481359758313813 10.568562675307565 1 2 -1
406 2 2.2472093003808205 0.2035486539909732 6.342268742411055 1 -1 -1
594 2 2.579966853266729 0.36903881005189826 10.782203295343637 1 0 -2
889 2 4.941493500312047 0.9791883250869078 8.317471929010686 1 -1 -1
844 2 3.219590852794526 5.843030213844724 8.46774023711197 0 2 2
652 2 3.195730756250243 5.181029725725413 10.665328393662511 1 0 2
538 2 5.333991852689356 3.677194820092559 10.183217395530962 -1 0 1
76 1 2.21796493598236 2.9582358000198266 8.328936707351117 2 0 1
360 2 0.09732532405008697 6.926990935425937 1.4558481199001032 2 -1 3
443 2 1.222292743922291 3.1480357986212884 6.741341334805183 1 1 0
59 1 0.27837621926560424 0.841413824248615 10.757975908799311 3 1 -2
201 1 7.759546742991731 7.256137796598366 0.7367151845299653 -2 1 0
288 2 11.651354831425854 5.25705517523857 6.521414012066108 0 1 -2
182 1 6.617031844004389 8.262270764904004 10.052147891831295 3 3 1
965 2 8.896834933002545 2.019184781209539 6.496394917452633 -1 0 -2
328 2 5.782305719443879 4.973501337014564 8.350753270367838 0 0 0
342 2 11.555971838967084 3.5026957071287343 7.515504105555154 0 -1 0
622 2 8.754120395060985 5.982169928797225 7.9576481395578265 -1 2 0
274 2 8.541836767785302 4.307551496098419 10.789036635630055 -1 0 1
429 2 8.110108794712508 3.841815868051946 8.353654326315874 2 0 -2
615 2 10.173502256070385 1.7123798784505848 8.389209321486032 0 1 0
904 2 7.365553582162297 1.622340646946269 9.495104993284723 -1 1 1
865 2 9.610323206071032 2.1933503732162243 10.290808467883082 0 0 -1
524 2 6.856414462343828 0.5224580426090951 7.010446553949867 0 -1 0
270 2 6.825569037260931 6.035828112059853 11.006394175439226 1 -1 -1
691 2 7.088087020672257 0.7651951523198454 11.682721411377466 1 1 0
634 2 3.950916558315051 10.750164023495413 9.753889197075257 1 0 -1
381 2 1.5009828417832132 10.397853954962121 6.184075239776986 0 -1 1
501 2 3.7368785803067253 7.82635170829096 11.77508179403246 0 0 -2
63 1 2.973104059758923 7.6670425125381865 10.484717889079128 1 1 -1
439 2 1.0313207366732464 8.656268992097464 11.040615819020013 -1 0 0
359 2 3.63550914773281 10.48009198763275 5.659240775833413 1 2 -1
302 2 1.2759570769437727 7.075401571077413 6.295307263046935 0 2 -2
912 2 1.1255669427539237 11.775459242903702 10.595517398920922 1 0 1
662 2 1.25385812568076 9.189182479361245 8.416020938481015 -1 1 0
798 2 4.025573627389153 6.847592251057106 5.676322906092204 0 1 1
695 2 1.331896614361977 6.286624887839529 11.1220016169828 2 2 1
677 2 3.3055848437027615 8.582582426196685 8.901301487391503 2 -1 0
514 2 4.929797610877314 6.489036706466386 9.80232325630608 0 0 0
18 1 2.650498381854885 3.5913031664511834 10.778750434433963 0 1 1
142 1 2.4285730034201882 8.042149994834254 7.275282460584098 2 4 -1
486 2 8.206582358292811 8.062610169227913 10.705305156880272 -2 1 -2
901 2 11.804023372818632 8.92007872710694 10.957883033028482 0 1 -1
495 2 10.145843136495479 6.928368836608647 9.459831356976492 2 0 0
98 1 5.4434086568032365 0.6255766565874059 0.5104990230798352 -1 2 -2
818 2 6.543844518513367 9.724865822167821 10.365405599834018 2 -1 0
680 2 5.175971302980225 9.11010858948914 7.167821649788676 0 -1 -1
332 2 6.8373302943903695 7.339714437817254 8.02630532787356 0 -1 0
638 2 5.697779229046356 11.177023724747892 8.192444460661315 2 0 -1
850 2 11.21902781441724 10.192261984746034 9.200164945943262 1 -1 -1
681 2 10.145839204231052 11.521845159119534 11.145353887875913 0 2 -2
822 2 9.374483001520717 11.049088320053807 7.960200313961562 -1 -1 0
409 2 11.425370050150967 7.876550344747878 7.556522050327541 -1 -1 1
671 2 8.704229711564171 10.638916488861762 9.86075116086002 -2 0 1
554 2 11.154495339294279 9.975022098908756 6.304724790366763 0 -2 -1
498 2 11.626774746312156 0.5800274019639011 2.345525888798937 3 0 -1
242 1 5.2432771493389065 8.206804268036779 0.2138015976595649 -3 -1 -1
65 1 5.903088609437128 0.07270016280049413 0.8939212785285225 0 -1 1
161 1 4.3290554125575005 2.5118856288176055 11.801211406095382 -1 0 3
393 2 3.4367840883525367 1.323899795164909 0.16061401005536943 0 0 0
960 2 6.050363001906204 3.3927044820653207 0.15011360261611234 0 0 1
985 2 1.496228924593621 10.290507422566723 0.057980107948922555 0 0 0
160 1 0.6403856127441494 11.790557242314245 4.196361291942625 -2 -1 2
696 2 9.321761779914237 0.026496989061062237 2.3493403991624233 -1 0 1
129 1 1.1384825346591567 11.880985219116715 8.927031746730925 0 -4 0
17 1 8.900491732667222 2.593600516755914 0.035497781752884094 -2 -1 1
959 2 5.260674540926629 2.958550767738925 13.64583853564248 0 1 0
872 2 1.8785603039612035 3.8870953166278555 15.174497144847944 0 3 1
395 2 3.3889123273938915 1.420532184928806 14.743431866055593 1 0 0
595 2 1.2469866924367157 1.2894878453554812 13.756468652592002 0 2 0
995 2 3.3021052716494754 4.6127761023466505 13.298255465700196 0 0 0
974 2 4.695582327960747 4.691346015646934 15.24197219952654 1 0 0
62 1 0.1616576192846253 0.026529245563383645 13.88826312432806 -1 -2 -1
855 2 2.2874732784833642 3.802239675997924 17.63592162817985 1 2 -1
48 1 0.477429423710034 6.37854511862019 18.68065236391535 2 -1 2
191 1 0.9390866784256441 1.1757026941100222 16.17445428281974 4 1 0
418 2 1.8860581326019623 0.722509508824268 18.25847909680018 0 2 2
503 2 5.2219159017802355 2.1542270996015462 15.91231507154049 -1 1 0
918 2 2.373142233184689 9.830455566040134 12.292100788794764 3 1 1
38 1 1.2415517541130046 4.9747844678395445 15.948871663087203 1 0 0
842 2 6.63305312733212 5.58372173338958 13.339909317227853 -1 0 0
11 1 11.003562403841055 3.946593633545064 14.201954023425436 2 0 1
358 2 10.147698891864485 1.5566915981479237 12.749919204136662 0 -1 0
932 2 7.459343039563518 2.1899246857598493 14.76973387152663 1 2 0
813 2 8.929213923687804 5.008759890335355 16.452047112169584 0 0 -1
205 1 4.503569793339868 3.7585558986737246 17.922292358497614 0 0 1
280 2 11.918857528801782 3.464188306949996 15.64790327746208 0 -1 0
939 2 9.938022278004135 0.636082827310133 14.884737898647877 1 2 0
893 2 9.708920358345704 3.1488672613311595 14.702519006261333 0 1 1
455 2 10.682372659543276 2.452594121050272 17.737032469480123 0 1 -1
337 2 0.8233727005972415 2.599699178023312 16.52996021158339 0 0 1
21 1 4.335901010407219 0.6382767086769954 17.742979947300476 0 -1 -1
293 2 9.981277799905753 5.556558357169734 12.25950402496765 0 0 0
255 2 8.476922111057505 2.8122745129340085 17.226078405544342 1 0 1
282 2 7.669352856902004 3.0951304059153575 12.632960422477286 -1 0 -1
228 1 11.565293645035087 1.435189504073044 19.81601270271404 1 -2 -2
754 2 2.785586672473119 8.464872119857759 14.487361923458838 0 1 1
321 2 5.012668460182204 9.079385970879713 15.392341395357793 1 0 2
618 2 2.1042966773936915 6.6619981028099176 13.163936039375056 1 -1 -1
444 2 1.1862158985798719 9.123137583494309 17.530138191830464 -1 0 1
364 2 5.261901827485267 11.14689913721656 16.593069045936314 1 1 -1
518 2 2.5638262345031437 7.035995618582816 16.469572654148585 0 1 0
878 2 2.205270303587613 10.155592815231623 15.843839337021008 0 -1 -1
421 2 4.664284307571973 6.8473172246673855 13.942120003355985 1 -1 0
174 1 0.16142922987259767 0.17016014387900247 18.619274121085358 -2 1 2
866 2 4.48349258379233 10.622437708917202 13.500243584512903 2 1 0
206 1 3.739096771423274 0.625599801376604 17.28946168729456 0 2 3
60 1 4.487169865412753 6.466819809655525 18.580957820670136 2 1 -1
874 2 0.42278586033186255 8.679459682623543 13.435454267376723 0 1 1
633 2 6.117181550044889 7.731346368525288 17.518437655260847 0 -2 0
783 2 0.24632128882455412 7.278229203645053 16.623359962055826 0 0 -2
692 2 8.394092787492696 7.064607816795834 13.012434509654195 -1 -1 -1
812 2 10.161699243224865 6.601074910106288 15.553064064077505 -1 0 -2
412 2 6.8240746329805795 6.129081435699034 15.90216487091749 0 0 0
298 2 7.026893274580922 11.483044007042498 14.821001275056515 2 1 1
752 2 9.801492611870692 8.817551738796027 12.217589426079133 1 2 2
721 2 7.0561953484291 8.934499524063675 14.263098379024955 -1 -1 1
469 2 7.857482889873464 9.377043618012369 17.5570963708891 -1 0 -1
493 2 8.330730284057637 10.7999533770929 12.504808527253624 2 1 -1
868 2 10.28536016258885 9.6955816100977 14.707040571206495 0 0 0
471 2 11.180448910107303 8.40925983008204 17.06958986873974 -1 -1 0
577 2 2.048359532676486 11.783845156488676 14.083016431847977 0 1 0
1000 2 8.51446637219534 8.131381687223936 15.800665308415821 -2 2 0
491 2 6.020486888572477 8.252763849069542 12.16835984003256 0 -1 0
266 2 9.100569468302332 11.253962365732878 16.23000801754037 0 -1 0
646 2 0.06837007026281544 2.6618174611775562 23.579044921379655 -1 2 -1
746 2 3.639160546295954 4.840202635572325 20.012902738780028 1 0 0
218 1 5.303918264112241 2.0731335505789565 17.990645662889033 3 0 1
378 2 1.539515286678702 4.450683289018191 19.53064641613874 3 1 -2
428 2 2.521909626973083 0.645411639394892 20.5024317832868 -2 2 -2
533 2 0.25207520873137784 1.9249078994547502 20.94219436014704 0 0 0
104 1 6.40140689376072 2.5655406281191615 22.854360190165988 2 2 3
743 2 5.024370771832959 3.709170497984829 21.33880953067547 0 0 0
551 2 3.562894986054184 3.628638564298307 23.289872017313915 1 1 1
790 2 4.6902178456246055 1.3536936082978774 21.930357490182516 1 -1 -1
941 2 4.304588439708814 1.5605250856225261 19.55045572086093 0 -1 0
830 2 1.5431114075533412 6.421001524856723 20.69171001303556 0 1 1
322 2 5.41659992783022 5.215229592138679 18.29180976223457 1 1 -2
801 2 3.4492497632623538 9.539358376481015 22.905634228961585 1 0 -1
534 2 10.253614152640761 7.2645603608753495 23.743351981387704 0 2 0
289 2 11.388422700683645 4.801850730414406 17.612491295279067 -1 0 -1
158 1 1.2180633767898568 3.945125810133417 12.543445681996461 0 0 2
240 1 11.337294554945991 5.677257849797112 21.584798263232365 -1 1 -1
755 2 10.75145600172379 11.873194543835455 13.620139247948922 -2 0 0
120 1 7.563125066039714 3.1040007183252545 20.465259271748756 -1 2 -3
542 2 10.024626677379056 3.1753069642364786 19.712872662549884 -1 2 -1
569 2 6.809816979690051 7.545260557364851 20.79216738879031 0 -2 2
132 1 6.9496206768691 2.2014754869812 20.089142117376902 -3 -1 -3
217 1 11.259000841141338 3.6026209310138855 20.686859957915512 0 3 -1
794 2 9.091454865028595 5.305491422823653 18.472196047771046 -1 -1 -2
860 2 9.61253773135179 5.569210109895892 21.568594811504287 0 0 -1
935 2 8.162378269087798 3.701102938260687 21.838085857112755 1 -1 -2
264 2 6.649579721701305 2.0996162789842785 18.356460582792238 0 0 -1
295 2 9.092872294073333 1.7954260252050598 22.6378910174422 -1 1 -1
73 1 10.488698613701322 1.7722590128521993 21.75301492918412 0 2 2
163 1 9.10328644755889 1.1378934881296132 19.65207097953118 -1 -3 1
90 1 7.446072346460091 0.9778286749387767 21.33244569372662 0 2 -3
979 2 5.843768780828279 10.978874287898988 18.702175778273666 1 1 0
936 2 5.358548306886 5.9283684383975 20.817327668766783 0 -1 2
825 2 2.5016189213953632 11.658816797101405 21.476885276771537 0 2 0
532 2 0.4038484073912262 9.375477321689422 21.771217475833346 2 -1 -1
456 2 3.095668961804262 6.917589252215818 22.79751268663059 1 0 -1
260 2 1.939378174444283 11.069952446357654 19.127881554420416 2 1 -1
100 1 2.497261844259021 9.237920139033532 21.836471034133215 -1 1 0
24 1 0.9638066556777328 7.4902266226568806 19.716146820724344 -1 2 -1
254 2 5.067220765354203 10.322296077507058 21.471635078211538 1 -1 0
784 2 0.7282364930652369 7.463444951924884 23.068889660115758 1 -1 0
215 1 7.311260676893998 0.8554807458845717 20.587830372890974 -1 -1 -2
420 2 3.225337457962084 7.488631200363745 19.065608952521607 0 2 -1
895 2 4.229418789374424 8.427847456543697 20.824938841071937 2 -1 -1
606 2 3.5097847398598945 9.778812758722049 18.515269727715836 0 2 0
903 2 1.3537538881900257 0.9006437364110602 23.42508235332197 1 1 -2
550 2 11.360371372007721 6.767115663186497 18.889325858714617 1 -1 1
508 2 8.3956851676174 8.650168536746241 22.764918263631575 1 3 0
816 2 10.290291837403979 8.035020231382667 20.790590556660952 -1 0 1
585 2 0.635638965997249 11.846567527049665 16.95998430964796 -2 2 1
299 2 10.140749792958115 10.149429365690445 18.3296813219318 1 1 0
601 2 8.96143487119787 7.443117016323891 18.922632900558597 0 -1 -2
698 2 11.364328463933855 11.75199456260166 21.291356756282845 -1 0 -2
68 1 6.25265150154061 8.256637600439179 19.582715610624224 -1 0 0
523 2 6.122782940137856 6.485598616909834 23.331005793222154 1 0 1
759 2 10.251869226124965 10.254233864911933 23.145390124675874 0 -1 -1
535 2 10.009341954108992 0.3130393856134787 17.164413682229945 1 1 -1
490 2 9.597036669599245 10.189903104848598 20.526885983929468 0 1 -1
148 1 7.832911325233704 5.301821093491635 19.449732339963397 0 0 -2
296 2 8.446666935291997 0.09180457580182284 18.788328013089508 0 -1 0
628 2 1.5079889549513465 4.898529097620682 23.325970692681523 2 1 0
405 2 2.6419021520700525 2.368542189794332 12.193115438069276 1 3 -1
674 2 2.839003266757184 15.171008556732282 2.729470085820151 1 1 -1
272 2 1.6228807047374656 13.839914242132139 1.4698755333618454 -1 0 0
769 2 1.9721430580719956 15.723139621290201 6.009524175347508 1 -1 0
611 2 5.10316396816437 16.53896241490973 3.4191357834215546 0 1 1
947 2 1.7852538928872885 13.561237780076091 5.335545793410238 -1 0 1
969 2 3.4378043464645835 13.006055902046224 3.661941457909065 -1 -2 1
416 2 4.895541043480505 15.987988967271686 0.07195598050714616 -2 0 1
718 2 3.5508381241446076 17.555429257761503 2.176733289244159 2 0 1
187 1 3.446266903987958 16.375804675407498 4.729494555728509 -1 1 -1
153 1 2.4692402370424165 17.762409287226358 1.1066486624427172 -1 1 1
953 2 6.2264354877246 13.461433249524458 1.8359633763120788 1 -1 0
797 2 5.333843645744343 13.472149798171143 5.162566935556371 1 0 0
82 1 2.612556233242388 16.525930806770663 4.223742666616386 0 0 -2
343 2 0.9523594192521255 17.512382581564445 5.176079911671617 1 0 -1
319 2 2.7442770129781153 23.21230095083262 1.7182471608360321 -1 -1 1
627 2 0.811593279922136 19.378501682205727 8.666457808522141 0 2 0
741 2 4.735345833611079 16.453305140916086 5.6729080557595255 -2 0 0
430 2 10.247302267008173 23.57061265170351 7.417102040929312 2 1 0
800 2 7.60395240396942 20.624063068678886 11.216996480395371 1 0 -2
593 2 2.9009211203329297 12.150240675153615 0.07660358028014734 1 0 2
946 2 8.319018328844205 12.115545169988362 2.2937012889008295 0 0 1
805 2 8.643136969837304 16.739077066986187 1.1346743042398852 1 -1 2
527 2 10.60958418993885 14.77126815655154 2.7048773426084542 1 -1 3
327 2 6.5341134214674605 14.609987519391348 3.720635802926639 0 -1 1
838 2 8.036959648743707 13.403825333897343 5.274817152793078 -1 0 1
841 2 6.164210251371086 19.975842844739347 9.325769336923118 -2 -1 0
579 2 8.297483828733002 14.17708109103904 0.926391871177042 3 -2 0
265 2 8.668054131674891 15.798162722730842 3.294981713372177 -1 0 1
745 2 0.016313550197652245 12.465357158798945 2.163521118918642 2 0 0
57 1 9.970843423736685 17.29920257178029 3.819614731321374 0 1 1
703 2 6.169421827443644 17.21793510570322 1.23992985308921 2 -1 0
763 2 8.974489053749448 19.931808517017284 7.651062632937766 0 0 1
804 2 10.145254468461637 15.974944041683884 5.082355108531771 0 3 0
36 1 6.996713804865305 17.180011803260292 6.227972064744161 -1 5 2
544 2 10.09411477224142 13.70192991376426 5.00019896295654 2 2 0
71 1 11.801714934260639 18.992814591579357 2.5858218823389003 1 -2 1
653 2 3.6971059748098294 20.183250653621702 2.8790156283136867 0 -1 -1
478 2 4.864966452807358 18.69271378496285 4.962758589368282 0 -2 1
641 2 1.8325889699963822 21.092113727957727 3.90361439696631 1 0 1
720 2 5.3443610148183485 20.996392007452968 1.3991999093639453 1 0 0
181 1 10.069835961566636 13.277200394059376 11.20373415450602 0 2 0
340 2 1.1717065187208757 20.745636016838816 1.7442369538936984 1 -1 0
15 1 3.1421598796931702 23.26222791007174 4.926789198192273 -2 1 0
549 2 5.284513825768187 21.568377271688536 4.300579195796776 0 0 -2
61 1 1.123501138074279 18.987848601136648 4.9122128268288945 -2 -2 0
130 1 4.389862933395004 22.736448049430976 2.211269690068989 1 0 0
998 2 0.2790047318832944 23.51465358480088 5.019331226559699 1 0 -1
213 1 11.701894234496509 17.67066853465361 2.2181936524378307 -1 -1 2
828 2 10.705515159363609 14.024528690771161 0.3049563321125876 -2 0 0
934 2 4.641210464145111 23.79379051415987 4.842223926612181 2 -1 1
562 2 7.115315311111409 12.378058526275392 10.914190687804838 0 1 1
162 1 5.921619099012382 18.69969192972744 0.7000164499007278 0 -2 1
496 2 9.062458621565783 23.423121454926918 0.07404576392905915 1 -2 0
926 2 6.013806049436634 17.611154457645505 11.300280515222983 0 0 -1
505 2 6.1785091358203195 22.64927792923227 2.605436179526017 1 0 0
267 2 6.655178939659355 18.76705533223537 3.498376207771193 1 2 0
119 1 8.284735383466266 20.792406809534807 2.4833307949840395 2 0 4
774 2 11.685562328733983 21.50721549433179 1.6920870343187282 1 -2 1
796 2 8.592817069568913 23.306295209756303 5.345393421704079 2 2 0
837 2 8.96534749897079 18.64054514709296 4.174971553884865 4 2 0
612 2 9.398140479803734 21.682108693962686 1.8666203403632675 1 -1 -1
886 2 9.026196589394875 18.999431164281486 1.6890361598112247 -1 0 1
197 1 11.139744208925592 18.874706157439753 9.164209777291818 -2 -1 2
287 2 7.874357698083731 20.974395910571637 4.336751630583678 1 1 0
925 2 7.1497125940041135 22.17663528425793 7.054246458886638 2 0 2
906 2 10.980706360182824 22.58796747418939 5.492791433254429 -1 0 -1
117 1 10.22602325945471 19.174470807469728 0.7328953694933982 1 -1 0
248 1 11.561084399867834 18.957446450382616 3.396779626168225 1 -2 0
303 2 1.4073616194308909 12.334532752163874 7.026098028722258 1 0 0
583 2 3.6598201450981467 12.46568582563341 7.721939378308098 1 -2 1
734 2 5.116357003229714 12.913492311612117 9.872239786290265 0 -3 0
706 2 0.5042640448006186 17.429176800500525 10.59827117604463 3 0 1
597 2 5.510156468396692 15.727767402394546 8.32847403816882 -1 -1 0
171 1 11.752010997217718 23.05863177973145 1.202356420741341 -1 -1 1
945 2 3.0513897436297914 14.03689788139296 9.92977216292767 0 0 -1
966 2 2.8412237315800213 18.03140174785 11.174252092785805 1 -1 0
410 2 4.5587551376866 17.48764763195453 9.505580779599647 -1 0 3
504 2 1.950320126050959 15.843665050132598 11.860537872341265 2 1 0
684 2 2.974698368342792 17.126322831249 7.584676805616559 1 -1 -1
69 1 4.00281828441231 13.646589349659681 6.693117048332426 -1 0 -1
499 2 1.6302275813292146 15.272979486026777 8.476814753526973 2 -2 0
207 1 6.769428099355081 16.238474956831304 10.083766950768014 3 -1 -1
193 1 7.643492426936725 19.14692621282449 0.07401938608010948 -1 -2 -1
621 2 4.219984626858589 15.347877010157271 11.620747562529166 1 -1 0
981 2 11.727575156373668 16.83215623669945 6.797836260951664 -1 0 1
149 1 8.88877486037929 16.426714238937233 5.967153206382427 -1 -1 -1
369 2 10.762681111819742 16.747800578615042 10.764664749600815 1 -1 1
613 2 9.849784135951051 15.305882688671877 9.094932410084969 1 1 0
650 2 8.221337899967521 18.242460622499692 6.2763780221711425 -1 0 1
326 2 7.842442347191603 16.530606026650894 8.4271635540722 0 0 1
300 2 10.187284545261768 17.883740584632914 8.444845861618676 0 -1 -1
854 2 6.642707519234101 13.124376868082239 7.322136089211202 1 -1 2
909 2 10.119329548973013 13.257353356010638 7.410522830321692 1 0 -2
826 2 8.543640615749075 13.238028537903132 9.271926350600843 1 -1 -1
768 2 7.321500058149276 22.830732747708034 10.135352215926869 1 0 -2
697 2 7.8298362692408165 15.398926948760643 10.800674769378904 0 -1 1
682 2 3.8635769113898593 21.028198890063432 6.5642524176965455 -1 0 -1
654 2 0.4963503476284503 23.274770448291843 10.067156485554989 -1 0 2
880 2 1.9856236584561047 22.080212875679383 7.850586883408877 1 0 1
382 2 4.088842754746736 23.06364008966959 11.102275356352559 -2 0 0
570 2 4.33419095098578 19.319886165773305 7.877066394784957 1 -1 0
643 2 0.11862907593285138 20.609902951497055 7.029081571276931 1 -1 -1
231 1 6.5763159729462775 20.269304756795904 2.380841773313166 -1 0 -2
314 2 4.557220863868829 23.02327329210836 6.991843145362065 0 0 2
350 2 4.296915906984894 21.75699593578542 9.328609011680442 1 -1 -2
722 2 8.769021738156388 22.34049326348092 8.657377198014007 -2 -1 2
781 2 6.541615154492894 20.23357263231918 6.309031777597098 0 -1 1
835 2 2.7486025563980108 19.70149427425406 9.656483112148255 1 0 0
484 2 2.5636889219142787 21.44186716027406 11.27348025192462 0 2 0
92 1 9.316154397440295 19.553080969365375 9.984593818323697 2 -2 -3
744 2 9.791379019265081 20.639698271156355 10.734267796208815 1 1 2
83 1 11.197534681725399 22.517836985778395 9.315687259813261 -4 -2 3
515 2 11.378586859344212 22.35858604798632 10.67202965699837 -2 -1 0
335 2 9.542362137531603 23.19948038734418 11.898189089504031 0 1 1
911 2 10.188404463356783 20.355760361706455 5.363496280835584 -1 -1 0
576 2 8.43842591104917 18.072280928333672 10.240973200107465 0 0 0
648 2 11.220266457619559 19.261236166373013 11.661532560208414 -1 0 0
313 2 1.555031704834652 17.868068574710527 14.264457477861527 0 -3 1
330 2 2.2812272189374094 16.79574901310123 15.759623996941158 1 0 -2
730 2 4.3192856395713175 14.991163587818772 14.497726042063496 0 2 -1
489 2 6.0310138101700215 16.519637725163832 14.595859858100447 -1 0 -1
778 2 3.507215011160474 14.91940393981852 16.99100997492037 0 0 -1
626 2 0.35887879779519094 16.91326833052739 17.307716604852757 2 0 0
567 2 1.3633997835191607 14.253682272069256 13.481919980620434 -2 0 1
29 1 5.4272006292362365 17.394392223659633 22.739935341654448 -1 -2 1
339 2 1.4237456406617044 14.217701446893322 16.086136337333805 -1 1 0
485 2 4.9777202922191 12.706532679848587 14.217126120574584 0 0 0
192 1 5.143167286508701 13.326809829754643 18.34430665772655 0 1 -3
446 2 11.457277408679907 23.866404288974252 19.68004746516035 -1 0 0
678 2 10.245957678160027 20.425606154502674 21.727463626785976 -1 1 0
560 2 6.304981098644235 14.681311936572806 12.644000396091265 0 -1 1
642 2 7.751622608239896 13.447443753042194 15.901935811008888 1 -3 0
84 1 6.630397928675096 17.849322250348255 22.863720309862096 -1 1 -1
749 2 8.119277270630928 15.842221475749158 14.495554021382974 0 2 0
586 2 0.12927387911621158 16.53296094545966 13.059489567241064 -2 1 0
670 2 11.490793273113255 15.616337973037979 16.15311625635688 -1 1 -1
888 2 5.455635389229904 16.5129797302601 17.600129024239422 1 -1 0
355 2 10.654718364718894 23.26080936354587 22.48053171578228 -1 1 0
808 2 9.433404541679478 17.192095849762843 16.002026372302044 -1 2 1
924 2 9.803034460345568 14.15936976706305 14.887938359808537 1 -1 -2
802 2 5.7099473316625415 14.253655412120178 16.972876648878863 -1 1 0
3 1 6.886423008479604 17.11075949242772 17.52460333082894 2 -1 -1
881 2 7.649440769680194 12.874349428060409 13.131668301013244 0 0 -2
789 2 8.369846852265184 13.274651457283214 17.929629734928906 -1 1 1
922 2 9.975318647738336 14.354829551285773 12.506000967039169 0 -2 -1
967 2 4.615883301412407 18.509764321031017 16.540209966606074 2 1 -1
956 2 2.6059246454532987 18.696156613575717 17.13944500231938 0 0 0
425 2 4.778643516084269 18.753339909255516 14.129350721266801 1 -1 0
233 1 5.905791452806116 18.4616565044812 13.362086160433295 2 1 2
587 2 3.5145127509252303 12.798011843535724 12.151922002250947 1 -1 1
399 2 4.892695545660388 21.96325253259712 16.700626802044265 2 1 -1
387 2 2.2366381728506486 22.229467948835023 18.037910381559694 1 1 0
99 1 2.730208657917793 20.237784412788933 15.612024949257048 3 -1 -1
973 2 4.7941576715910585 23.695061114439692 15.2343936967002 1 0 -1
657 2 2.010587702391527 19.66313478086011 12.968310033587098 -1 -1 0
580 2 1.280288346512518 21.349885548608466 14.273021042178321 2 1 -1
522 2 3.8156865095754013 21.308456901646377 14.673197566150836 1 -1 0
30 1 3.1326513446507147 22.113717530854238 16.90975625975458 1 0 0
214 1 7.99409214717962 21.16879007293429 14.917308326169831 1 -2 -1
133 1 0.04013291883134906 23.09100674027667 15.516139661581937 -1 0 -2
892 2 2.124913889602331 23.254582948307963 15.467145834803013 1 -2 2
54 1 5.548989865236792 21.719095997541693 14.612432781050007 -1 0 -1
775 2 11.91224961808897 18.823085221215173 14.310204786552934 -1 0 1
134 1 7.579094391743236 22.294286964245302 17.682534665962283 1 -3 -1
440 2 7.593565896554991 23.827052813000254 14.88680146263741 1 -1 -2
75 1 4.53552844923187 19.73588957008643 17.547690054322807 2 -1 1
200 1 7.341867802303084 18.306960632653855 14.211670481101347 2 1 2
344 2 10.696596446073963 22.34280936237649 15.066751005510064 -2 0 -1
216 1 10.358069207322176 18.343253723420656 15.308016556666228 0 0 1
572 2 1.7467552472742052 22.03181344667934 23.636915685893097 -1 0 0
920 2 9.254711878253028 21.229310583668877 13.481221880625474 1 1 2
713 2 9.434656495478446 20.557327107525484 15.95636621437165 0 0 0
334 2 8.775811376413445 18.982746832264443 14.101954855737777 0 -3 -1
139 1 6.161974428502339 21.063075900370766 16.59133661642058 2 -1 -2
431 2 8.348915989258021 18.685119731076206 17.50562641281571 -2 0 -1
72 1 7.9024575743652035 22.839563747419213 15.827758124973911 -2 -2 1
970 2 6.46930207284739 22.040311018023566 13.369130977637646 0 0 1
831 2 1.322367750162654 14.53235573489875 18.510300121691916 1 1 -1
450 2 4.955677480844692 14.740271403701666 21.51062307229122 -1 1 -1
447 2 1.773463387234187 17.916380618109518 19.163319284201695 0 -1 -1
659 2 2.7853317517492644 14.132956024299856 20.74774861046514 -1 0 -2
366 2 0.8244315838704502 13.312050567255577 21.87832746919363 3 0 -1
253 2 3.395176539090821 16.3034571115155 19.722739143112303 1 0 -2
729 2 0.2397636754964502 17.390589635657335 20.71506315273951 0 -1 0
433 2 5.732970649678203 16.758020473255062 19.752586111365986 0 0 -1
526 2 2.5778601171225914 16.983072727788027 23.439694295836166 -1 0 -1