ITEM: TIMESTEP
484624
ITEM: NUMBER OF ATOMS
14000
ITEM: BOX BOUNDS pp pp pp
-1.5692823956122852e+00 5.9490466001789805e+01
-1.5692823956122852e+00 5.9490466001789805e+01
-1.5692823956122852e+00 8.0031460634118886e+01
ITEM: ATOMS id type xs ys zs
1 2 0.358859 0.390706 0.349227
2 2 0.177068 0.0372619 0.344251
3 2 0.1761 0.0584604 0.298714
4 2 0.529472 0.136124 0.285405
5 2 0.0387543 0.47629 0.891546
6 2 0.664108 0.204984 0.231316
7 2 0.305327 0.428068 0.630714
8 2 0.28356 0.177806 0.487137
9 2 0.454936 0.21681 0.177208
10 2 0.82659 0.0799727 0.283531
11 2 0.28597 0.856789 0.724023
12 2 0.336533 0.837782 0.329814
13 2 0.446835 0.0602893 0.569372
14 2 0.254811 0.310951 0.946454
15 2 0.247818 0.411278 0.462428
16 2 0.305243 0.205646 0.968405
17 2 0.700203 0.185806 0.600897
18 2 0.134237 0.124244 0.274144
19 2 0.290563 0.985792 0.504818
20 2 0.0899912 0.226245 0.78954
21 2 0.426127 0.942109 0.566075
22 2 0.340253 0.106829 0.923281
23 2 0.327235 0.224226 0.756167
24 2 0.19163 0.677064 0.414267
25 2 0.67236 0.932878 0.225195
26 2 0.482608 0.646945 0.244698
27 2 0.0611832 0.863022 0.442382
28 2 0.201295 0.552214 0.411118
29 2 0.219275 0.57365 0.695581
30 2 0.228364 0.903156 0.463627
31 2 0.73622 0.895951 0.24518
32 2 0.377831 0.282975 0.871715
33 2 0.360488 0.386558 0.9452
34 2 0.38953 0.304563 0.3296
35 2 0.0774173 0.402665 0.918374
36 2 0.324192 0.427745 0.854943
37 2 0.251273 0.985647 0.33175
38 2 0.583811 0.561617 0.400316
39 2 0.287205 0.821636 0.763027
40 2 0.307128 0.316622 0.488205
41 2 0.178168 0.247876 0.573445
42 2 0.0206008 0.0178539 0.568991
43 2 0.256064 0.150107 0.282753
44 2 0.574665 0.964934 0.511569
45 2 0.294139 0.231217 0.797754
46 2 0.00194744 0.790412 0.838092
47 2 0.38793 0.435341 0.260785
48 2 0.424232 0.212984 0.535131
49 2 0.90068 0.927783 0.244435
50 2 0.87806 0.62945 0.23289
51 2 0.293935 0.321244 0.426072
52 2 0.372567 0.119569 0.883165
53 2 0.153235 0.282396 0.334882
54 2 0.26255 0.413406 0.602124
55 2 0.0441513 0.354146 0.625785
56 2 0.493964 0.0855059 0.406416
57 2 0.388482 0.24158 0.909023
58 2 0.179267 0.34426 0.432242
59 2 0.256507 0.129607 0.905106
60 2 0.284737 0.353008 0.352447
61 2 0.516676 0.232328 0.236827
62 2 0.848856 0.0684752 0.734209
63 2 0.0685672 0.0308377 0.417571
64 2 0.221664 0.357053 0.378977
65 2 0.223563 0.215205 0.861893
66 2 0.0378846 0.619176 0.560094
67 2 0.289269 0.221045 0.568595
68 2 0.0945977 0.767332 0.223414
69 2 0.00550387 0.0998163 0.157058
70 2 0.295949 0.38803 0.360356
71 2 0.0255832 0.449964 0.487797
72 2 0.173837 0.822862 0.351563
73 2 0.114023 0.138033 0.15754
74 2 0.16824 0.896223 0.485271
75 2 0.328231 0.972907 0.877098
76 2 0.0269826 0.804179 0.624213
77 2 0.149518 0.781586 0.546004
78 2 0.29649 0.118203 0.513619
79 2 0.370511 0.744243 0.0660466
80 2 0.0178006 0.151056 0.443241
81 2 0.165837 0.359733 0.474212
82 2 0.125818 0.466238 0.465817
83 2 0.0163921 0.971224 0.259003
84 2 0.561937 0.345357 0.351962
85 2 0.841772 0.859827 0.108879
86 2 0.350445 0.639623 0.659443
87 2 0.361276 0.146773 0.86441
88 2 0.984001 0.160111 0.574543
89 2 0.179902 0.0610475 0.826429
90 2 0.555342 0.0886458 0.463781
91 2 0.780478 0.383371 0.923138
92 2 0.222291 0.344766 0.460798
93 2 0.345448 0.244224 0.586301
94 2 0.374209 0.343636 0.914522
95 2 0.193615 0.250433 0.371301
96 2 0.618072 0.0775844 0.391615
97 2 0.0895354 0.118386 0.233864
98 2 0.291234 0.284604 0.499603
99 2 0.222865 0.266302 0.633556
100 2 0.299134 0.324874 0.367122
101 2 0.114368 0.957781 0.566287
102 2 0.0116362 0.66725 0.390764
103 2 0.390988 0.992662 0.983832
104 2 0.131052 0.118195 0.375035
105 2 0.209862 0.47124 0.333966
106 2 0.376495 0.0187168 0.383166
107 2 0.256722 0.282174 0.354987
108 2 0.293428 0.189984 0.513859
109 2 0.127661 0.277916 0.263119
110 2 0.102899 0.383633 0.979442
111 2 0.71404 0.422843 0.409449
112 2 0.0866015 0.344313 0.390702
113 2 0.0188788 0.192261 0.284503
114 2 0.998922 0.265516 0.4867
115 2 0.540757 0.922787 0.841898
116 2 0.539118 0.64647 0.407622
117 2 0.223849 0.14665 0.388236
118 2 0.0488751 0.218607 0.335606
119 2 0.259863 0.243366 0.315967
120 2 0.419572 0.687028 0.484688
121 2 0.980111 0.529164 0.594954
122 2 0.0867083 0.271177 0.294013
123 2 0.99376 0.695244 0.564352
124 2 0.178003 0.133427 0.509829
125 2 0.481444 0.681014 0.369073
126 2 0.892952 0.424472 0.4136
127 2 0.126282 0.762384 0.838263
128 2 0.925947 0.216767 0.358198
129 2 0.430694 0.186198 0.82622
130 2 0.267039 0.0804017 0.40403
131 2 0.143043 0.147248 0.778706
132 2 0.34839 0.999156 0.909977
133 2 0.732635 0.3155 0.425387
134 2 0.786499 0.675859 0.589795
135 2 0.291566 0.403632 0.332693
136 2 0.488944 0.0550874 0.818749
137 2 0.362243 0.187268 0.329722
138 2 0.309593 0.695933 0.456298
139 2 0.0243162 0.91085 0.450261
140 2 0.128968 0.35233 0.823119
141 2 0.0784525 0.0894701 0.396119
142 2 0.252663 0.305328 0.309367
143 2 0.320573 0.269062 0.370994
144 2 0.25326 0.288381 0.460619
145 2 0.379714 0.305909 0.583512
146 2 0.00432627 0.558106 0.646971
147 2 0.99361 0.0182299 0.642412
148 2 0.344353 0.0775597 0.325373
149 2 0.293467 0.379792 0.527922
150 2 0.0590287 0.356875 0.514883
151 2 0.0115262 0.276263 0.26825
152 2 0.394336 0.756546 0.588094
153 2 0.0824345 0.0365709 0.582282
154 2 0.128609 0.167439 0.437085
155 2 0.371054 0.185442 0.558288
156 2 0.204756 0.170543 0.283455
157 2 0.773945 0.13753 0.185252
158 2 0.50337 0.196073 0.384003
159 2 0.218055 0.093028 0.485648
160 2 0.780499 0.336464 0.540741
161 2 0.876722 0.181312 0.346663
162 2 0.51404 0.170145 0.918062
163 2 0.283172 0.225558 0.365427
164 2 0.594088 0.227578 0.295183
165 2 0.254038 0.477559 0.586867
166 2 0.329625 0.19431 0.94798
167 2 0.136122 0.154951 0.730618
168 2 0.985109 0.412724 0.637247
169 2 0.351327 0.417627 0.665225
170 2 0.201868 0.0689386 0.409918
171 2 0.0894198 0.166157 0.323257
172 2 0.242175 0.33992 0.484406
173 2 0.259353 0.428909 0.422397
174 2 0.468027 0.0930118 0.239612
175 2 0.0345741 0.414709 0.294126
176 2 0.399663 0.296103 0.356197
177 2 0.436125 0.400324 0.871681
178 2 0.318445 0.128821 0.271615
179 2 0.0417006 0.421202 0.803759
180 2 0.160176 0.113793 0.420257
181 2 0.296322 0.355692 0.572954
182 2 0.212015 0.225202 0.889448
183 2 0.573344 0.502359 0.554112
184 2 0.954725 0.194207 0.303162
185 2 0.249668 0.414553 0.902656
186 2 0.167688 0.136357 0.871746
187 2 0.936058 0.0639407 0.303535
188 2 0.0746933 0.39959 0.366225
189 2 0.191465 0.0738342 0.623477
190 2 0.157834 0.349656 0.257312
191 2 0.0473232 0.436118 0.40858
192 2 0.250337 0.113293 0.487366
193 2 0.967195 0.0726028 0.700548
194 2 0.287932 0.536586 0.336219
195 2 0.48001 0.219361 0.467506
196 2 0.460828 0.881407 0.447018
197 2 0.05347 0.0865266 0.276872
198 2 0.916462 0.213227 0.485033
199 2 0.245945 0.579115 0.846209
200 2 0.383454 0.382773 0.459838
201 2 0.27275 0.144506 0.928765
202 2 0.143302 0.225432 0.648577
203 2 0.0846498 0.48508 0.391643
204 2 0.516234 0.0616788 0.223066
205 2 0.487218 0.179537 0.427394
206 2 0.0153988 0.275654 0.216732
207 2 0.191478 0.11502 0.296456
208 2 0.684781 0.862017 0.221812
209 2 0.910451 0.569503 0.533041
210 2 0.132766 0.100071 0.297193
211 2 0.509978 0.970996 0.280133
212 2 0.953814 0.890105 0.411747
213 2 0.948084 0.00846056 0.420586
214 2 0.421712 0.960501 0.670855
215 2 0.294636 0.192004 0.271123
216 2 0.908916 0.719166 0.452025
217 2 0.0895844 0.219393 0.26401
218 2 0.09656 0.409158 0.388084
219 2 0.957689 0.0449325 0.584501
220 2 0.951013 0.411665 0.274896
221 2 0.349173 0.277435 0.995019
222 2 0.0973669 0.267415 0.911469
223 2 0.21329 0.640722 0.686193
224 2 0.196649 0.860918 0.757698
225 2 0.796262 0.497536 0.551697
226 2 0.618864 0.200151 0.64353
227 2 0.423792 0.98584 0.39802
228 2 0.229776 0.282563 0.946624
229 2 0.326244 0.144656 0.476917
230 2 0.343049 0.242307 0.358451
231 2 0.246731 0.540705 0.384924
232 2 0.977109 0.792648 0.136805
233 2 0.0622623 0.0136441 0.26186
234 2 0.260773 0.911826 0.447829
235 2 0.190161 0.982521 0.223944
236 2 0.225738 0.866786 0.299041
237 2 0.0370454 0.911962 0.383761
238 2 0.216911 0.179886 0.872174
239 2 0.985857 0.115359 0.234631
240 2 0.906403 0.148327 0.456465
241 2 0.381246 0.283621 0.44818
242 2 0.999151 0.447706 0.835722
243 2 0.402187 0.933849 0.347249
244 2 0.121237 0.172899 0.305576
245 2 0.341603 0.752038 0.829764
246 2 0.798667 0.381929 0.64469
247 2 0.964151 0.249593 0.487966
248 2 0.310325 0.232293 0.0355967
249 2 0.417233 0.783852 0.36945
250 2 0.257448 0.170815 0.425172
251 2 0.518321 0.582262 0.862199
252 2 0.145554 0.746287 0.781061
253 2 0.15325 0.585637 0.397087
254 2 0.123221 0.178146 0.256542
255 2 0.413274 0.222631 0.333611
256 2 0.568937 0.0535226 0.890225
257 2 0.419307 0.354358 0.423806
258 2 0.498603 0.0770951 0.736406
259 2 0.377194 0.551569 0.342012
260 2 0.371988 0.124335 0.343824
261 2 0.0431101 0.509547 0.87842
262 2 0.273643 0.292391 0.897801
263 2 0.601965 0.0741575 0.192848
264 2 0.115339 0.174272 0.778999
265 2 0.363931 0.086463 0.348938
266 2 0.138318 0.524286 0.365727
267 2 0.938928 0.472403 0.949835
268 2 0.195756 0.273005 0.863914
269 2 0.258209 0.399231 0.560105
270 2 0.223902 0.168575 0.820316
271 2 0.0794734 0.272326 0.34623
272 2 0.931833 0.234089 0.332764
273 2 0.594888 0.361593 0.267925
274 2 0.254944 0.156718 0.345601
275 2 0.356053 0.149027 0.324594
276 2 0.622344 0.605454 0.370114
277 2 0.643542 0.881629 0.414797
278 2 0.574083 0.179578 0.914621
279 2 0.197341 0.400176 0.869442
280 2 0.0464457 0.129954 0.366522
281 2 0.0677198 0.148389 0.183361
282 2 0.263919 0.74472 0.0131131
283 2 0.439401 0.0386426 0.255074
284 2 0.27087 0.396227 0.3822
285 2 0.377778 0.129899 0.261457
286 2 0.943571 0.89918 0.52272
287 2 0.295784 0.238461 0.00951978
288 2 0.679863 0.0901311 0.281644
289 2 0.812722 0.381612 0.288069
290 2 0.119149 0.751453 0.468431
291 2 0.0639074 0.79482 0.569035
292 2 0.432113 0.121915 0.279704
293 2 0.0844319 0.929282 0.877132
294 2 0.311113 0.206615 0.614319
295 2 0.169889 0.394815 0.347645
296 2 0.089935 0.340151 0.362625
297 2 0.143683 0.359276 0.435338
298 2 0.181454 0.77913 0.458841
299 2 0.880874 0.355458 0.44898
300 2 0.153559 0.427294 0.577441
301 2 0.239433 0.409466 0.960763
302 2 0.161879 0.996034 0.901326
303 2 0.257684 0.204378 0.0457931
304 2 0.0936818 0.805051 0.392089
305 2 0.24488 0.201974 0.238995
306 2 0.394329 0.327914 0.41483
307 2 0.822931 0.602783 0.637002
308 2 0.478082 0.795855 0.593445
309 2 0.897009 0.364322 0.967336
310 2 0.294876 0.114433 0.837879
311 2 0.240337 0.463271 0.816435
312 2 0.95897 0.0617049 0.444406
313 2 0.143039 0.770381 0.252122
314 2 0.341229 0.0233796 0.392468
315 2 0.686354 0.944852 0.436743
316 2 0.552227 0.746966 0.212086
317 2 0.426425 0.0334572 0.606851
318 2 0.132378 0.577769 0.273697
319 2 0.141347 0.479043 0.511381
320 2 0.569385 0.406765 0.343352
321 2 0.199668 0.500622 0.38556
322 2 0.499373 0.883261 0.450819
323 2 0.458101 0.0773323 0.452094
324 2 0.442693 0.132624 0.390187
325 2 0.398248 0.33824 0.846091
326 2 0.800671 0.455252 0.423079
327 2 0.185513 0.372371 0.886648
328 2 0.140634 0.299129 0.241066
329 2 0.0324425 0.332445 0.855423
330 2 0.18152 0.563325 0.697622
331 2 0.287433 0.335159 0.000925087
332 2 0.327335 0.671049 0.84433
333 2 0.440927 0.353178 0.584951
334 2 0.9623 0.0891917 0.797331
335 2 0.317441 0.254358 0.970774
336 2 0.261364 0.344124 0.61559
337 2 0.211175 0.645325 0.553039
338 2 0.321571 0.989229 0.280826
339 2 0.311923 0.440796 0.399724
340 2 0.233955 0.984345 0.557376
341 2 0.0725341 0.293877 0.880697
342 2 0.860854 0.306546 0.909146
343 2 0.0888253 0.26495 0.787024
344 2 0.251312 0.347623 0.338972
345 2 0.510122 0.199701 0.329681
346 2 0.493534 0.758973 0.440449
347 2 0.620585 0.231614 0.826547
348 2 0.239405 0.271272 0.301864
349 2 0.466976 0.732252 0.33599
350 2 0.653435 0.148983 0.581194
351 2 0.0159702 0.213888 0.202804
352 2 0.00379741 0.859199 0.511963
353 2 0.47555 0.59429 0.44334
354 2 0.360112 0.0493939 0.446975
355 2 0.043715 0.338525 0.32375
356 2 0.304981 0.513857 0.463871
357 2 0.215018 0.714618 0.32789
358 2 0.0912234 0.646459 0.59198
359 2 0.224881 0.558798 0.940176
360 2 0.238345 0.518304 0.84832
361 2 0.283099 0.149137 0.3627
362 2 0.234743 0.701189 0.541044
363 2 0.957022 0.859222 0.723074
364 2 0.0300931 0.855983 0.389145
365 2 0.152302 0.0574419 0.44136
366 2 0.410779 0.191949 0.513392
367 2 0.310197 0.755803 0.369239
368 2 0.0422988 0.258082 0.814904
369 2 0.296596 0.398971 0.991376
370 2 0.974515 0.854848 0.411776
371 2 0.341214 0.725549 0.403362
372 2 0.219874 0.0655437 0.759721
373 2 0.0106312 0.0225809 0.350022
374 2 0.50165 0.0125526 0.494076
375 2 0.420032 0.31878 0.315613
376 2 0.171678 0.0986121 0.337068
377 2 0.147664 0.998609 0.470145
378 2 0.995373 0.205817 0.875934
379 2 0.865047 0.135276 0.280567
380 2 0.580648 0.15833 0.224834
381 2 0.400441 0.613897 0.930669
382 2 0.404908 0.875087 0.669737
383 2 0.977797 0.30326 0.928677
384 2 0.53037 0.22263 0.347975
385 2 0.190306 0.273938 0.332093
386 2 0.636995 0.0467654 0.270469
387 2 0.191832 0.105305 0.268883
388 2 0.619922 0.271104 0.417988
389 2 0.474886 0.00658281 0.447454
390 2 0.924547 0.376379 0.930239
391 2 0.223073 0.305076 0.42509
392 2 0.121243 0.205063 0.916565
393 2 0.405615 0.52563 0.514648
394 2 0.0866776 0.0484425 0.306017
395 2 0.389086 0.398694 0.486465
396 2 0.19781 0.265708 0.51751
397 2 0.955884 0.770241 0.458915
398 2 0.323368 0.464146 0.802553
399 2 0.297273 0.0165927 0.346598
400 2 0.227779 0.287308 0.682608
401 2 0.251866 0.205914 0.436054
402 2 0.155996 0.40823 0.781907
403 2 0.316359 0.770409 0.0650625
404 2 0.440659 0.993262 0.481607
405 2 0.111963 0.248013 0.396863
406 2 0.948791 0.0741308 0.539742
407 2 0.0520799 0.47933 0.448807
408 2 0.395337 0.181115 0.22231
409 2 0.290999 0.0147036 0.78016
410 2 0.127996 0.000310923 0.600239
411 2 0.527247 0.963481 0.254594
412 2 0.943534 0.11472 0.327164
413 2 0.529887 0.143966 0.399884
414 2 0.0573976 0.378634 0.689865
415 2 0.639189 0.764427 0.362537
416 2 0.540311 0.684287 0.4487
417 2 0.337484 0.0837477 0.369085
418 2 0.398587 0.19679 0.248968
419 2 0.559935 0.881407 0.476913
420 2 0.856298 0.459281 0.238053
421 2 0.0550906 0.871911 0.310243
422 2 0.115053 0.48715 0.582056
423 2 0.087628 0.788442 0.762046
424 2 0.990323 0.996133 0.336613
425 2 0.302203 0.0546525 0.257562
426 2 0.26398 0.789933 0.514379
427 2 0.37207 0.399548 0.563564
428 2 0.0952584 0.235937 0.156909
429 2 0.0811807 0.258852 0.223407
430 2 0.115192 0.427001 0.888612
431 2 0.282374 0.441505 0.5306
432 2 0.633938 0.967198 0.521956
433 2 0.423017 0.124922 0.479522
434 2 0.11394 0.327346 0.289489
435 2 0.217964 0.126197 0.785729
436 2 0.321709 0.644391 0.0331962
437 2 0.297041 0.00507132 0.29973
438 2 0.823713 0.566603 0.265142
439 2 0.803702 0.111629 0.383099
440 2 0.437704 0.0591122 0.894727
441 2 0.408992 0.360112 0.261212
442 2 0.205252 0.554179 0.914269
443 2 0.561674 0.201715 0.948783
444 2 0.325046 0.511874 0.621607
445 2 0.248174 0.309616 0.663896
446 2 0.172943 0.202384 0.697178
447 2 0.111737 0.248684 0.828077
448 2 0.413584 0.0787241 0.300153
449 2 0.308475 0.299874 0.620002
450 2 0.112678 0.94343 0.45303
451 2 0.857573 0.42245 0.499891
452 2 0.303069 0.169358 0.609858
453 2 0.405927 0.44389 0.457302
454 2 0.054871 0.329358 0.458303
455 2 0.147358 0.629535 0.29689
456 2 0.788219 0.584647 0.306394
457 2 0.118456 0.968888 0.857997
458 2 0.326006 0.233387 0.813829
459 2 0.350278 0.0995084 0.302088
460 2 0.39788 0.246948 0.626349
461 2 0.294827 0.205278 0.670202
462 2 0.58881 0.25698 0.33893
463 2 0.252737 0.383789 0.920689
464 2 0.466309 0.363922 0.300006
465 2 0.31404 0.435218 0.333681
466 2 0.98504 0.328577 0.283872
467 2 0.414741 0.889155 0.420972
468 2 0.0761329 0.875141 0.486787
469 2 0.351954 0.182872 0.278304
470 2 0.780053 0.202454 0.375469
471 2 0.995963 0.0753846 0.320248
472 2 0.50908 0.353495 0.506419
473 2 0.0973398 0.374288 0.352859
474 2 0.13263 0.311947 0.817551
475 2 0.367912 0.674841 0.377178
476 2 0.142677 0.252678 0.471741
477 2 0.703345 0.115204 0.753049
478 2 0.434771 0.327298 0.845492
479 2 0.107671 0.145281 0.217802
480 2 0.0205786 0.941343 0.604139
481 2 0.214943 0.257037 0.565196
482 2 0.276883 0.16989 0.39926
483 2 0.244366 0.143439 0.468959
484 2 0.599875 0.0134222 0.782652
485 2 0.52973 0.965452 0.462751
486 2 0.031616 0.349936 0.370241
487 2 0.450523 0.486673 0.351636
488 2 0.377451 0.149214 0.548653
489 2 0.165711 0.323223 0.614898
490 2 0.278401 0.0532234 0.868629
491 2 0.169257 0.215755 0.328931
492 2 0.981345 0.066635 0.467533
493 2 0.960323 0.560579 0.30716
494 2 0.289913 0.565281 0.95101
495 2 0.0558765 0.438326 0.275973
496 2 0.877161 0.745048 0.818341
497 2 0.700041 0.314649 0.953663
498 2 0.45848 0.695993 0.560079
499 2 0.988681 0.33409 0.893476
500 2 0.69944 0.0391069 0.420508
501 2 0.340239 0.31177 0.843939
502 2 0.718279 0.488587 0.235324
503 2 0.513467 0.133912 0.484104
504 2 0.441031 0.472927 0.506576
505 2 0.318799 0.269832 0.879882
506 2 0.191571 0.44053 0.967474
507 2 0.192025 0.414791 0.989367
508 2 0.101771 0.0567676 0.243642
509 2 0.743331 0.531536 0.474063
510 2 0.145661 0.157723 0.165483
511 2 0.351015 0.459 0.287397
512 2 0.8238 0.369182 0.688076
513 2 0.699138 0.358964 0.407752
514 2 0.346743 0.0961487 0.896011
515 2 0.935091 0.288674 0.51498
516 2 0.589113 0.309196 0.869146
517 2 0.272263 0.150516 0.44808
518 2 0.0158855 0.106193 0.400227
519 2 0.23926 0.164394 0.510383
520 2 0.848193 0.436893 0.876947
521 2 0.963083 0.437331 0.652542
522 2 0.811286 0.287852 0.37204
523 2 0.905221 0.682074 0.405439
524 2 0.200364 0.442372 0.40184
525 2 0.478814 0.558375 0.304801
526 2 0.197764 0.291126 0.958888
527 2 0.500554 0.268378 0.626408
528 2 0.977945 0.437498 0.859408
529 2 0.484321 0.324701 0.332803
530 2 0.0189508 0.48935 0.955544
531 2 0.243303 0.705007 0.716279
532 2 0.178269 0.307474 0.389264
533 2 0.161103 0.184333 0.197335
534 2 0.275112 0.236586 0.478614
535 2 0.318078 0.141767 0.319882
536 2 0.0792501 0.641023 0.438384
537 2 0.831165 0.27321 0.279624
538 2 0.738522 0.958815 0.237104
539 2 0.0734889 0.157102 0.368985
540 2 0.339924 0.146139 0.359292
541 2 0.31373 0.707957 0.787884
542 2 0.967667 0.415864 0.929489
543 2 0.133549 0.323104 0.690614
544 2 0.525235 0.69638 0.32691
545 2 0.375179 0.582139 0.763635
546 2 0.331625 0.876738 0.334023
547 2 0.192342 0.0101573 0.437224
548 2 0.332328 0.0319291 0.900081
549 2 0.0905219 0.161829 0.798752
550 2 0.331331 0.165739 0.422403
551 2 0.0281544 0.177806 0.171583
552 2 0.034239 0.0739209 0.23615
553 2 0.12449 0.122183 0.669855
554 2 0.522395 0.25757 0.435198
555 2 0.403483 0.385193 0.807101
556 2 0.274178 0.243338 0.528707
557 2 0.0887182 0.338664 0.586612
558 2 0.233538 0.4032 0.353828
559 2 0.95017 0.329323 0.610941
560 2 0.340148 0.978055 0.484585
561 2 0.590583 0.90122 0.603866
562 2 0.448289 0.402567 0.386731
563 2 0.341287 0.0990849 0.418828
564 2 0.162616 0.415963 0.445329
565 2 0.359544 0.427953 0.599827
566 2 0.612345 0.938699 0.634499
567 2 0.0827858 0.0159785 0.469815
568 2 0.740558 0.155555 0.442418
569 2 0.0383827 0.38833 0.371744
570 2 0.532151 0.247478 0.300079
571 2 0.844343 0.266258 0.32611
572 2 0.849432 0.568799 0.501723
573 2 0.323093 0.370906 0.510622
574 2 0.0493954 0.539646 0.3097
575 2 0.308106 0.633192 0.475828
576 2 0.362163 0.655919 0.0677091
577 2 0.161841 0.495198 0.375417
578 2 0.422364 0.372551 0.522855
579 2 0.326719 0.85178 0.599276
580 2 0.639939 0.909706 0.22255
581 2 0.381444 0.994857 0.86218
582 2 0.404651 0.239452 0.574594
583 2 0.371782 0.392955 0.591289
584 2 0.508482 0.982824 0.341958
585 2 0.0546937 0.184002 0.322502
586 2 0.254056 0.293784 0.406467
587 2 0.397167 0.205903 0.867506
588 2 0.0494401 0.565815 0.875078
589 2 0.979348 0.242842 0.829353
590 2 0.137332 0.820605 0.485174
591 2 0.488543 0.0163481 0.19974
592 2 0.365044 0.523453 0.765051
593 2 0.457139 0.195858 0.541632
594 2 0.0573886 0.247587 0.291316
595 2 0.258267 0.942528 0.620302
596 2 0.466219 0.20761 0.568247
597 2 0.296121 0.428084 0.480783
598 2 0.39784 0.986726 0.817359
599 2 0.826941 0.719986 0.27925
600 2 0.462009 0.203626 0.296202
601 2 0.377475 0.954917 0.301887
602 2 0.430151 0.185628 0.488202
603 2 0.292527 0.436053 0.870044
604 2 0.418145 0.399267 0.226193
605 2 0.143058 0.319851 0.335179
606 2 0.707424 0.0345075 0.807179
607 2 0.409309 0.102845 0.93491
608 2 0.160932 0.0702096 0.355548
609 2 0.315444 0.11571 0.298701
610 2 0.935747 0.0374484 0.282053
611 2 0.0144015 0.222791 0.457804
612 2 0.156215 0.593455 0.933007
613 2 0.14452 0.26655 0.404772
614 2 0.831415 0.629343 0.869058
615 2 0.160869 0.180428 0.817678
616 2 0.465732 0.244486 0.575289
617 2 0.312325 0.491583 0.553944
618 2 0.647041 0.676973 0.493411
619 2 0.276386 0.259111 0.455269
620 2 0.212991 0.158189 0.325415
621 2 0.140054 0.194747 0.174889
622 2 0.253708 0.540421 0.0234593
623 2 0.19117 0.160867 0.349152
624 2 0.966616 0.94522 0.321066
625 2 0.781669 0.28431 0.447867
626 2 0.930957 0.992566 0.370112
627 2 0.184362 0.815182 0.877325
628 2 0.369828 0.352593 0.220381
629 2 0.598371 0.783998 0.541803
630 2 0.0248281 0.949555 0.446792
631 2 0.184681 0.0777518 0.751182
632 2 0.379326 0.5948 0.910863
633 2 0.17968 0.0968713 0.398884
634 2 0.991041 0.494586 0.605991
635 2 0.242559 0.132102 0.326252
636 2 0.420133 0.969587 0.347387
637 2 0.730001 0.22754 0.507467
638 2 0.218785 0.137857 0.905477
639 2 0.137581 0.587072 0.763892
640 2 0.215087 0.884497 0.926596
641 2 0.309413 0.1312 0.347115
642 2 0.316134 0.168926 0.395848
643 2 0.127311 0.684725 0.416376
644 2 0.21912 0.233723 0.51269
645 2 0.757657 0.478952 0.46646
646 2 0.362063 0.43589 0.55951
647 2 0.207019 0.230745 0.466215
648 2 0.970778 0.497548 0.290366
649 2 0.441253 0.0559508 0.500471
650 2 0.482651 0.38431 0.218981
651 2 0.249424 0.207623 0.304592
652 2 0.951928 0.733218 0.179059
653 2 0.191707 0.909546 0.941429
654 2 0.115423 0.924858 0.895099
655 2 0.881768 0.344743 0.65666
656 2 0.273708 0.430976 0.395774
657 2 0.199969 0.395295 0.311569
658 2 0.173085 0.550823 0.745449
659 2 0.376873 0.15505 0.282153
660 2 0.194349 0.337075 0.259028
661 2 0.298132 0.247714 0.387241
662 2 0.696234 0.610282 0.465461
663 2 0.188437 0.117601 0.485132
664 2 0.375891 0.310151 0.762689
665 2 0.336759 0.950969 0.938604
666 2 0.877969 0.010489 0.288036
667 2 0.310683 0.552948 0.497937
668 2 0.0541388 0.96023 0.558046
669 2 0.31572 0.077757 0.932457
670 2 0.467831 0.268184 0.276434
671 2 0.995589 0.179204 0.239745
672 2 0.509734 0.228042 0.265084
673 2 0.0795987 0.233444 0.350269
674 2 0.201393 0.478498 0.502167
675 2 0.119064 0.679296 0.6772
676 2 0.0382601 0.674503 0.340619
677 2 0.473507 0.618267 0.486563
678 2 0.340427 0.140633 0.387245
679 2 0.572532 0.829694 0.394932
680 2 0.03022 0.0306664 0.267836
681 2 0.0645818 0.383203 0.494367
682 2 0.126992 0.213438 0.267888
683 2 0.613555 0.654473 0.215672
684 2 0.257654 0.589527 0.989932
685 2 0.0648688 0.208878 0.905497
686 2 0.85236 0.237034 0.557656
687 2 0.264558 0.682583 0.348689
688 2 0.510096 0.511911 0.461841
689 2 0.378205 0.970793 0.839306
690 2 0.596691 0.409386 0.474813
691 2 0.608087 0.663043 0.257034
692 2 0.101104 0.376826 0.402808
693 2 0.510572 0.358972 0.870395
694 2 0.17686 0.79348 0.900145
695 2 0.589503 0.154918 0.561573
696 2 0.586952 0.383 0.309244
697 2 0.366392 0.310242 0.429845
698 2 0.261543 0.880595 0.358371
699 2 0.765252 0.152829 0.302708
700 2 0.375705 0.27146 0.259329
701 2 0.318885 0.791773 0.465888
702 2 0.395018 0.295933 0.713489
703 2 0.187258 0.11506 0.534635
704 2 0.151991 0.155133 0.317237
705 2 0.316789 0.321324 0.313798
706 2 0.508293 0.110666 0.687575
707 2 0.23258 0.235582 0.228578
708 2 0.254407 0.363462 0.395361
709 2 0.355472 0.961852 0.728133
710 2 0.0912508 0.49068 0.363089
711 2 0.486889 0.0976155 0.264803
712 2 0.505859 0.192984 0.872358
713 2 0.849121 0.606051 0.587121
714 2 0.0443396 0.603357 0.398515
715 2 0.246832 0.765838 0.335996
716 2 0.480369 0.361056 0.369697
717 2 0.287732 0.0759605 0.890953
718 2 0.165608 0.27189 0.381208
719 2 0.969535 0.90508 0.693052
720 2 0.090434 0.147232 0.394606
721 2 0.158061 0.146744 0.752548
722 2 0.583672 0.252305 0.453409
723 2 0.482007 0.248685 0.232759
724 2 0.30809 0.280755 0.906466
725 2 0.314693 0.458332 0.0374532
726 2 0.365781 0.20951 0.260337
727 2 0.301796 0.416147 0.018498
728 2 0.036589 0.815198 0.554802
729 2 0.238076 0.394516 0.520749
730 2 0.141607 0.65646 0.31717
731 2 0.546634 0.3285 0.770447
732 2 0.912433 0.2379 0.187249
733 2 0.51631 0.179961 0.407571
734 2 0.43609 0.37942 0.247255
735 2 0.520123 0.126208 0.211066
736 2 0.934077 0.0794643 0.248859
737 2 0.883103 0.0763537 0.333256
738 2 0.0132902 0.358024 0.430578
739 2 0.932824 0.333874 0.899879
740 2 0.342099 0.602634 0.657259
741 2 0.433053 0.167426 0.400689
742 2 0.0290248 0.434691 0.937315
743 2 0.453471 0.436973 0.324387
744 2 0.172119 0.19482 0.385998
745 2 0.258464 0.0148936 0.272747
746 2 0.0124209 0.367828 0.503647
747 2 0.347208 0.0167635 0.277194
748 2 0.420737 0.228324 0.243335
749 2 0.0821232 0.161065 0.15877
750 2 0.108012 0.0390167 0.37765
751 2 0.178489 0.297133 0.288803
752 2 0.427418 0.563389 0.682943
753 2 0.980433 0.241934 0.416012
754 2 0.143019 0.575315 0.505242
755 2 0.20387 0.115245 0.381036
756 2 0.241072 0.954301 0.317476
757 2 0.266786 0.132682 0.804602
758 2 0.973642 0.227707 0.265168
759 2 0.0632562 0.538923 0.545227
760 2 0.11554 0.221106 0.344414
761 2 0.430952 0.90807 0.91596
762 2 0.351355 0.134811 0.456834
763 2 0.415122 0.312773 0.4766
764 2 0.309884 0.920533 0.400738
765 2 0.522248 0.698296 0.548547
766 2 0.989373 0.361694 0.91451
767 2 0.6784 0.331212 0.275726
768 2 0.403239 0.139912 0.355031
769 2 0.449052 0.386826 0.502692
770 2 0.620914 0.533725 0.261894
771 2 0.15226 0.417859 0.2877
772 2 0.49035 0.0309581 0.270521
773 2 0.262932 0.139607 0.255183
774 2 0.670505 0.221655 0.397006
775 2 0.212109 0.111029 0.812267
776 2 0.290201 0.995341 0.370482
777 2 0.148452 0.254085 0.892736
778 2 0.113968 0.337424 0.443792
779 2 0.43299 0.249939 0.387185
780 2 0.33849 0.237079 0.479227
781 2 0.304914 0.229849 0.237817
782 2 0.863041 0.127467 0.20456
783 2 0.208635 0.457979 0.0305319
784 2 0.495754 0.523127 0.216606
785 2 0.391778 0.127639 0.795054
786 2 0.156972 0.510402 0.903687
787 2 0.228228 0.860705 0.514775
788 2 0.228543 0.119743 0.426117
789 2 0.0164265 0.155212 0.518821
790 2 0.674759 0.359116 0.432208
791 2 0.234048 0.203293 0.462226
792 2 0.257989 0.129895 0.513176
793 2 0.43257 0.313904 0.362797
794 2 0.197911 0.603116 0.871086
795 2 0.276841 0.131262 0.556747
796 2 0.519114 0.242867 0.540462
797 2 0.280655 0.0598025 0.310847
798 2 0.427188 0.199878 0.443591
799 2 0.297812 0.563429 0.00051632
800 2 0.498528 0.0949822 0.217918
801 2 0.300128 0.175839 0.316119
802 2 0.606412 0.491389 0.361119
803 2 0.157017 0.366115 0.390634
804 2 0.120715 0.63439 0.33435
805 2 0.424258 0.338498 0.536594
806 2 0.547354 0.366122 0.245633
807 2 0.538465 0.189982 0.310964
808 2 0.230095 0.0164687 0.321788
809 2 0.0565484 0.146777 0.441533
810 2 0.148923 0.272642 0.287521
811 2 0.0536168 0.688777 0.315965
812 2 0.238709 0.374971 0.544691
813 2 0.875932 0.935014 0.766001
814 2 0.943945 0.171189 0.422043
815 2 0.301315 0.934558 0.352583
816 2 0.145273 0.315814 0.88778
817 2 0.544027 0.997134 0.338328
818 2 0.990442 0.251645 0.284164
819 2 0.156962 0.920271 0.548713
820 2 0.194533 0.299302 0.262334
821 2 0.682655 0.502278 0.242838
822 2 0.0993504 0.311517 0.402121
823 2 0.142557 0.938552 0.754297
824 2 0.641098 0.0913316 0.428401
825 2 0.089397 0.785635 0.54871
826 2 0.53204 0.763805 0.915617
827 2 0.132685 0.266891 0.314434
828 2 0.0510608 0.283405 0.386862
829 2 0.344731 0.918787 0.977611
830 2 0.951519 0.393062 0.888134
831 2 0.00447274 0.541022 0.69276
832 2 0.89851 0.694338 0.688216
833 2 0.942829 0.154816 0.448581
834 2 0.000802303 0.453158 0.435905
835 2 0.456111 0.239687 0.898854
836 2 0.322986 0.224416 0.400458
837 2 0.955285 0.153794 0.267584
838 2 0.325138 0.916831 0.373337
839 2 0.477833 0.13557 0.379396
840 2 0.122724 0.508104 0.860006
841 2 0.228541 0.198996 0.67443
842 2 0.0169533 0.920001 0.910376
843 2 0.0442157 0.37985 0.955483
844 2 0.585637 0.965834 0.276669
845 2 0.690783 0.383908 0.532651
846 2 0.21092 0.938883 0.865794
847 2 0.997992 0.178507 0.668493
848 2 0.921398 0.245687 0.287697
849 2 0.164263 0.449168 0.410902
850 2 0.1145 0.294827 0.534006
851 2 0.0219414 0.210111 0.500239
852 2 0.497695 0.232742 0.393684
853 2 0.385191 0.950551 0.250967
854 2 0.0824379 0.132888 0.310481
855 2 0.866353 0.963638 0.52087
856 2 0.364278 0.262242 0.488062
857 2 0.224682 0.0389163 0.367034
858 2 0.255141 0.213751 0.580589
859 2 0.424014 0.38496 0.338211
860 2 0.0462243 0.207251 0.184385
861 2 0.408357 0.258812 0.201147
862 2 0.482484 0.361805 0.325731
863 2 0.808886 0.620219 0.333658
864 2 0.175694 0.33301 0.298973
865 2 0.200434 0.164288 0.512277
866 2 0.358104 0.557133 0.460123
867 2 0.143427 0.784376 0.384573
868 2 0.493253 0.342619 0.411693
869 2 0.220747 0.390238 0.981895
870 2 0.184172 0.124527 0.35685
871 2 0.530385 0.260597 0.272722
872 2 0.074687 0.365521 0.285518
873 2 0.528733 0.441027 0.379453
874 2 0.444202 0.911274 0.433224
875 2 0.202389 0.0374252 0.683923
876 2 0.662778 0.129473 0.230486
877 2 0.0428447 0.821498 0.280577
878 2 0.187389 0.129155 0.209081
879 2 0.673027 0.88463 0.504106
880 2 0.83347 0.774062 0.229112
881 2 0.187151 0.984466 0.509939
882 2 0.401138 0.617505 0.351318
883 2 0.317097 0.212917 0.354058
884 2 0.314494 0.277259 0.772631
885 2 0.991626 0.296977 0.901817
886 2 0.102157 0.157853 0.34921
887 2 0.310539 0.0406254 0.301465
888 2 0.301874 0.16772 0.462901
889 2 0.185241 0.00415484 0.282784
890 2 0.0370546 0.306594 0.306809
891 2 0.762349 0.892279 0.119866
892 2 0.257556 0.243948 0.345883
893 2 0.360544 0.197116 0.837739
894 2 0.00300475 0.439351 0.958254
895 2 0.204003 0.308453 0.338982
896 2 0.120061 0.410947 0.994951
897 2 0.92808 0.421931 0.891688
898 2 0.278898 0.33687 0.474277
899 2 0.245443 0.918268 0.327753
900 2 0.219884 0.0620572 0.523525
901 2 0.209858 0.579227 0.53682
902 2 0.256468 0.00416356 0.942065
903 2 0.186469 0.334792 0.459833
904 2 0.0523912 0.299012 0.856194
905 2 0.215643 0.205543 0.290391
906 2 0.366912 0.191969 0.358962