 vasp.6.5.0 16Dec24 (build Jan 20 2025 08:32:48) complex                         
 executed on        HPECrayEX_GCC date 2025.07.22  00:30:27
 running  128 mpi-ranks, with    1 threads/rank, on    1 nodes
 distrk:  each k-point on  128 cores,    1 groups
 distr:  one band on NCORE=  16 cores,    8 groups


--------------------------------------------------------------------------------------------------------


 INCAR:
   SYSTEM = a-Si SPC
   NCORE = 16
   ISTART = 1
   ICHARG = 1
   ISPIN = 1
   ISYM = 1
   EDIFF = 1E-6
   NELM = 150
   EDIFFG = -0.01
   NSW = 0
   ISIF = 2
   IBRION = -1
   PREC = Accurate
   ENCUT = 1200
   KSPACING = 0.23
   KGAMMA = .TRUE.
   METAGGA = SCAN
   LASPH = .TRUE.
   LDIAG = .FALSE.
   LMIXTAU = .TRUE.
   ADDGRID = .TRUE.
   ALGO = Normal
   ISMEAR = 0
   SIGMA = 0.1
   LORBIT = 11
   NEDOS = 2000
   LWAVE = .FALSE.
   LCHARG = .FALSE.

 POTCAR:    PAW_PBE H 15Jun2001                   
 POTCAR:    PAW_PBE Si 05Jan2001                  
 POTCAR:    PAW_PBE H 15Jun2001                   
   SHA256 =  030f79b5d3ab3cf0e668861823c8fb652ff669f3e15e46930bd03bfd63a607b6 H/POTCAR              
   COPYR  = (c) Copyright 15Jun2001 Georg Kresse                                                    
   COPYR  = This file is part of the software VASP. Any use, copying, and all other rights are regul
   COPYR  = If you do not have a valid VASP license, you may not use, copy or distribute this file. 
   VRHFIN =H: ultrasoft test                                                                        
   LEXCH  = PE                                                                                      
   EATOM  =    12.4884 eV,    0.9179 Ry                                                             
                                                                                                    
   TITEL  = PAW_PBE H 15Jun2001                                                                     
   LULTRA =        F    use ultrasoft PP ?                                                          
   IUNSCR =        0    unscreen: 0-lin 1-nonlin 2-no                                               
   RPACOR =    0.000    partial core radius                                                         
   POMASS =    1.000; ZVAL   =    1.000    mass and valenz                                          
   RCORE  =    1.100    outmost cutoff radius                                                       
   RWIGS  =    0.700; RWIGS  =    0.370    wigner-seitz radius (au A)                               
   ENMAX  =  250.000; ENMIN  =  200.000 eV                                                          
   RCLOC  =    0.701    cutoff for local pot                                                        
   LCOR   =        T    correct aug charges                                                         
   LPAW   =        T    paw PP                                                                      
   EAUG   =  400.000                                                                                
   RMAX   =    1.123    core radius for proj-oper                                                   
   RAUG   =    1.200    factor for augmentation sphere                                              
   RDEP   =    1.112    radius for radial grids                                                     
   RDEPT  =    0.926    core radius for aug-charge                                                  
                                                                                                    
   Atomic configuration                                                                             
    2 entries                                                                                       
     n  l   j            E        occ.                                                              
     1  0  0.50        -6.4927   1.0000                                                             
     2  1  0.50        -3.4015   0.0000                                                             
   Description                                                                                      
     l       E           TYP  RCUT    TYP  RCUT                                                     
     0     -6.4927494     23  1.100                                                                 
     0      6.8029130     23  1.100                                                                 
     1     -4.0817478     23  1.100                                                                 
  local pseudopotential read in
  atomic valenz-charges read in
  non local Contribution for L=           0  read in
    real space projection operators read in
  non local Contribution for L=           0  read in
    real space projection operators read in
  non local Contribution for L=           1  read in
    real space projection operators read in
    PAW grid and wavefunctions read in

   number of l-projection  operators is LMAX  =           3
   number of lm-projection operators is LMMAX =           5

 POTCAR:    PAW_PBE Si 05Jan2001                  
   SHA256 =  79d9987ad8750f624c4d6acb2a16d13abf6a777132adc04dc6c8399be72b42bb Si/POTCAR             
   COPYR  = (c) Copyright 05Jan2001 Georg Kresse                                                    
   COPYR  = This file is part of the software VASP. Any use, copying, and all other rights are regul
   COPYR  = If you do not have a valid VASP license, you may not use, copy or distribute this file. 
   VRHFIN =Si: s2p2                                                                                 
   LEXCH  = PE                                                                                      
   EATOM  =   103.0669 eV,    7.5752 Ry                                                             
                                                                                                    
   TITEL  = PAW_PBE Si 05Jan2001                                                                    
   LULTRA =        F    use ultrasoft PP ?                                                          
   IUNSCR =        1    unscreen: 0-lin 1-nonlin 2-no                                               
   RPACOR =    1.500    partial core radius                                                         
   POMASS =   28.085; ZVAL   =    4.000    mass and valenz                                          
   RCORE  =    1.900    outmost cutoff radius                                                       
   RWIGS  =    2.480; RWIGS  =    1.312    wigner-seitz radius (au A)                               
   ENMAX  =  245.345; ENMIN  =  184.009 eV                                                          
   ICORE  =        2    local potential                                                             
   LCOR   =        T    correct aug charges                                                         
   LPAW   =        T    paw PP                                                                      
   EAUG   =  322.069                                                                                
   DEXC   =    0.000                                                                                
   RMAX   =    1.950    core radius for proj-oper                                                   
   RAUG   =    1.300    factor for augmentation sphere                                              
   RDEP   =    1.993    radius for radial grids                                                     
   RDEPT  =    1.837    core radius for aug-charge                                                  
                                                                                                    
   Atomic configuration                                                                             
    6 entries                                                                                       
     n  l   j            E        occ.                                                              
     1  0  0.50     -1785.8828   2.0000                                                             
     2  0  0.50      -139.4969   2.0000                                                             
     2  1  1.50       -95.5546   6.0000                                                             
     3  0  0.50       -10.8127   2.0000                                                             
     3  1  0.50        -4.0811   2.0000                                                             
     3  2  1.50        -4.0817   0.0000                                                             
   Description                                                                                      
     l       E           TYP  RCUT    TYP  RCUT                                                     
     0    -10.8127223     23  1.900                                                                 
     0     -7.6451159     23  1.900                                                                 
     1     -4.0811372     23  1.900                                                                 
     1      2.4879257     23  1.900                                                                 
     2     -4.0817478      7  1.900                                                                 
  local pseudopotential read in
  partial core-charges read in
  partial kinetic energy density read in
  atomic valenz-charges read in
  non local Contribution for L=           0  read in
    real space projection operators read in
  non local Contribution for L=           0  read in
    real space projection operators read in
  non local Contribution for L=           1  read in
    real space projection operators read in
  non local Contribution for L=           1  read in
    real space projection operators read in
    PAW grid and wavefunctions read in

   number of l-projection  operators is LMAX  =           4
   number of lm-projection operators is LMMAX =           8

 -----------------------------------------------------------------------------
|                                                                             |
|               ----> ADVICE to this user running VASP <----                  |
|                                                                             |
|     You have a (more or less) 'large supercell' and for larger cells it     |
|     might be more efficient to use real-space projection operators.         |
|     Therefore, try LREAL= Auto in the INCAR file.                           |
|     Mind: For very accurate calculation, you might also keep the            |
|     reciprocal projection scheme (i.e. LREAL=.FALSE.).                      |
|                                                                             |
 -----------------------------------------------------------------------------

 -----------------------------------------------------------------------------
|                                                                             |
|               ----> ADVICE to this user running VASP <----                  |
|                                                                             |
|     You enforced a specific xc type in the INCAR file but a different       |
|     type was found in the POTCAR file.                                      |
|     I HOPE YOU KNOW WHAT YOU ARE DOING!                                     |
|                                                                             |
 -----------------------------------------------------------------------------

  PAW_PBE H 15Jun2001                   :
 energy of atom  1       EATOM=  -12.4884
 kinetic energy error for atom=    0.0000 (will be added to EATOM!!)
  PAW_PBE Si 05Jan2001                  :
 energy of atom  2       EATOM= -103.0669
 kinetic energy error for atom=    0.0001 (will be added to EATOM!!)


 POSCAR:  H Si
  positions in cartesian coordinates
  No initial velocities read in


 exchange-correlation table for SCAN
   RHO(1)=    0.500       N(1)  =     2000
   RHO(2)=  100.500       N(2)  =     4000



--------------------------------------------------------------------------------------------------------


 ion  position               nearest neighbor table
   1  0.879  0.414  0.293-  18 1.49
   2  0.656  0.433  0.311-  30 1.45
   3  0.778  0.283  1.000-  41 1.45
   4  0.726  0.154  0.523-  63 1.54
   5  0.968  0.168  0.749-  76 1.57
   6  0.017  0.324  0.965-  54 1.39
   7  0.777  0.365  0.779-  41 1.41
   8  0.974  0.331  0.330-  53 1.49
   9  0.703  0.086  0.821-  11 1.45
  10  0.828  0.871  0.128-  84 2.29  27 2.32  40 2.33  39 2.51
  11  0.659  0.998  0.847-   9 1.45  40 2.43  36 2.44  31 2.49
  12  0.213  0.071  0.136-  61 2.31  45 2.33  26 2.36  91 2.40
  13  0.018  0.577  0.647-  83 2.32  16 2.34  46 2.43  14 2.49
  14  0.911  0.695  0.555-  89 2.32  37 2.41  25 2.46  13 2.49
  15  0.927  0.976  0.435-  89 2.34  77 2.44  39 2.44
  16  0.127  0.689  0.598-  19 2.33  13 2.34  88 2.34  50 2.48
  17  0.448  0.235  0.686-  62 2.40  29 2.44  87 2.47  22 2.50
  18  0.848  0.506  0.242-   1 1.49  25 2.34  30 2.34  34 2.45
  19  0.114  0.848  0.622-  21 2.28  55 2.33  16 2.33  89 2.35
  20  0.178  0.569  0.256-  59 2.38  47 2.39  78 2.40  50 2.41
  21  0.176  0.880  0.834-  69 2.23  19 2.28  71 2.34  60 2.37
  22  0.305  0.149  0.744-  86 2.22  42 2.29  61 2.37  17 2.50
  23  0.172  0.375  0.749-  64 2.25  46 2.34  86 2.40  54 2.47
  24  0.492  0.872  0.114-  90 2.32  81 2.48  72 2.52  31 2.53
  25  0.922  0.640  0.313-  18 2.34  84 2.36  14 2.46  50 2.51
  26  0.055  0.065  0.079-  60 2.32  12 2.36  39 2.55
  27  0.709  0.884  0.288-  43 2.27  10 2.32  81 2.33  33 2.34
  28  0.541  0.531  0.043-  85 2.36  68 2.40  82 2.42  57 2.48
  29  0.493  0.153  0.476-  67 2.23  49 2.44  17 2.44  63 2.48
  30  0.700  0.521  0.333-   2 1.45  80 2.33  18 2.34  68 2.35
  31  0.571  0.023  0.066-  75 2.44  43 2.46  11 2.49  24 2.53
  32  0.538  0.720  0.496-  33 2.38  80 2.41  56 2.50  51 2.64  81 2.83
  33  0.661  0.826  0.504-  37 2.30  27 2.34  36 2.36  32 2.38  81 2.87
  34  0.845  0.499  0.988-  48 2.30  83 2.36  18 2.45  41 2.45
  35  0.933  0.862  0.811-  89 2.32  60 2.44  40 2.47  70 2.58
  36  0.600  0.956  0.618-  33 2.36  11 2.44  63 2.48  49 2.59
  37  0.747  0.704  0.584-  80 2.29  33 2.30  14 2.41  65 2.53
  38  0.296  0.700  0.986-  78 2.27  90 2.33  74 2.38  71 2.42
  39  0.981  0.930  0.205-  52 2.40  15 2.44  10 2.51  26 2.55
  40  0.776  0.884  0.900-  10 2.33  11 2.43  35 2.47  65 2.51
  41  0.754  0.365  0.922-   7 1.41   3 1.45  82 2.28  34 2.45
  42  0.308  0.007  0.640-  22 2.29  69 2.33  55 2.35  49 2.44
  43  0.691  0.036  0.245-  27 2.27  63 2.40  31 2.46
  44  0.268  0.343  0.182-  47 2.32  79 2.33  45 2.40  66 2.47  85 2.91  67 3.13
  45  0.256  0.192  0.280-  73 2.32  12 2.33  67 2.36  44 2.40
  46  0.102  0.445  0.558-  23 2.34  53 2.36  59 2.43  13 2.43
  47  0.131  0.423  0.166-  44 2.32  54 2.39  20 2.39  53 2.43
  48  0.774  0.640  0.993-  84 2.28  34 2.30  68 2.33  65 2.36
  49  0.446  0.993  0.497-  29 2.44  42 2.44  72 2.48  36 2.59
  50  0.085  0.690  0.349-  52 2.39  20 2.41  16 2.48  25 2.51
  51  0.534  0.746  0.768-  57 2.31  65 2.49  32 2.64  90 2.71
  52  0.107  0.823  0.206-  50 2.39  39 2.40  71 2.43  91 2.48
  53  0.072  0.345  0.370-   8 1.49  46 2.36  73 2.43  47 2.43
  54  0.064  0.406  0.942-   6 1.39  47 2.39  83 2.46  23 2.47
  55  0.183  0.966  0.498-  19 2.33  42 2.35  77 2.35  91 2.43
  56  0.381  0.721  0.389-  72 2.41  78 2.44  32 2.50  88 2.57
  57  0.486  0.599  0.821-  74 2.25  51 2.31  58 2.35  28 2.48
  58  0.544  0.476  0.689-  57 2.35  62 2.39  82 2.50  80 2.68
  59  0.244  0.504  0.462-  66 2.35  20 2.38  46 2.43  88 2.44
  60  0.048  0.975  0.880-  26 2.32  21 2.37  76 2.39  35 2.44
  61  0.328  0.094  0.974-  12 2.31  22 2.37  69 2.39  75 2.46
  62  0.416  0.388  0.608-  64 2.39  58 2.39  17 2.40  66 2.44
  63  0.650  0.088  0.474-   4 1.54  43 2.40  29 2.48  36 2.48
  64  0.310  0.439  0.781-  23 2.25  74 2.36  79 2.37  62 2.39
  65  0.699  0.737  0.832-  48 2.36  51 2.49  40 2.51  37 2.53
  66  0.360  0.410  0.371-  59 2.35  62 2.44  44 2.47  85 2.50
  67  0.417  0.206  0.292-  29 2.23  45 2.36  75 2.39  44 3.13
  68  0.657  0.622  0.155-  48 2.33  30 2.35  81 2.40  28 2.40
  69  0.312  0.948  0.864-  21 2.23  42 2.33  61 2.39  90 2.43
  70  0.989  0.712  0.924-  71 2.36  84 2.42  83 2.44  35 2.58
  71  0.140  0.757  0.980-  21 2.34  70 2.36  38 2.42  52 2.43
  72  0.389  0.880  0.325-  56 2.41  91 2.45  49 2.48  24 2.52
  73  0.142  0.203  0.448-  77 2.30  45 2.32  86 2.37  53 2.43
  74  0.333  0.599  0.798-  57 2.25  88 2.32  64 2.36  38 2.38
  75  0.471  0.156  0.069-  87 2.39  67 2.39  31 2.44  61 2.46
  76  0.052  0.101  0.721-   5 1.57  77 2.27  60 2.39  86 2.44
  77  0.060  0.070  0.490-  76 2.27  73 2.30  55 2.35  15 2.44
  78  0.325  0.630  0.193-  38 2.27  85 2.34  20 2.40  56 2.44
  79  0.363  0.373  0.992-  44 2.33  85 2.36  64 2.37  87 2.40
  80  0.641  0.593  0.531-  37 2.29  30 2.33  32 2.41  58 2.68
  81  0.605  0.770  0.231-  27 2.33  68 2.40  24 2.48  32 2.83  33 2.87
  82  0.603  0.406  0.908-  41 2.28  87 2.36  28 2.42  58 2.50
  83  0.981  0.547  0.878-  13 2.32  34 2.36  70 2.44  54 2.46
  84  0.880  0.723  0.113-  48 2.28  10 2.29  25 2.36  70 2.42
  85  0.401  0.491  0.150-  78 2.34  28 2.36  79 2.36  66 2.50  44 2.91
  86  0.173  0.215  0.689-  22 2.22  73 2.37  23 2.40  76 2.44
  87  0.495  0.286  0.921-  82 2.36  75 2.39  79 2.40  17 2.47
  88  0.282  0.647  0.581-  74 2.32  16 2.34  59 2.44  56 2.57
  89  0.956  0.847  0.573-  14 2.32  35 2.32  15 2.34  19 2.35
  90  0.401  0.815  0.935-  24 2.32  38 2.33  69 2.43  51 2.71
  91  0.234  0.931  0.263-  12 2.40  55 2.43  72 2.45  52 2.48

  LATTYP: Found a simple tetragonal cell.
 ALAT       =    14.5802938634
 C/A-ratio  =     0.6590985000
  
  Lattice vectors:
  
 A1 = (  14.5802938634,   0.0000000000,   0.0000000000)
 A2 = (   0.0000000000,  14.5802938634,   0.0000000000)
 A3 = (   0.0000000000,   0.0000000000,   9.6098498154)


Analysis of symmetry for initial positions (statically):
=====================================================================
 Subroutine PRICEL returns:
 Original cell was already a primitive cell.
 

 Routine SETGRP: Setting up the symmetry group for a 
 simple tetragonal supercell.


 Subroutine GETGRP returns: Found  1 space group operations
 (whereof  1 operations were pure point group operations)
 out of a pool of 16 trial point group operations.


The static configuration has the point symmetry C_1 .


Analysis of symmetry for dynamics (positions and initial velocities):
=====================================================================
 Subroutine PRICEL returns:
 Original cell was already a primitive cell.
 

 Routine SETGRP: Setting up the symmetry group for a 
 simple tetragonal supercell.


 Subroutine GETGRP returns: Found  1 space group operations
 (whereof  1 operations were pure point group operations)
 out of a pool of 16 trial point group operations.


The dynamic configuration has the point symmetry C_1 .


 Subroutine INISYM returns: Found  1 space group operations
 (whereof  1 operations are pure point group operations),
 and found     1 'primitive' translations


----------------------------------------------------------------------------------------

                                     Primitive cell                                     

  volume of cell :    2042.9096

  direct lattice vectors                    reciprocal lattice vectors
    14.580293863  0.000000000  0.000000000     0.068585723  0.000000000  0.000000000
     0.000000000 14.580293863  0.000000000     0.000000000  0.068585723  0.000000000
     0.000000000  0.000000000  9.609849815     0.000000000  0.000000000  0.104059899

  length of vectors
    14.580293863 14.580293863  9.609849815     0.068585723  0.068585723  0.104059899

  position of ions in fractional coordinates (direct lattice)
     0.879488447  0.414307836  0.293052447
     0.656235059  0.432869876  0.311302472
     0.777830688  0.283292644  0.999664946
     0.726233648  0.153514053  0.523230862
     0.968409837  0.167526116  0.749219825
     0.016986969  0.324222546  0.964882925
     0.776870487  0.364773169  0.779083976
     0.974212189  0.330644913  0.329753332
     0.703367168  0.085934482  0.821155393
     0.827582771  0.870661464  0.128182024
     0.659481907  0.997894839  0.846577226
     0.212965529  0.070732456  0.136059358
     0.017699026  0.576510328  0.646940391
     0.910509769  0.694999710  0.554834894
     0.926901757  0.975775943  0.434847587
     0.127498116  0.689080762  0.598221628
     0.447528017  0.235013096  0.686297926
     0.848069327  0.505803934  0.242243120
     0.113791945  0.847698964  0.621593481
     0.178268698  0.568596222  0.256242298
     0.176377789  0.879858809  0.833992222
     0.304617317  0.148775465  0.743930461
     0.172082951  0.374687921  0.749418580
     0.491817248  0.871703967  0.114048609
     0.922251645  0.639961038  0.313017379
     0.055476248  0.064525380  0.079036199
     0.709258681  0.884358033  0.288492542
     0.540637937  0.531374750  0.042646764
     0.493220512  0.152616951  0.476155204
     0.699924164  0.521149990  0.333163375
     0.571485052  0.022662232  0.065847543
     0.537963094  0.719532823  0.496021279
     0.661425626  0.825724098  0.503582272
     0.844523445  0.499260170  0.988048740
     0.933383108  0.862088249  0.811232241
     0.600216298  0.955598024  0.617778645
     0.746823082  0.703847268  0.584400392
     0.296445328  0.699581236  0.985913431
     0.981324528  0.929658903  0.204709755
     0.775738823  0.884186569  0.900295027
     0.753729664  0.365141475  0.921600251
     0.307872396  0.007231404  0.639874724
     0.690960010  0.036027806  0.245352430
     0.268294318  0.342838769  0.181641756
     0.256035992  0.192175825  0.280164628
     0.101766810  0.444990345  0.557833900
     0.131150992  0.423041542  0.166264825
     0.773694968  0.640149649  0.992793871
     0.445614475  0.992778344  0.497082690
     0.085018863  0.690397608  0.348827512
     0.533950829  0.745917750  0.768101494
     0.107180281  0.823227578  0.206373673
     0.071512962  0.344672751  0.370338774
     0.063565248  0.405914315  0.941638025
     0.183473668  0.965947609  0.498226309
     0.381297527  0.720630194  0.389474349
     0.486021068  0.598696438  0.820689204
     0.543936911  0.476352539  0.688567473
     0.243991653  0.504489832  0.461504611
     0.048177013  0.975240975  0.879631853
     0.327590791  0.093950781  0.973923649
     0.416247440  0.387920851  0.608299829
     0.650202944  0.087772579  0.473825303
     0.310353827  0.439428043  0.781293167
     0.698957106  0.736734122  0.832144118
     0.360364479  0.410144683  0.371373130
     0.416891460  0.205717390  0.291701749
     0.656529977  0.622183619  0.155007625
     0.311611003  0.947758675  0.864449514
     0.989225604  0.711618030  0.923755331
     0.140471106  0.756864032  0.980220314
     0.388765141  0.879995981  0.324611733
     0.141759146  0.202505521  0.448153726
     0.332590690  0.599353489  0.797851178
     0.471041946  0.156403569  0.069087552
     0.051557877  0.101173544  0.721223550
     0.060186030  0.070034940  0.490312553
     0.325120333  0.630009936  0.193296465
     0.363320524  0.372785353  0.991949945
     0.641208613  0.592728794  0.530888630
     0.604528968  0.770251965  0.230790287
     0.603056432  0.405630370  0.907620844
     0.981345104  0.547115173  0.878074076
     0.880208597  0.722975826  0.112657328
     0.400889725  0.491029198  0.150277062
     0.172601459  0.214949028  0.689434292
     0.495158744  0.285510021  0.920710539
     0.282062902  0.647207120  0.580606368
     0.955604882  0.846978814  0.573078675
     0.401271748  0.815388230  0.934854360
     0.234026833  0.930516225  0.262902132

  ion indices of the primitive-cell ions
   primitive index   ion index
                 1           1
                 2           2
                 3           3
                 4           4
                 5           5
                 6           6
                 7           7
                 8           8
                 9           9
                10          10
                11          11
                12          12
                13          13
                14          14
                15          15
                16          16
                17          17
                18          18
                19          19
                20          20
                21          21
                22          22
                23          23
                24          24
                25          25
                26          26
                27          27
                28          28
                29          29
                30          30
                31          31
                32          32
                33          33
                34          34
                35          35
                36          36
                37          37
                38          38
                39          39
                40          40
                41          41
                42          42
                43          43
                44          44
                45          45
                46          46
                47          47
                48          48
                49          49
                50          50
                51          51
                52          52
                53          53
                54          54
                55          55
                56          56
                57          57
                58          58
                59          59
                60          60
                61          61
                62          62
                63          63
                64          64
                65          65
                66          66
                67          67
                68          68
                69          69
                70          70
                71          71
                72          72
                73          73
                74          74
                75          75
                76          76
                77          77
                78          78
                79          79
                80          80
                81          81
                82          82
                83          83
                84          84
                85          85
                86          86
                87          87
                88          88
                89          89
                90          90
                91          91

----------------------------------------------------------------------------------------


 -----------------------------------------------------------------------------
|                                                                             |
|           W    W    AA    RRRRR   N    N  II  N    N   GGGG   !!!           |
|           W    W   A  A   R    R  NN   N  II  NN   N  G    G  !!!           |
|           W    W  A    A  R    R  N N  N  II  N N  N  G       !!!           |
|           W WW W  AAAAAA  RRRRR   N  N N  II  N  N N  G  GGG   !            |
|           WW  WW  A    A  R   R   N   NN  II  N   NN  G    G                |
|           W    W  A    A  R    R  N    N  II  N    N   GGGG   !!!           |
|                                                                             |
|     The requested file  could not be found or opened for reading            |
|     k-point information. Automatic k-point generation is used as a          |
|     fallback, which may lead to unwanted results.                           |
|                                                                             |
 -----------------------------------------------------------------------------



Automatic generation of k-mesh.
 Grid dimensions derived from KSPACING:
 generate k-points for:    2    2    3

 Generating k-lattice:

  Cartesian coordinates                     Fractional coordinates (reciprocal lattice)
     0.034292862  0.000000000  0.000000000     0.500000000  0.000000000  0.000000000
     0.000000000  0.034292862  0.000000000     0.000000000  0.500000000  0.000000000
     0.000000000  0.000000000  0.034686633     0.000000000  0.000000000  0.333333333

  Length of vectors
     0.034292862  0.034292862  0.034686633

  Shift w.r.t. Gamma in fractional coordinates (k-lattice)
     0.000000000  0.000000000  0.000000000

 
 Subroutine IBZKPT returns following result:
 ===========================================
 
 Found      8 irreducible k-points:
 
 Following reciprocal coordinates:
            Coordinates               Weight
  0.000000  0.000000  0.000000      1.000000
  0.500000  0.000000  0.000000      1.000000
  0.000000  0.500000  0.000000      1.000000
  0.500000  0.500000  0.000000      1.000000
  0.000000  0.000000  0.333333      2.000000
  0.500000  0.000000  0.333333      2.000000
  0.000000  0.500000  0.333333      2.000000
  0.500000  0.500000  0.333333      2.000000
 
 Following cartesian coordinates:
            Coordinates               Weight
  0.000000  0.000000  0.000000      1.000000
  0.034293  0.000000  0.000000      1.000000
  0.000000  0.034293  0.000000      1.000000
  0.034293  0.034293  0.000000      1.000000
  0.000000  0.000000  0.034687      2.000000
  0.034293  0.000000  0.034687      2.000000
  0.000000  0.034293  0.034687      2.000000
  0.034293  0.034293  0.034687      2.000000
 


--------------------------------------------------------------------------------------------------------




 Dimension of arrays:
   k-points           NKPTS =      8   k-points in BZ     NKDIM =      8   number of bands    NBANDS=    216
   number of dos      NEDOS =   2000   number of ions     NIONS =     91
   non local maximal  LDIM  =      4   non local SUM 2l+1 LMDIM =      8
   total plane-waves  NPLWV = ******
   max r-space proj   IRMAX =      1   max aug-charges    IRDMAX= 414034
   dimension x,y,z NGX =   168 NGY =  168 NGZ =  112
   dimension x,y,z NGXF=   336 NGYF=  336 NGZF=  224
   support grid    NGXF=   672 NGYF=  672 NGZF=  448
   ions per type =               9  82
   NGX,Y,Z   is equivalent  to a cutoff of  19.16, 19.16, 19.38 a.u.
   NGXF,Y,Z  is equivalent  to a cutoff of  38.31, 38.31, 38.75 a.u.

 SYSTEM =  a-Si SPC                                
 POSCAR =   H Si                                   

 Startparameter for this run:
   NWRITE =      2    write-flag & timer
   PREC   = accura    normal or accurate (medium, high low for compatibility)
   ISTART =      1    job   : 0-new  1-cont  2-samecut
   ICHARG =      1    charge: 1-file 2-atom 10-const
   ISPIN  =      1    spin polarized calculation?
   LNONCOLLINEAR =      F non collinear calculations
   LSORBIT =      F    spin-orbit coupling
   INIWAV =      1    electr: 0-lowe 1-rand  2-diag
   LASPH  =      T    aspherical Exc in radial PAW
 Electronic Relaxation 1
   ENCUT  = 1200.0 eV  88.20 Ry    9.39 a.u.  41.18 41.18 27.14*2*pi/ulx,y,z
   ENINI  = 1200.0     initial cutoff
   ENAUG  =  400.0 eV  augmentation charge cutoff
   NELM   =    150;   NELMIN=  2; NELMDL=  0     # of ELM steps 
   EDIFF  = 0.1E-05   stopping-criterion for ELM
   LREAL  =      F    real-space projection
   NLSPLINE    = F    spline interpolate recip. space projectors
   LCOMPAT=      F    compatible to vasp.4.4
   GGA_COMPAT  = T    GGA compatible to vasp.4.4-vasp.4.6
   LMAXPAW     = -100 max onsite density
   LMAXMIX     =    2 max onsite mixed and CHGCAR
   VOSKOWN=      0    Vosko Wilk Nusair interpolation
   ROPT   =    0.00000   0.00000
 Ionic relaxation
   EDIFFG = -.1E-01   stopping-criterion for IOM
   NSW    =      0    number of steps for IOM
   NBLOCK =      1;   KBLOCK =      1    inner block; outer block 
   IBRION =     -1    ionic relax: 0-MD 1-quasi-New 2-CG
   NFREE  =      0    steps in history (QN), initial steepest desc. (CG)
   ISIF   =      2    stress and relaxation
   IWAVPR =     10    prediction:  0-non 1-charg 2-wave 3-comb
   ISYM   =      1    0-nonsym 1-usesym 2-fastsym
   LCORR  =      T    Harris-Foulkes like correction to forces

   POTIM  = 0.5000    time-step for ionic-motion
   TEIN   =    0.0    initial temperature
   TEBEG  =    0.0;   TEEND  =   0.0 temperature during run
   SMASS  =  -3.00    Nose mass-parameter (am)
   estimated Nose-frequenzy (Omega)   =  0.10E-29 period in steps = 0.13E+47 mass=  -0.486E-26a.u.
   SCALEE = 1.0000    scale energy and forces
   NPACO  =    256;   APACO  = 10.0  distance and # of slots for P.C.
   PSTRESS=    0.0 pullay stress

  Mass of Ions in am
   POMASS =   1.00 28.09
  Ionic Valenz
   ZVAL   =   1.00  4.00
  Atomic Wigner-Seitz radii
   RWIGS  =  -1.00 -1.00
  virtual crystal weights 
   VCA    =   1.00  1.00
   NELECT =     337.0000    total number of electrons
   NUPDOWN=      -1.0000    fix difference up-down

 DOS related values:
   EMIN   =  10.00;   EMAX   =-10.00  energy-range for DOS
   EFERMI =   0.00;   METHOD = LEGACY      
   ISMEAR =     0;   SIGMA  =   0.10  broadening in eV -4-tet -1-fermi 0-gaus
   EFERMI_NEDOS =   21; number of points for ismear=-14 and -15

 Electronic relaxation 2 (details)
   IALGO  =     38    algorithm
   LDIAG  =      F    sub-space diagonalisation (order eigenvalues)
   LSUBROT=      F    optimize rotation matrix (better conditioning)
   TURBO    =      0    0=normal 1=particle mesh
   IRESTART =      0    0=no restart 2=restart with 2 vectors
   NREBOOT  =      0    no. of reboots
   NMIN     =      0    reboot dimension
   EREF     =   0.00    reference energy to select bands
   IMIX   =      4    mixing-type and parameters
     AMIX     =   0.40;   BMIX     =  1.00
     AMIX_MAG =   1.60;   BMIX_MAG =  1.00
     AMIN     =   0.10
     WC   =   100.;   INIMIX=   1;  MIXPRE=   1;  MAXMIX= -45

 Intra band minimization:
   WEIMIN = 0.0000     energy-eigenvalue tresh-hold
   EBREAK =  0.12E-08  absolut break condition
   DEPER  =   0.30     relativ break condition  

   TIME   =   0.40     timestep for ELM

  volume/ion in A,a.u.               =      22.45       151.50
  Fermi-wavevector in a.u.,A,eV,Ry     =   0.897846  1.696683 10.968024  0.806127
  Thomas-Fermi vector in A             =   2.020481

 Write flags
   LWAVE        =      F    write WAVECAR
   LDOWNSAMPLE  =      F    k-point downsampling of WAVECAR
   LCHARG       =      F    write CHGCAR
   LVTOT        =      F    write LOCPOT, total local potential
   LVHAR        =      F    write LOCPOT, Hartree potential only
   WRT_POTENTIAL= false  ! write potential to hdf5 file
   LELF         =      F    write electronic localiz. function (ELF)
   LORBIT       =     11    0 simple, 1 ext, 2 COOP (PROOUT), +10 PAW based schemes


 Python interface
   PLUGINS active      =      F    recompile with -DPLUGINS to activate

 Dipole corrections
   LMONO      =      F    monopole corrections only (constant potential shift)
   LDIPOL     =      F    correct potential (dipole corrections)
   IDIPOL     =      0    1-x, 2-y, 3-z, 4-all directions 
   EPSILON    =  1.0000000 bulk dielectric constant
   LVACPOTAV  =      F  vacuum potentials using an averaging scheme for the charge density
   VACPOTFLAT =  0.1000000 required flatness to determine vacuum potential

Coulomb truncation method
  LTRUNCATE          =      F  Coulomb kernel truncation to be used
  IDIMENSIONALITY    =      3  Dimensionality of cutoff (0 molecules / 2 surfaces)
  ISURFACE           =     -1  Direction of surface normal
  LCOARSEN           =      F  Coarsen the charge grid before padding, preferred


 Exchange correlation treatment:
   METAGGA = SCAN    functional components
   XC_C    = 1    coefficients multiplying the functional components
   LIBXC   =     F    Libxc                    
   VOSKOWN =     0    Vosko Wilk Nusair interpolation
   LHFCALC =     F    Hartree Fock is set to
   LHFONE  =     F    Hartree Fock one center treatment
   AEXX    =    0.0000 exact exchange contribution

 Parameters of functionals:
   SCAN:
     P1 =  0.000000E+00
     P2 =  0.000000E+00
     P3 =  0.000000E+00

 Accuracy and mixing parameters for tau-dependent meta-GGA functionals:
   LMAXTAU = 6
   LMIXTAU = T

 Van der Waals corrections
   IVDW    =     0    specifies the selected vdW correction

 Linear response parameters
   LEPSILON=     F    determine dielectric tensor
   LRPA    =     F    only Hartree local field effects (RPA)
   LNABLA  =     F    use nabla operator in PAW spheres
   LVEL    =     F    velocity operator in full k-point grid
   CSHIFT  =0.1000    complex shift for real part using Kramers Kronig
   OMEGAMAX=  -1.0    maximum frequency
   DEG_THRESHOLD= 0.2000000E-02 threshold for treating states as degnerate
   RTIME   =   -0.100 relaxation time in fs
  (WPLASMAI=    0.000 imaginary part of plasma frequency in eV, 0.658/RTIME)
   DFIELD  = 0.0000000 0.0000000 0.0000000 field for delta impulse in time

  Optional k-point grid parameters
   LKPOINTS_OPT  =     F    use optional k-point grid
   KPOINTS_OPT_MODE=     1    mode for optional k-point grid

 Orbital magnetization related:
   ORBITALMAG=     F  switch on orbital magnetization
   LCHIMAG   =     F  perturbation theory with respect to B field
   DQ        =  0.001000  dq finite difference perturbation B field
   LLRAUG    =     F  two centre corrections for induced B field
   LBONE     =     F  B-component reconstruction in AE one-centre
   LVGVCALC  =     T  calculate vGv susceptibility
   LVGVAPPL  =     F  apply vGv susceptibility instead of pGv for G=0

 Random number generation:
   RANDOM_GENERATOR = DEFAULT
   PCG_SEED         = not used


--------------------------------------------------------------------------------------------------------


 Static calculation
 charge density and potential will be updated during run
 non-spin polarized calculation
 Variant of blocked Davidson
 perform Loewdin sub-space diagonalisation
    ordering is kept fixed
    before iterative eigenvector-optimisation
 modified Broyden-mixing scheme, WC =      100.0
 initial mixing is a Kerker type mixing with AMIX =  0.4000 and BMIX =      1.0000
 Hartree-type preconditioning will be used
 using additional bands           47
 reciprocal scheme for non local part
 use partial core corrections
 calculate Harris-corrections to forces   (improved forces if not selfconsistent)
 use gradient corrections 
 use of overlap-Matrix (Vanderbilt PP)
 Gauss-broadening in eV      SIGMA  =   0.10


--------------------------------------------------------------------------------------------------------


  energy-cutoff  :     1200.00
  volume of cell :     2042.91
      direct lattice vectors                 reciprocal lattice vectors
    14.580293863  0.000000000  0.000000000     0.068585723  0.000000000  0.000000000
     0.000000000 14.580293863  0.000000000     0.000000000  0.068585723  0.000000000
     0.000000000  0.000000000  9.609849815     0.000000000  0.000000000  0.104059899

  length of vectors
    14.580293863 14.580293863  9.609849815     0.068585723  0.068585723  0.104059899



 old parameters found on file WAVECAR:
  energy-cutoff  :     1200.00
  volume of cell :     2042.91
      direct lattice vectors                 reciprocal lattice vectors
    14.580293863  0.000000000  0.000000000     0.068585723  0.000000000  0.000000000
     0.000000000 14.580293863  0.000000000     0.000000000  0.068585723  0.000000000
     0.000000000  0.000000000  9.609849815     0.000000000  0.000000000  0.104059899

  length of vectors


 k-points in units of 2pi/SCALE and weight: read from INCAR                         
   0.00000000  0.00000000  0.00000000       0.083
   0.03429286  0.00000000  0.00000000       0.083
   0.00000000  0.03429286  0.00000000       0.083
   0.03429286  0.03429286  0.00000000       0.083
   0.00000000  0.00000000  0.03468663       0.167
   0.03429286  0.00000000  0.03468663       0.167
   0.00000000  0.03429286  0.03468663       0.167
   0.03429286  0.03429286  0.03468663       0.167

 k-points in reciprocal lattice and weights: read from INCAR                         
   0.00000000  0.00000000  0.00000000       0.083
   0.50000000  0.00000000  0.00000000       0.083
   0.00000000  0.50000000  0.00000000       0.083
   0.50000000  0.50000000  0.00000000       0.083
   0.00000000  0.00000000  0.33333333       0.167
   0.50000000  0.00000000  0.33333333       0.167
   0.00000000  0.50000000  0.33333333       0.167
   0.50000000  0.50000000  0.33333333       0.167

 position of ions in fractional coordinates (direct lattice) 
   0.87948845  0.41430784  0.29305245
   0.65623506  0.43286988  0.31130247
   0.77783069  0.28329264  0.99966495
   0.72623365  0.15351405  0.52323086
   0.96840984  0.16752612  0.74921983
   0.01698697  0.32422255  0.96488293
   0.77687049  0.36477317  0.77908398
   0.97421219  0.33064491  0.32975333
   0.70336717  0.08593448  0.82115539
   0.82758277  0.87066146  0.12818202
   0.65948191  0.99789484  0.84657723
   0.21296553  0.07073246  0.13605936
   0.01769903  0.57651033  0.64694039
   0.91050977  0.69499971  0.55483489
   0.92690176  0.97577594  0.43484759
   0.12749812  0.68908076  0.59822163
   0.44752802  0.23501310  0.68629793
   0.84806933  0.50580393  0.24224312
   0.11379195  0.84769896  0.62159348
   0.17826870  0.56859622  0.25624230
   0.17637779  0.87985881  0.83399222
   0.30461732  0.14877547  0.74393046
   0.17208295  0.37468792  0.74941858
   0.49181725  0.87170397  0.11404861
   0.92225164  0.63996104  0.31301738
   0.05547625  0.06452538  0.07903620
   0.70925868  0.88435803  0.28849254
   0.54063794  0.53137475  0.04264676
   0.49322051  0.15261695  0.47615520
   0.69992416  0.52114999  0.33316338
   0.57148505  0.02266223  0.06584754
   0.53796309  0.71953282  0.49602128
   0.66142563  0.82572410  0.50358227
   0.84452344  0.49926017  0.98804874
   0.93338311  0.86208825  0.81123224
   0.60021630  0.95559802  0.61777865
   0.74682308  0.70384727  0.58440039
   0.29644533  0.69958124  0.98591343
   0.98132453  0.92965890  0.20470975
   0.77573882  0.88418657  0.90029503
   0.75372966  0.36514147  0.92160025
   0.30787240  0.00723140  0.63987472
   0.69096001  0.03602781  0.24535243
   0.26829432  0.34283877  0.18164176
   0.25603599  0.19217582  0.28016463
   0.10176681  0.44499035  0.55783390
   0.13115099  0.42304154  0.16626483
   0.77369497  0.64014965  0.99279387
   0.44561448  0.99277834  0.49708269
   0.08501886  0.69039761  0.34882751
   0.53395083  0.74591775  0.76810149
   0.10718028  0.82322758  0.20637367
   0.07151296  0.34467275  0.37033877
   0.06356525  0.40591432  0.94163802
   0.18347367  0.96594761  0.49822631
   0.38129753  0.72063019  0.38947435
   0.48602107  0.59869644  0.82068920
   0.54393691  0.47635254  0.68856747
   0.24399165  0.50448983  0.46150461
   0.04817701  0.97524097  0.87963185
   0.32759079  0.09395078  0.97392365
   0.41624744  0.38792085  0.60829983
   0.65020294  0.08777258  0.47382530
   0.31035383  0.43942804  0.78129317
   0.69895711  0.73673412  0.83214412
   0.36036448  0.41014468  0.37137313
   0.41689146  0.20571739  0.29170175
   0.65652998  0.62218362  0.15500763
   0.31161100  0.94775868  0.86444951
   0.98922560  0.71161803  0.92375533
   0.14047111  0.75686403  0.98022031
   0.38876514  0.87999598  0.32461173
   0.14175915  0.20250552  0.44815373
   0.33259069  0.59935349  0.79785118
   0.47104195  0.15640357  0.06908755
   0.05155788  0.10117354  0.72122355
   0.06018603  0.07003494  0.49031255
   0.32512033  0.63000994  0.19329647
   0.36332052  0.37278535  0.99194995
   0.64120861  0.59272879  0.53088863
   0.60452897  0.77025197  0.23079029
   0.60305643  0.40563037  0.90762084
   0.98134510  0.54711517  0.87807408
   0.88020860  0.72297583  0.11265733
   0.40088973  0.49102920  0.15027706
   0.17260146  0.21494903  0.68943429
   0.49515874  0.28551002  0.92071054
   0.28206290  0.64720712  0.58060637
   0.95560488  0.84697881  0.57307868
   0.40127175  0.81538823  0.93485436
   0.23402683  0.93051622  0.26290213

 position of ions in cartesian coordinates  (Angst):
  12.82320000  6.04073000  2.81619000
   9.56810000  6.31137000  2.99157000
  11.34100000  4.13049000  9.60663000
  10.58870000  2.23828000  5.02817000
  14.11970000  2.44258000  7.19989000
   0.24767500  4.72726000  9.27238000
  11.32700000  5.31850000  7.48688000
  14.20430000  4.82090000  3.16888000
  10.25530000  1.25295000  7.89118000
  12.06640000 12.69450000  1.23181000
   9.61544000 14.54960000  8.13548000
   3.10510000  1.03130000  1.30751000
   0.25805700  8.40569000  6.21700000
  13.27550000 10.13330000  5.33188000
  13.51450000 14.22710000  4.17882000
   1.85896000 10.04700000  5.74882000
   6.52509000  3.42656000  6.59522000
  12.36510000  7.37477000  2.32792000
   1.65912000 12.35970000  5.97342000
   2.59921000  8.29030000  2.46245000
   2.57164000 12.82860000  8.01454000
   4.44141000  2.16919000  7.14906000
   2.50902000  5.46306000  7.20180000
   7.17084000 12.70970000  1.09599000
  13.44670000  9.33082000  3.00805000
   0.80886000  0.94079900  0.75952600
  10.34120000 12.89420000  2.77237000
   7.88266000  7.74760000  0.40982900
   7.19130000  2.22520000  4.57578000
  10.20510000  7.59852000  3.20165000
   8.33242000  0.33042200  0.63278500
   7.84366000 10.49100000  4.76669000
   9.64378000 12.03930000  4.83935000
  12.31340000  7.27936000  9.49500000
  13.60900000 12.56950000  7.79582000
   8.75133000 13.93290000  5.93676000
  10.88890000 10.26230000  5.61600000
   4.32226000 10.20010000  9.47448000
  14.30800000 13.55470000  1.96723000
  11.31050000 12.89170000  8.65170000
  10.98960000  5.32387000  8.85644000
   4.48887000  0.10543600  6.14910000
  10.07440000  0.52529600  2.35780000
   3.91181000  4.99869000  1.74555000
   3.73308000  2.80198000  2.69234000
   1.48379000  6.48809000  5.36070000
   1.91222000  6.16807000  1.59778000
  11.28070000  9.33357000  9.54060000
   6.49719000 14.47500000  4.77689000
   1.23960000 10.06620000  3.35218000
   7.78516000 10.87570000  7.38134000
   1.56272000 12.00290000  1.98322000
   1.04268000  5.02543000  3.55890000
   0.92680000  5.91835000  9.04900000
   2.67510000 14.08380000  4.78788000
   5.55943000 10.50700000  3.74279000
   7.08633000  8.72917000  7.88670000
   7.93076000  6.94536000  6.61703000
   3.55747000  7.35561000  4.43499000
   0.70243500 14.21930000  8.45313000
   4.77637000  1.36983000  9.35926000
   6.06901000  5.65600000  5.84567000
   9.48015000  1.27975000  4.55339000
   4.52505000  6.40699000  7.50811000
  10.19100000 10.74180000  7.99678000
   5.25422000  5.98003000  3.56884000
   6.07840000  2.99942000  2.80321000
   9.57240000  9.07162000  1.48960000
   4.54338000 13.81860000  8.30723000
  14.42320000 10.37560000  8.87715000
   2.04811000 11.03530000  9.41977000
   5.66831000 12.83060000  3.11947000
   2.06689000  2.95259000  4.30669000
   4.84927000  8.73875000  7.66723000
   6.86793000  2.28041000  0.66392100
   0.75172900  1.47514000  6.93085000
   0.87753000  1.02113000  4.71183000
   4.74035000  9.18573000  1.85755000
   5.29732000  5.43532000  9.53249000
   9.34901000  8.64216000  5.10176000
   8.81421000 11.23050000  2.21786000
   8.79274000  5.91421000  8.72210000
  14.30830000  7.97710000  8.43816000
  12.83370000 10.54120000  1.08262000
   5.84509000  7.15935000  1.44414000
   2.51658000  3.13402000  6.62536000
   7.21956000  4.16282000  8.84789000
   4.11256000  9.43647000  5.57954000
  13.93300000 12.34920000  5.50720000
   5.85066000 11.88860000  8.98381000
   3.41218000 13.56720000  2.52645000



--------------------------------------------------------------------------------------------------------


 k-point     1 :   0.0000 0.0000 0.0000  plane waves:  192791
 k-point     2 :   0.5000 0.0000 0.0000  plane waves:  192818
 k-point     3 :   0.0000 0.5000 0.0000  plane waves:  192818
 k-point     4 :   0.5000 0.5000 0.0000  plane waves:  192908
 k-point     5 :   0.0000 0.0000 0.3333  plane waves:  192802
 k-point     6 :   0.5000 0.0000 0.3333  plane waves:  192848
 k-point     7 :   0.0000 0.5000 0.3333  plane waves:  192848
 k-point     8 :   0.5000 0.5000 0.3333  plane waves:  192796

 maximum and minimum number of plane-waves per node :     12110    11970

 maximum number of plane-waves:    192908
 maximum index in each direction: 
   IXMAX=   41   IYMAX=   41   IZMAX=   27
   IXMIN=  -41   IYMIN=  -41   IZMIN=  -27


 parallel 3D FFT for wavefunctions:
    minimum data exchange during FFTs selected (reduces bandwidth)
 parallel 3D FFT for charge:
    minimum data exchange during FFTs selected (reduces bandwidth)


 total amount of memory used by VASP MPI-rank0   169647. kBytes
=======================================================================

   base                                    :      30000. kBytes
   nonl-proj                               :      29978. kBytes
   fftplans                                :      38231. kBytes
   grid                                    :      29478. kBytes
   one-center                              :         18. kBytes
   wavefun                                 :      41942. kBytes

     INWAV:  cpu time      7.5635: real time      7.5654
 Broyden mixing: mesh for mixing (old mesh)
   NGX = 83   NGY = 83   NGZ = 55
  (NGX  =336   NGY  =336   NGZ  =224)
  gives a total of 378895 points

 initial charge density was supplied:
 number of electron     336.9999999 magnetization 
 keeping initial charge density in first step


--------------------------------------------------------------------------------------------------------


 Maximum index for augmentation-charges        11511 (set IRDMAX)


--------------------------------------------------------------------------------------------------------


 First call to EWALD:  gamma=   0.140
 Maximum number of real-space cells   2x   2x   3
 Maximum number of reciprocal cells   3x   3x   2

    FEWALD:  cpu time      0.0171: real time      0.0179


--------------------------------------- Ionic step        1  -------------------------------------------




--------------------------------------- Iteration      1(   1)  ---------------------------------------


    POTLOK:  cpu time      0.6785: real time      0.6798
    SETDIJ:  cpu time      1.2438: real time      1.2446
    EDDIAG:  cpu time     17.1045: real time     17.1185
     EDDAV:  cpu time     79.1022: real time     79.1718
       DOS:  cpu time      0.0089: real time      0.0091
    CHARGE:  cpu time      7.4033: real time      7.4108
    MIXING:  cpu time      0.0233: real time      0.0237
    --------------------------------------------
      LOOP:  cpu time    105.5646: real time    105.6583

 eigenvalue-minimisations  :  3488
 total energy-change (2. order) :-0.8793431E+03  (-0.9666562E+00)
 number of electron     336.9999999 magnetization 
 augmentation part      -18.1452882 magnetization 

 Broyden mixing:
  rms(total) = 0.11477E+01    rms(broyden)= 0.40151E+02
  rms(prec ) = 0.12210E+01
  weight for this iteration     100.00
  WARNING: grid for Broyden might be to small

 Free energy of the ion-electron system (eV)
  ---------------------------------------------------
  alpha Z        PSCENC =       117.45533530
  Ewald energy   TEWEN  =     -6608.27605755
  -Hartree energ DENC   =     -2880.89028270
  -exchange      EXHF   =         0.00000000
  -V(xc)+E(xc)   XCENC  =      -373.90304672
  PAW double counting   =     30730.19974557   -29912.62682375
  entropy T*S    EENTRO =        -0.09615421
  eigenvalues    EBANDS =      -515.08159262
  atomic energy  EATOM  =      8563.87579245
  Solvation  Ediel_sol  =         0.00000000
  ---------------------------------------------------
  free energy    TOTEN  =      -879.34308422 eV

  energy without entropy =     -879.24693001  energy(sigma->0) =     -879.29500711


--------------------------------------------------------------------------------------------------------




--------------------------------------- Iteration      1(   2)  ---------------------------------------


    POTLOK:  cpu time      0.6635: real time      0.6858
    SETDIJ:  cpu time      1.2381: real time      1.2395
    EDDIAG:  cpu time     17.1977: real time     17.2139
     EDDAV:  cpu time     78.8569: real time     78.9310
       DOS:  cpu time      0.0032: real time      0.0032
    CHARGE:  cpu time      7.5101: real time      7.5165
    MIXING:  cpu time      0.0161: real time      0.0164
    --------------------------------------------
      LOOP:  cpu time    105.4856: real time    105.6063

 eigenvalue-minimisations  :  3464
 total energy-change (2. order) : 0.6025780E+02  (-0.8990476E+00)
 number of electron     336.9999999 magnetization 
 augmentation part      -18.0728257 magnetization 

 Broyden mixing:
  rms(total) = 0.76506E+00    rms(broyden)= 0.23045E+02
  rms(prec ) = 0.80228E+00
  weight for this iteration     100.00
  WARNING: grid for Broyden might be to small

 eigenvalues of (default mixing * dielectric matrix)
  average eigenvalue GAMMA=   0.6354
  0.6354

 Free energy of the ion-electron system (eV)
  ---------------------------------------------------
  alpha Z        PSCENC =       117.45533530
  Ewald energy   TEWEN  =     -6608.27605755
  -Hartree energ DENC   =     -2871.97516465
  -exchange      EXHF   =         0.00000000
  -V(xc)+E(xc)   XCENC  =      -365.23098757
  PAW double counting   =     36887.52126616   -36069.72052655
  entropy T*S    EENTRO =        -0.09177133
  eigenvalues    EBANDS =      -472.64317280
  atomic energy  EATOM  =      8563.87579245
  Solvation  Ediel_sol  =         0.00000000
  ---------------------------------------------------
  free energy    TOTEN  =      -819.08528654 eV

  energy without entropy =     -818.99351521  energy(sigma->0) =     -819.03940088


--------------------------------------------------------------------------------------------------------




--------------------------------------- Iteration      1(   3)  ---------------------------------------


    POTLOK:  cpu time      0.6621: real time      0.6878
    SETDIJ:  cpu time      1.2405: real time      1.2411
    EDDIAG:  cpu time     17.1973: real time     17.2120
     EDDAV:  cpu time     78.7570: real time     78.8265
       DOS:  cpu time      0.0035: real time      0.0035
    CHARGE:  cpu time      7.6235: real time      7.6300
    MIXING:  cpu time      0.0136: real time      0.0136
    --------------------------------------------
      LOOP:  cpu time    105.4975: real time    105.6144

 eigenvalue-minimisations  :  3456
 total energy-change (2. order) :-0.3232601E+01  (-0.7153025E+00)
 number of electron     336.9999999 magnetization 
 augmentation part      -18.0183820 magnetization 

 Broyden mixing:
  rms(total) = 0.41285E+00    rms(broyden)= 0.21638E+02
  rms(prec ) = 0.46954E+00
  weight for this iteration     100.00
  WARNING: grid for Broyden might be to small

 eigenvalues of (default mixing * dielectric matrix)
  average eigenvalue GAMMA=   0.7138
  0.8021  0.6254

 Free energy of the ion-electron system (eV)
  ---------------------------------------------------
  alpha Z        PSCENC =       117.45533530
  Ewald energy   TEWEN  =     -6608.27605755
  -Hartree energ DENC   =     -2875.08428754
  -exchange      EXHF   =         0.00000000
  -V(xc)+E(xc)   XCENC  =      -369.95644825
  PAW double counting   =     42461.34953694   -41643.63839472
  entropy T*S    EENTRO =        -0.09760072
  eigenvalues    EBANDS =      -467.94576376
  atomic energy  EATOM  =      8563.87579245
  Solvation  Ediel_sol  =         0.00000000
  ---------------------------------------------------
  free energy    TOTEN  =      -822.31788785 eV

  energy without entropy =     -822.22028713  energy(sigma->0) =     -822.26908749


--------------------------------------------------------------------------------------------------------




--------------------------------------- Iteration      1(   4)  ---------------------------------------


    POTLOK:  cpu time      0.6596: real time      0.6868
    SETDIJ:  cpu time      1.2409: real time      1.2415
    EDDIAG:  cpu time     17.2377: real time     17.2516
     EDDAV:  cpu time     81.4654: real time     81.5391
       DOS:  cpu time      0.0031: real time      0.0031
    CHARGE:  cpu time      7.5779: real time      7.5848
    MIXING:  cpu time      0.0137: real time      0.0137
    --------------------------------------------
      LOOP:  cpu time    108.1984: real time    108.3207

 eigenvalue-minimisations  :  3648
 total energy-change (2. order) :-0.1349738E+00  (-0.7299876E-01)
 number of electron     336.9999999 magnetization 
 augmentation part      -18.0091983 magnetization 

 Broyden mixing:
  rms(total) = 0.37324E-01    rms(broyden)= 0.23204E+01
  rms(prec ) = 0.52852E-01
  weight for this iteration     100.00
  WARNING: grid for Broyden might be to small

 eigenvalues of (default mixing * dielectric matrix)
  average eigenvalue GAMMA=   1.0734
  1.8990  0.7024  0.6189

 Free energy of the ion-electron system (eV)
  ---------------------------------------------------
  alpha Z        PSCENC =       117.45533530
  Ewald energy   TEWEN  =     -6608.27605755
  -Hartree energ DENC   =     -2880.15878235
  -exchange      EXHF   =         0.00000000
  -V(xc)+E(xc)   XCENC  =      -370.33473926
  PAW double counting   =     49347.15419211   -48529.49927175
  entropy T*S    EENTRO =        -0.09677582
  eigenvalues    EBANDS =      -462.57255476
  atomic energy  EATOM  =      8563.87579245
  Solvation  Ediel_sol  =         0.00000000
  ---------------------------------------------------
  free energy    TOTEN  =      -822.45286163 eV

  energy without entropy =     -822.35608581  energy(sigma->0) =     -822.40447372


--------------------------------------------------------------------------------------------------------




--------------------------------------- Iteration      1(   5)  ---------------------------------------


    POTLOK:  cpu time      0.6611: real time      0.6834
    SETDIJ:  cpu time      1.2597: real time      1.2603
    EDDIAG:  cpu time     17.2307: real time     17.2450
     EDDAV:  cpu time     89.5923: real time     89.6743
       DOS:  cpu time      0.0044: real time      0.0044
    CHARGE:  cpu time      7.5441: real time      7.5507
    MIXING:  cpu time      0.0139: real time      0.0139
    --------------------------------------------
      LOOP:  cpu time    116.3062: real time    116.4320

 eigenvalue-minimisations  :  4256
 total energy-change (2. order) :-0.3238981E-01  (-0.5540176E-02)
 number of electron     336.9999999 magnetization 
 augmentation part      -18.0100873 magnetization 

 Broyden mixing:
  rms(total) = 0.27376E-01    rms(broyden)= 0.51895E+00
  rms(prec ) = 0.34351E-01
  weight for this iteration     100.00
  WARNING: grid for Broyden might be to small

 eigenvalues of (default mixing * dielectric matrix)
  average eigenvalue GAMMA=   1.1037
  2.4051  0.7756  0.6171  0.6171

 Free energy of the ion-electron system (eV)
  ---------------------------------------------------
  alpha Z        PSCENC =       117.45533530
  Ewald energy   TEWEN  =     -6608.27605755
  -Hartree energ DENC   =     -2880.59558841
  -exchange      EXHF   =         0.00000000
  -V(xc)+E(xc)   XCENC  =      -371.35069156
  PAW double counting   =     49026.34896688   -48208.66642555
  entropy T*S    EENTRO =        -0.09528735
  eigenvalues    EBANDS =      -461.18129564
  atomic energy  EATOM  =      8563.87579245
  Solvation  Ediel_sol  =         0.00000000
  ---------------------------------------------------
  free energy    TOTEN  =      -822.48525145 eV

  energy without entropy =     -822.38996410  energy(sigma->0) =     -822.43760777


--------------------------------------------------------------------------------------------------------




--------------------------------------- Iteration      1(   6)  ---------------------------------------


    POTLOK:  cpu time      0.6639: real time      0.6863
    SETDIJ:  cpu time      1.2343: real time      1.2357
    EDDIAG:  cpu time     17.2640: real time     17.2790
     EDDAV:  cpu time     85.7949: real time     85.8707
       DOS:  cpu time      0.0033: real time      0.0033
    CHARGE:  cpu time      7.5673: real time      7.5739
    MIXING:  cpu time      0.0140: real time      0.0140
    --------------------------------------------
      LOOP:  cpu time    112.5416: real time    112.6628

 eigenvalue-minimisations  :  3976
 total energy-change (2. order) :-0.4251712E-02  (-0.8064817E-03)
 number of electron     336.9999999 magnetization 
 augmentation part      -18.0098070 magnetization 

 Broyden mixing:
  rms(total) = 0.19009E-01    rms(broyden)= 0.22537E+00
  rms(prec ) = 0.22474E-01
  weight for this iteration     100.00
  WARNING: grid for Broyden might be to small

 eigenvalues of (default mixing * dielectric matrix)
  average eigenvalue GAMMA=   1.0622
  2.5754  0.9654  0.6638  0.6230  0.4835

 Free energy of the ion-electron system (eV)
  ---------------------------------------------------
  alpha Z        PSCENC =       117.45533530
  Ewald energy   TEWEN  =     -6608.27605755
  -Hartree energ DENC   =     -2881.03023686
  -exchange      EXHF   =         0.00000000
  -V(xc)+E(xc)   XCENC  =      -371.56173255
  PAW double counting   =     48986.83956431   -48169.14528731
  entropy T*S    EENTRO =        -0.09485448
  eigenvalues    EBANDS =      -460.55202645
  atomic energy  EATOM  =      8563.87579245
  Solvation  Ediel_sol  =         0.00000000
  ---------------------------------------------------
  free energy    TOTEN  =      -822.48950316 eV

  energy without entropy =     -822.39464868  energy(sigma->0) =     -822.44207592


--------------------------------------------------------------------------------------------------------




--------------------------------------- Iteration      1(   7)  ---------------------------------------


    POTLOK:  cpu time      0.6618: real time      0.6879
    SETDIJ:  cpu time      1.3144: real time      1.3152
    EDDIAG:  cpu time     17.2183: real time     17.2327
     EDDAV:  cpu time     84.3280: real time     84.4057
       DOS:  cpu time      0.0045: real time      0.0045
    CHARGE:  cpu time      7.5255: real time      7.5314
    MIXING:  cpu time      0.0141: real time      0.0141
    --------------------------------------------
      LOOP:  cpu time    111.0666: real time    111.1916

 eigenvalue-minimisations  :  3856
 total energy-change (2. order) :-0.1280807E-02  (-0.3275724E-03)
 number of electron     336.9999999 magnetization 
 augmentation part      -18.0082253 magnetization 

 Broyden mixing:
  rms(total) = 0.85917E-02    rms(broyden)= 0.18045E+00
  rms(prec ) = 0.10865E-01
  weight for this iteration     100.00
  WARNING: grid for Broyden might be to small

 eigenvalues of (default mixing * dielectric matrix)
  average eigenvalue GAMMA=   1.0631
  2.5637  1.2480  0.8240  0.6324  0.6324  0.4783

 Free energy of the ion-electron system (eV)
  ---------------------------------------------------
  alpha Z        PSCENC =       117.45533530
  Ewald energy   TEWEN  =     -6608.27605755
  -Hartree energ DENC   =     -2881.53353114
  -exchange      EXHF   =         0.00000000
  -V(xc)+E(xc)   XCENC  =      -371.48564616
  PAW double counting   =     48981.59540519   -48163.88760240
  entropy T*S    EENTRO =        -0.09545343
  eigenvalues    EBANDS =      -460.13902622
  atomic energy  EATOM  =      8563.87579245
  Solvation  Ediel_sol  =         0.00000000
  ---------------------------------------------------
  free energy    TOTEN  =      -822.49078397 eV

  energy without entropy =     -822.39533054  energy(sigma->0) =     -822.44305725


--------------------------------------------------------------------------------------------------------




--------------------------------------- Iteration      1(   8)  ---------------------------------------


    POTLOK:  cpu time      0.6586: real time      0.6857
    SETDIJ:  cpu time      1.2380: real time      1.2385
    EDDIAG:  cpu time     17.1569: real time     17.1717
     EDDAV:  cpu time     84.2477: real time     84.3240
       DOS:  cpu time      0.0055: real time      0.0055
    CHARGE:  cpu time      7.6130: real time      7.6186
    MIXING:  cpu time      0.0143: real time      0.0143
    --------------------------------------------
      LOOP:  cpu time    110.9339: real time    111.0584

 eigenvalue-minimisations  :  3856
 total energy-change (2. order) :-0.4475720E-03  (-0.1191256E-03)
 number of electron     336.9999999 magnetization 
 augmentation part      -18.0073061 magnetization 

 Broyden mixing:
  rms(total) = 0.26276E-02    rms(broyden)= 0.11253E+00
  rms(prec ) = 0.43649E-02
  weight for this iteration     100.00
  WARNING: grid for Broyden might be to small

 eigenvalues of (default mixing * dielectric matrix)
  average eigenvalue GAMMA=   1.0830
  2.5678  1.5269  0.9668  0.8040  0.6271  0.6271  0.4612

 Free energy of the ion-electron system (eV)
  ---------------------------------------------------
  alpha Z        PSCENC =       117.45533530
  Ewald energy   TEWEN  =     -6608.27605755
  -Hartree energ DENC   =     -2881.89879987
  -exchange      EXHF   =         0.00000000
  -V(xc)+E(xc)   XCENC  =      -371.40890539
  PAW double counting   =     48998.72068312   -48181.00284396
  entropy T*S    EENTRO =        -0.09566516
  eigenvalues    EBANDS =      -459.86077048
  atomic energy  EATOM  =      8563.87579245
  Solvation  Ediel_sol  =         0.00000000
  ---------------------------------------------------
  free energy    TOTEN  =      -822.49123154 eV

  energy without entropy =     -822.39556638  energy(sigma->0) =     -822.44339896


--------------------------------------------------------------------------------------------------------




--------------------------------------- Iteration      1(   9)  ---------------------------------------


    POTLOK:  cpu time      0.6839: real time      0.7122
    SETDIJ:  cpu time      1.2403: real time      1.2408
    EDDIAG:  cpu time     17.1989: real time     17.2142
     EDDAV:  cpu time     88.2429: real time     88.3192
       DOS:  cpu time      0.0053: real time      0.0053
    CHARGE:  cpu time      7.5036: real time      7.5105
    MIXING:  cpu time      0.0144: real time      0.0144
    --------------------------------------------
      LOOP:  cpu time    114.8895: real time    115.0167

 eigenvalue-minimisations  :  4152
 total energy-change (2. order) : 0.2839719E-05  (-0.1526313E-04)
 number of electron     336.9999999 magnetization 
 augmentation part      -18.0075726 magnetization 

 Broyden mixing:
  rms(total) = 0.16463E-02    rms(broyden)= 0.23949E-01
  rms(prec ) = 0.24664E-02
  weight for this iteration     100.00
  WARNING: grid for Broyden might be to small

 eigenvalues of (default mixing * dielectric matrix)
  average eigenvalue GAMMA=   1.1363
  2.5698  2.4448  1.0525  0.8028  0.6509  0.6322  0.5023  0.4347

 Free energy of the ion-electron system (eV)
  ---------------------------------------------------
  alpha Z        PSCENC =       117.45533530
  Ewald energy   TEWEN  =     -6608.27605755
  -Hartree energ DENC   =     -2881.87222753
  -exchange      EXHF   =         0.00000000
  -V(xc)+E(xc)   XCENC  =      -371.45105431
  PAW double counting   =     49001.04904089   -48183.33044709
  entropy T*S    EENTRO =        -0.09522524
  eigenvalues    EBANDS =      -459.84638562
  atomic energy  EATOM  =      8563.87579245
  Solvation  Ediel_sol  =         0.00000000
  ---------------------------------------------------
  free energy    TOTEN  =      -822.49122870 eV

  energy without entropy =     -822.39600346  energy(sigma->0) =     -822.44361608


--------------------------------------------------------------------------------------------------------




--------------------------------------- Iteration      1(  10)  ---------------------------------------


    POTLOK:  cpu time      0.6603: real time      0.6888
    SETDIJ:  cpu time      1.2379: real time      1.2392
    EDDIAG:  cpu time     17.2437: real time     17.2594
     EDDAV:  cpu time     84.6159: real time     84.6945
       DOS:  cpu time      0.0059: real time      0.0059
    CHARGE:  cpu time      7.6773: real time      7.6847
    MIXING:  cpu time      0.0147: real time      0.0147
    --------------------------------------------
      LOOP:  cpu time    111.4556: real time    111.5869

 eigenvalue-minimisations  :  3872
 total energy-change (2. order) :-0.1718943E-04  (-0.6100798E-05)
 number of electron     336.9999999 magnetization 
 augmentation part      -18.0077000 magnetization 

 Broyden mixing:
  rms(total) = 0.87452E-03    rms(broyden)= 0.34126E-01
  rms(prec ) = 0.10766E-02
  weight for this iteration     100.00
  WARNING: grid for Broyden might be to small

 eigenvalues of (default mixing * dielectric matrix)
  average eigenvalue GAMMA=   1.1670
  2.9167  2.5683  1.1229  0.9440  0.7633  0.6467  0.6240  0.4827  0.4344

 Free energy of the ion-electron system (eV)
  ---------------------------------------------------
  alpha Z        PSCENC =       117.45533530
  Ewald energy   TEWEN  =     -6608.27605755
  -Hartree energ DENC   =     -2881.84224080
  -exchange      EXHF   =         0.00000000
  -V(xc)+E(xc)   XCENC  =      -371.46369084
  PAW double counting   =     49003.91996812   -48186.20002545
  entropy T*S    EENTRO =        -0.09540834
  eigenvalues    EBANDS =      -459.86491878
  atomic energy  EATOM  =      8563.87579245
  Solvation  Ediel_sol  =         0.00000000
  ---------------------------------------------------
  free energy    TOTEN  =      -822.49124589 eV

  energy without entropy =     -822.39583755  energy(sigma->0) =     -822.44354172


--------------------------------------------------------------------------------------------------------




--------------------------------------- Iteration      1(  11)  ---------------------------------------


    POTLOK:  cpu time      0.6576: real time      0.6841
    SETDIJ:  cpu time      1.2387: real time      1.2393
    EDDIAG:  cpu time     17.2511: real time     17.2666
     EDDAV:  cpu time     83.5296: real time     83.6054
       DOS:  cpu time      0.0057: real time      0.0057
    CHARGE:  cpu time      7.5804: real time      7.5866
    MIXING:  cpu time      0.0139: real time      0.0151
    --------------------------------------------
      LOOP:  cpu time    110.2771: real time    110.4026

 eigenvalue-minimisations  :  3784
 total energy-change (2. order) :-0.1167769E-04  (-0.2251012E-05)
 number of electron     336.9999999 magnetization 
 augmentation part      -18.0077198 magnetization 

 Broyden mixing:
  rms(total) = 0.36681E-03    rms(broyden)= 0.15313E-01
  rms(prec ) = 0.48845E-03
  weight for this iteration     100.00
  WARNING: grid for Broyden might be to small

 eigenvalues of (default mixing * dielectric matrix)
  average eigenvalue GAMMA=   1.2131
  3.2308  2.5787  1.4961  1.1081  0.8713  0.6899  0.6288  0.6168  0.4855  0.4252

 Free energy of the ion-electron system (eV)
  ---------------------------------------------------
  alpha Z        PSCENC =       117.45533530
  Ewald energy   TEWEN  =     -6608.27605755
  -Hartree energ DENC   =     -2881.83620287
  -exchange      EXHF   =         0.00000000
  -V(xc)+E(xc)   XCENC  =      -371.46757799
  PAW double counting   =     48999.43483276   -48181.71384533
  entropy T*S    EENTRO =        -0.09539667
  eigenvalues    EBANDS =      -459.86813766
  atomic energy  EATOM  =      8563.87579245
  Solvation  Ediel_sol  =         0.00000000
  ---------------------------------------------------
  free energy    TOTEN  =      -822.49125757 eV

  energy without entropy =     -822.39586089  energy(sigma->0) =     -822.44355923


--------------------------------------------------------------------------------------------------------




--------------------------------------- Iteration      1(  12)  ---------------------------------------


    POTLOK:  cpu time      0.6596: real time      0.6862
    SETDIJ:  cpu time      1.2409: real time      1.2419
    EDDIAG:  cpu time     17.1895: real time     17.2054
     EDDAV:  cpu time     82.2604: real time     82.3347
       DOS:  cpu time      0.0045: real time      0.0045
    CHARGE:  cpu time      7.4869: real time      7.4932
    MIXING:  cpu time      0.0141: real time      0.0152
    --------------------------------------------
      LOOP:  cpu time    108.8559: real time    108.9811

 eigenvalue-minimisations  :  3720
 total energy-change (2. order) :-0.4295027E-05  (-0.7953565E-06)
 number of electron     336.9999999 magnetization 
 augmentation part      -18.0077348 magnetization 

 Broyden mixing:
  rms(total) = 0.20619E-03    rms(broyden)= 0.47893E-02
  rms(prec ) = 0.26387E-03
  weight for this iteration     100.00
  WARNING: grid for Broyden might be to small

 eigenvalues of (default mixing * dielectric matrix)
  average eigenvalue GAMMA=   1.2356
  3.4425  2.6204  1.9120  1.1159  0.9320  0.7814  0.4216  0.4882  0.6530  0.6258
  0.5988

 Free energy of the ion-electron system (eV)
  ---------------------------------------------------
  alpha Z        PSCENC =       117.45533530
  Ewald energy   TEWEN  =     -6608.27605755
  -Hartree energ DENC   =     -2881.82784831
  -exchange      EXHF   =         0.00000000
  -V(xc)+E(xc)   XCENC  =      -371.47075983
  PAW double counting   =     48997.24009377   -48179.51876570
  entropy T*S    EENTRO =        -0.09539594
  eigenvalues    EBANDS =      -459.87365605
  atomic energy  EATOM  =      8563.87579245
  Solvation  Ediel_sol  =         0.00000000
  ---------------------------------------------------
  free energy    TOTEN  =      -822.49126186 eV

  energy without entropy =     -822.39586592  energy(sigma->0) =     -822.44356389


--------------------------------------------------------------------------------------------------------




--------------------------------------- Iteration      1(  13)  ---------------------------------------


    POTLOK:  cpu time      0.6589: real time      0.6862
    SETDIJ:  cpu time      1.2398: real time      1.2407
    EDDIAG:  cpu time     17.2338: real time     17.2497
     EDDAV:  cpu time     70.1850: real time     70.2496
       DOS:  cpu time      0.0052: real time      0.0052
    --------------------------------------------
      LOOP:  cpu time     89.3231: real time     89.4319

 eigenvalue-minimisations  :  2760
 total energy-change (2. order) :-0.6178816E-06  (-0.2492330E-06)
 number of electron     336.9999999 magnetization 
 augmentation part      -18.0077348 magnetization 

 Free energy of the ion-electron system (eV)
  ---------------------------------------------------
  alpha Z        PSCENC =       117.45533530
  Ewald energy   TEWEN  =     -6608.27605755
  -Hartree energ DENC   =     -2881.81355547
  -exchange      EXHF   =         0.00000000
  -V(xc)+E(xc)   XCENC  =      -371.47674935
  PAW double counting   =     48998.70842723   -48180.98744688
  entropy T*S    EENTRO =        -0.09538893
  eigenvalues    EBANDS =      -459.88161928
  atomic energy  EATOM  =      8563.87579245
  Solvation  Ediel_sol  =         0.00000000
  ---------------------------------------------------
  free energy    TOTEN  =      -822.49126248 eV

  energy without entropy =     -822.39587355  energy(sigma->0) =     -822.44356802


--------------------------------------------------------------------------------------------------------




 average (electrostatic) potential at core
  the test charge radii are     0.5201  0.9892
  (the norm of the test charge is              1.0000)
       1 -34.5884       2 -34.9148       3 -35.2453       4 -34.1847       5 -33.8390
       6 -35.5344       7 -35.1878       8 -34.5796       9 -34.7910      10 -88.0620
      11 -88.5303      12 -88.1467      13 -88.8074      14 -88.7152      15 -87.9001
      16 -88.3507      17 -88.5059      18 -88.3584      19 -88.1424      20 -88.0557
      21 -87.9308      22 -88.0310      23 -88.2674      24 -88.5897      25 -88.2796
      26 -87.9261      27 -87.9545      28 -88.2953      29 -88.4872      30 -88.1633
      31 -88.6558      32 -88.8967      33 -88.7877      34 -88.4720      35 -88.5808
      36 -88.6094      37 -88.4594      38 -88.3807      39 -88.1819      40 -88.3429
      41 -88.3778      42 -87.9699      43 -87.8434      44 -88.4967      45 -88.0681
      46 -88.3356      47 -88.3330      48 -88.0982      49 -88.6807      50 -88.3552
      51 -88.7362      52 -88.3506      53 -88.2827      54 -88.4580      55 -88.0438
      56 -88.9939      57 -87.9241      58 -88.5276      59 -88.0552      60 -88.1095
      61 -88.2862      62 -88.6702      63 -88.2038      64 -88.3744      65 -88.5130
      66 -88.5737      67 -88.6774      68 -88.3095      69 -88.1881      70 -88.5878
      71 -88.1499      72 -88.6724      73 -88.2559      74 -88.2143      75 -88.7145
      76 -87.9302      77 -87.8872      78 -88.4118      79 -88.3433      80 -88.6072
      81 -88.9187      82 -88.5084      83 -88.6710      84 -87.9145      85 -88.4290
      86 -88.1156      87 -88.6846      88 -88.3899      89 -88.1598      90 -88.5998
      91 -88.2905



 E-fermi :   3.8721     XC(G=0):  -8.7019     alpha+bet : -9.7487

 WARNING: Could not determine fundamental gap because eigenvalues are not
     sorted.

 Fermi energy:         3.8720791487

 k-point     1 :       0.0000    0.0000    0.0000
  band No.  band energies     occupation 
      1      -8.6008      2.00000
      2      -8.2442      2.00000
      3      -8.1383      2.00000
      4      -7.9327      2.00000
      5      -7.6861      2.00000
      6      -7.5681      2.00000
      7      -7.3493      2.00000
      8      -7.2589      2.00000
      9      -7.1838      2.00000
     10      -7.0796      2.00000
     11      -6.8475      2.00000
     12      -6.7168      2.00000
     13      -6.7010      2.00000
     14      -6.5946      2.00000
     15      -6.5271      2.00000
     16      -6.4541      2.00000
     17      -6.4098      2.00000
     18      -6.3276      2.00000
     19      -6.2195      2.00000
     20      -6.1626      2.00000
     21      -6.0961      2.00000
     22      -6.0745      2.00000
     23      -5.9445      2.00000
     24      -5.8852      2.00000
     25      -5.8385      2.00000
     26      -5.7283      2.00000
     27      -5.6770      2.00000
     28      -5.5680      2.00000
     29      -5.5351      2.00000
     30      -5.4098      2.00000
     31      -5.3496      2.00000
     32      -5.2212      2.00000
     33      -5.1036      2.00000
     34      -5.0783      2.00000
     35      -4.9386      2.00000
     36      -4.8671      2.00000
     37      -4.6976      2.00000
     38      -4.6519      2.00000
     39      -4.5748      2.00000
     40      -4.5140      2.00000
     41      -4.3530      2.00000
     42      -4.3018      2.00000
     43      -4.1282      2.00000
     44      -4.1102      2.00000
     45      -4.0310      2.00000
     46      -3.9050      2.00000
     47      -3.8323      2.00000
     48      -3.7263      2.00000
     49      -3.5936      2.00000
     50      -3.4155      2.00000
     51      -3.3352      2.00000
     52      -3.3209      2.00000
     53      -3.2319      2.00000
     54      -3.1488      2.00000
     55      -3.0351      2.00000
     56      -2.8080      2.00000
     57      -2.7836      2.00000
     58      -2.7159      2.00000
     59      -2.6170      2.00000
     60      -2.5782      2.00000
     61      -2.5229      2.00000
     62      -2.4713      2.00000
     63      -2.2505      2.00000
     64      -2.1999      2.00000
[...]
   0.117E+02 0.388E+02 0.323E+02   -.107E+02 -.387E+02 -.296E+02   -.216E+01 -.989E-02 -.283E+01   -.971E-04 -.758E-04 -.109E-03
   -.339E+02 -.142E+02 0.541E+00   0.322E+02 0.158E+02 0.100E+01   0.147E+01 -.195E+01 -.566E+00   0.187E-03 0.410E-04 -.253E-04
   0.189E+02 0.109E+02 0.947E+01   -.184E+02 -.114E+02 -.984E+01   -.646E+00 -.450E+00 -.257E-01   -.148E-04 -.140E-03 0.873E-04
   -.752E+01 -.356E+02 -.758E+00   0.741E+01 0.330E+02 0.232E+01   -.151E+00 0.269E+01 -.116E+01   0.460E-04 0.926E-04 -.201E-04
   0.878E+01 -.131E+02 -.639E+01   -.949E+01 0.128E+02 0.502E+01   0.121E+01 0.411E+00 0.103E+01   0.242E-03 -.220E-03 0.231E-04
   0.883E+02 0.392E+02 0.301E+01   -.909E+02 -.395E+02 -.329E+01   0.236E+01 0.254E+00 0.140E+00   0.194E-03 0.339E-03 0.259E-03
   0.561E+02 0.414E+02 0.411E+01   -.561E+02 -.448E+02 -.334E+01   0.232E+01 0.549E+01 -.109E+01   0.134E-03 0.252E-03 -.239E-03
   0.823E+00 -.209E+02 0.163E+02   -.173E+01 0.211E+02 -.159E+02   0.112E+01 -.286E+00 -.127E+01   0.345E-03 -.801E-04 -.442E-04
   -.158E+02 0.343E+01 -.917E+01   0.156E+02 -.224E+01 0.888E+01   0.225E+00 -.121E+01 0.131E+01   0.201E-03 0.625E-04 -.713E-04
   -.368E+02 0.988E+01 -.317E+00   0.358E+02 -.101E+02 -.103E+01   0.173E+01 -.356E+00 0.189E+01   0.580E-04 0.439E-04 0.278E-04
   -.781E+02 0.553E+02 0.463E+02   0.758E+02 -.538E+02 -.436E+02   0.337E+01 -.694E+00 -.270E+01   0.295E-04 -.166E-03 -.491E-04
   -.295E+01 0.268E+02 -.121E+02   0.191E+01 -.255E+02 0.996E+01   0.157E+00 -.275E+00 0.196E+01   0.161E-03 -.931E-04 0.533E-04
   0.629E+02 -.636E+02 -.113E+02   -.606E+02 0.648E+02 0.124E+02   -.208E+01 -.807E+00 -.124E+01   0.186E-03 -.245E-03 -.191E-03
   -.226E+02 -.250E+02 -.929E+01   0.208E+02 0.247E+02 0.836E+01   0.196E+01 0.110E+00 0.444E+00   0.368E-03 0.111E-03 0.227E-04
   -.545E+02 0.264E+02 0.350E+02   0.547E+02 -.276E+02 -.325E+02   0.836E-01 0.678E+00 -.259E+01   0.581E-04 -.118E-03 0.218E-04
   -.655E+02 -.781E+02 -.741E+01   0.659E+02 0.777E+02 0.681E+01   -.780E+00 0.679E+00 0.430E+00   -.536E-03 -.734E-04 0.132E-03
   0.640E+01 0.184E+02 -.415E+01   -.717E+01 -.189E+02 0.419E+01   0.125E+01 0.735E+00 0.331E+00   0.709E-04 -.998E-04 -.372E-04
   0.131E+01 0.412E+00 0.197E+01   0.815E+00 -.405E-01 -.242E+01   -.161E+01 0.564E+00 -.536E+00   -.146E-03 -.306E-04 -.183E-04
   -.652E+02 0.326E+02 -.102E+02   0.629E+02 -.304E+02 0.933E+01   0.264E+01 -.213E+01 0.273E+00   0.856E-04 -.109E-03 -.901E-06
   -.641E+02 -.228E+02 -.268E+01   0.638E+02 0.210E+02 0.382E+01   -.267E+00 0.221E+01 -.169E+01   0.108E-03 -.149E-05 0.152E-04
   0.586E+01 0.288E+02 -.904E+01   -.394E+01 -.312E+02 0.815E+01   -.277E+01 0.207E+01 0.719E+00   -.787E-04 0.215E-04 0.330E-04
   -.403E+02 -.117E+02 -.109E+02   0.390E+02 0.120E+02 0.917E+01   0.287E+01 -.591E+00 0.168E+01   0.371E-03 -.964E-04 0.968E-04
   0.146E+02 0.228E+02 0.103E+02   -.146E+02 -.220E+02 -.709E+01   -.321E-01 -.588E+00 -.226E+01   -.612E-04 -.280E-03 -.143E-03
   0.547E+01 0.273E+02 -.582E+01   -.581E+01 -.243E+02 0.538E+01   0.621E+00 -.234E+01 0.103E+01   0.117E-03 -.164E-03 -.723E-04
   -.183E+02 -.211E+02 -.399E+01   0.174E+02 0.207E+02 0.271E+01   0.782E+00 0.740E+00 0.353E+00   0.225E-03 -.300E-04 -.413E-04
   0.617E+02 -.194E+02 0.152E+02   -.613E+02 0.189E+02 -.143E+02   -.285E+00 0.145E+01 -.109E+01   0.428E-03 0.232E-03 0.123E-03
   0.150E+02 0.461E+01 -.188E+01   -.117E+02 -.471E+01 0.142E+01   -.384E+01 0.129E+00 0.726E+00   0.398E-04 -.204E-04 0.465E-05
   -.755E+02 -.138E+02 -.461E+01   0.748E+02 0.136E+02 0.452E+01   0.444E+00 -.543E+00 -.854E-01   -.395E-04 -.534E-04 0.347E-04
   0.852E+02 -.573E+02 -.296E+02   -.864E+02 0.571E+02 0.263E+02   0.375E+00 0.137E+01 0.388E+01   0.155E-03 0.154E-03 -.815E-04
   0.887E+02 -.565E+02 0.317E+02   -.876E+02 0.559E+02 -.278E+02   -.162E+01 -.433E+00 -.405E+01   0.405E-03 0.160E-04 0.184E-03
   -.233E+02 -.284E+01 -.847E+01   0.212E+02 0.132E+01 0.570E+01   0.177E+01 0.876E+00 0.289E+01   0.193E-03 0.742E-04 -.417E-04
   -.130E+02 0.349E+02 0.199E+01   0.124E+02 -.340E+02 -.137E+01   0.599E+00 -.822E+00 -.886E+00   0.703E-04 -.130E-03 -.440E-04
   -.211E+02 0.862E+02 -.892E+01   0.221E+02 -.837E+02 0.708E+01   -.184E+01 -.355E+01 0.202E+01   0.528E-04 -.516E-04 -.430E-04
   0.452E+01 0.607E+01 0.100E+02   -.135E+01 -.390E+01 -.129E+02   -.348E+01 -.173E+01 0.216E+01   -.215E-03 -.359E-04 0.693E-04
   -.681E+02 0.583E+02 0.103E+01   0.682E+02 -.580E+02 -.551E+00   -.106E+01 0.245E+00 -.556E+00   -.112E-03 0.341E-04 -.124E-03
   0.246E+02 0.620E+02 0.282E+01   -.250E+02 -.618E+02 -.439E+01   0.506E+00 -.591E+00 0.170E+01   -.475E-04 0.154E-04 -.204E-03
   0.208E+01 0.342E+01 -.164E+02   -.349E+01 -.256E+01 0.151E+02   0.220E+01 -.765E+00 0.121E+01   -.150E-03 -.220E-03 -.439E-04
   -.465E+02 0.210E+02 -.221E+02   0.469E+02 -.202E+02 0.207E+02   0.652E+00 -.578E+00 0.222E+01   0.148E-03 -.302E-04 0.531E-04
   0.545E+02 -.246E+02 -.233E+02   -.529E+02 0.227E+02 0.223E+02   -.248E+01 0.233E+01 0.105E+01   0.247E-03 0.274E-03 -.177E-04
   -.852E+02 0.338E+02 -.540E+01   0.845E+02 -.326E+02 0.602E+01   0.382E+00 -.166E+01 -.764E+00   -.782E-04 -.638E-04 -.112E-03
   -.258E+02 -.162E+02 0.897E+00   0.235E+02 0.139E+02 0.210E+00   0.247E+01 0.180E+01 -.211E+01   0.137E-03 -.566E-05 0.445E-04
   0.556E+02 -.387E+02 0.171E+02   -.542E+02 0.403E+02 -.155E+02   -.115E+01 -.951E+00 -.111E+01   -.103E-03 -.427E-03 0.830E-04
   -.322E+02 -.163E+02 0.170E+02   0.303E+02 0.174E+02 -.148E+02   0.250E+01 -.537E+00 -.326E+01   0.132E-03 0.110E-04 0.653E-04
   -.886E+01 -.117E+02 0.898E+01   0.855E+01 0.125E+02 -.773E+01   0.141E+00 -.101E+01 -.444E+00   0.395E-03 -.102E-03 0.618E-04
 -----------------------------------------------------------------------------------------------
   -.104E+02 -.421E+01 -.813E+01   -.604E-13 0.103E-12 -.817E-13   0.104E+02 0.422E+01 0.813E+01   0.258E-02 -.332E-02 -.461E-03


 POSITION                                       TOTAL-FORCE (eV/Angst)
 -----------------------------------------------------------------------------------
     12.82320      6.04073      2.81619         0.121196      0.184762      0.003414
      9.56810      6.31137      2.99157        -0.435613     -0.616995     -0.191687
     11.34100      4.13049      9.60663         0.124561     -0.439772      0.190803
     10.58870      2.23828      5.02817        -0.619737     -0.511268     -0.084888
     14.11970      2.44258      7.19989         0.668417     -0.803624     -0.142020
      0.24767      4.72726      9.27238        -1.604954     -1.574294      0.057538
     11.32700      5.31850      7.48688         0.535725     -0.542016     -1.497676
     14.20430      4.82090      3.16888        -0.029052     -0.184396      0.324454
     10.25530      1.25295      7.89118         0.236944      0.603416     -0.133209
     12.06640     12.69450      1.23181         1.088948      0.176457      0.528465
      9.61544     14.54960      8.13548        -0.300557     -0.729090      0.502318
      3.10510      1.03130      1.30751        -0.037366     -0.063707      0.473896
      0.25806      8.40569      6.21700        -0.391729      0.101422     -0.294580
     13.27550     10.13330      5.33188        -0.936461     -1.097523     -1.391622
     13.51450     14.22710      4.17882         0.319617      0.208588     -1.062120
      1.85896     10.04700      5.74882         0.467374      0.375151     -1.142632
      6.52509      3.42656      6.59522        -0.995139     -0.066609      0.013232
     12.36510      7.37477      2.32792         0.641998     -0.506889      0.113899
      1.65912     12.35970      5.97342         0.293071     -0.507853     -0.410303
      2.59921      8.29030      2.46245         0.460267      0.257704      0.494503
      2.57164     12.82860      8.01454        -1.719615     -0.154952      1.049628
      4.44141      2.16919      7.14906         1.642160      0.621615      0.214559
      2.50902      5.46306      7.20180        -2.018804     -0.555286      0.637587
      7.17084     12.70970      1.09599         0.062921      0.236313      1.407297
     13.44670      9.33082      3.00805         0.966908      0.960213      0.618633
      0.80886      0.94080      0.75953        -0.787503     -1.035056      0.614689
     10.34120     12.89420      2.77237         0.521882     -0.460879     -0.058243
      7.88266      7.74760      0.40983         0.178917      0.459850     -0.386223
      7.19130      2.22520      4.57578         1.627960     -0.964231      1.217291
     10.20510      7.59852      3.20165         0.116483      0.749031     -0.415964
      8.33242      0.33042      0.63278         0.285827     -0.507877      0.244248
      7.84366     10.49100      4.76669        -0.615331     -0.816749     -0.007609
      9.64378     12.03930      4.83935         0.404744      0.837769     -0.411593
     12.31340      7.27936      9.49500        -0.857380     -0.344138      0.241819
     13.60900     12.56950      7.79582        -0.538331      0.006530      0.342909
      8.75133     13.93290      5.93676        -0.237503      1.178925     -0.654616
     10.88890     10.26230      5.61600         0.554118     -0.011952      2.186235
      4.32226     10.20010      9.47448        -0.718324     -0.251819     -0.660995
     14.30800     13.55470      1.96723        -0.507417      0.905209      0.198440
     11.31050     12.89170      8.65170        -0.268074     -0.672518     -0.572453
     10.98960      5.32387      8.85644         0.543470      1.467366      0.864358
      4.48887      0.10544      6.14910         1.020978     -0.363908     -0.838234
     10.07440      0.52530      2.35780        -0.712383      0.395638     -0.078984
      3.91181      4.99869      1.74555         0.096092     -1.318353      0.348825
      3.73308      2.80198      2.69234         0.004948      0.164256     -0.345413
      1.48379      6.48809      5.36070         0.493556      0.391530     -0.533959
      1.91222      6.16807      1.59778         0.079265      0.412638      0.337837
     11.28070      9.33357      9.54060        -1.335280      0.014110     -0.151396
      6.49719     14.47500      4.77689        -0.148818     -0.397297      0.982599
      1.23960     10.06620      3.35218        -0.141212     -0.990505     -0.408837
      7.78516     10.87570      7.38134        -0.255739      0.043756      0.342560
      1.56272     12.00290      1.98322         0.561352      0.129089     -0.275574
      1.04268      5.02543      3.55890        -0.164529     -0.028651     -0.139114
      0.92680      5.91835      9.04900         2.370976      2.334198     -0.338435
      2.67510     14.08380      4.78788         0.263916     -0.151203     -0.878754
      5.55943     10.50700      3.74279         0.016587     -0.082281      1.096999
      7.08633      8.72917      7.88670         0.846418     -0.577832      0.625749
      7.93076      6.94536      6.61703         1.168815      0.823124     -0.037161
      3.55747      7.35561      4.43499        -0.884229      0.991052     -0.122645
      0.70243     14.21930      8.45313         0.077512      0.390603     -0.292822
      4.77637      1.36983      9.35926         0.226076     -0.187701     -0.496985
      6.06901      5.65600      5.84567         0.229563     -0.414147     -0.192027
      9.48015      1.27975      4.55339        -0.395346      0.355936     -0.130678
      4.52505      6.40699      7.50811         0.547281      0.285125      0.396499
     10.19100     10.74180      7.99678         0.447667      0.965110     -1.026772
      5.25422      5.98003      3.56884         0.352246     -0.006053     -0.617131
      6.07840      2.99942      2.80321        -0.620974      0.441463     -0.637292
      9.57240      9.07162      1.48960        -1.002515     -0.180681     -0.141211
      4.54338     13.81860      8.30723         1.732622     -0.326959      0.027509
     14.42320     10.37560      8.87715        -0.020739      0.181527      0.924021
      2.04811     11.03530      9.41977         0.321660      0.658171      0.644360
      5.66831     12.83060      3.11947        -0.082856      0.434339     -0.918644
      2.06689      2.95259      4.30669         0.093200      1.061177     -0.248457
      4.84927      8.73875      7.66723        -0.742890      0.029919      0.295207
      6.86793      2.28041      0.66392        -0.327419     -0.780026     -0.186384
      0.75173      1.47514      6.93085        -0.870502      1.256123      0.753046
      0.87753      1.02113      4.71183        -0.544553     -1.086149     -0.253793
      4.74035      9.18573      1.85755        -0.321848     -0.621941      0.244909
      5.29732      5.43532      9.53249         0.065196      0.072343     -0.268455
      9.34901      8.64216      5.10176        -0.875494     -1.222058      0.241519
      8.81421     11.23050      2.21786        -0.475224      0.394733     -0.528154
      8.79274      5.91421      8.72210        -1.014877      0.518827     -0.120582
     14.30830      7.97710      8.43816         0.078428     -0.449849      0.207062
     12.83370     10.54120      1.08262         0.886189      0.038935     -0.072496
      5.84509      7.15935      1.44414         1.102265      0.113371      0.880962
      2.51658      3.13402      6.62536        -1.037820      0.520315      0.041480
      7.21956      4.16282      8.84789        -0.380953     -0.506060     -0.194880
      4.11256      9.43647      5.57954         0.206882     -0.419837     -1.118558
     13.93300     12.34920      5.50720         0.288468      0.524740      0.523291
      5.85066     11.88860      8.98381         0.722210      0.513610     -1.194589
      3.41218     13.56720      2.52645        -0.188785     -0.255092      0.852198
 -----------------------------------------------------------------------------------
    total drift:                                0.010586      0.003277      0.004983


--------------------------------------------------------------------------------------------------------



  FREE ENERGIE OF THE ION-ELECTRON SYSTEM (eV)
  ---------------------------------------------------
  free  energy   TOTEN  =      -822.49126248 eV

  energy  without entropy=     -822.39587355  energy(sigma->0) =     -822.44356802



--------------------------------------------------------------------------------------------------------


    POTLOK:  cpu time      1.8887: real time      1.8899


--------------------------------------------------------------------------------------------------------


     LOOP+:  cpu time   1579.9059: real time   1581.6168
    4ORBIT:  cpu time      0.0000: real time      0.0000



 total charge

# of ion       s       p       d       tot
------------------------------------------
    1        0.567   0.016   0.000   0.583
    2        0.584   0.017   0.000   0.601
    3        0.578   0.017   0.000   0.595
    4        0.545   0.013   0.000   0.558
    5        0.535   0.012   0.000   0.547
    6        0.608   0.021   0.000   0.629
    7        0.607   0.019   0.000   0.626
    8        0.568   0.017   0.000   0.585
    9        0.583   0.017   0.000   0.600
   10        0.758   0.928   0.000   1.686
   11        0.744   0.915   0.000   1.659
   12        0.751   0.940   0.000   1.691
   13        0.757   0.886   0.000   1.643
   14        0.757   0.874   0.000   1.632
   15        0.812   0.813   0.000   1.625
   16        0.760   0.921   0.000   1.681
   17        0.752   0.880   0.000   1.632
   18        0.741   0.956   0.000   1.697
   19        0.758   0.957   0.000   1.715
   20        0.752   0.921   0.000   1.674
   21        0.761   0.989   0.000   1.751
   22        0.756   0.964   0.000   1.720
   23        0.751   0.945   0.000   1.696
   24        0.757   0.861   0.000   1.618
   25        0.743   0.913   0.000   1.656
   26        0.809   0.826   0.000   1.634
   27        0.753   0.971   0.000   1.724
   28        0.761   0.890   0.000   1.651
   29        0.755   0.906   0.000   1.661
   30        0.742   1.005   0.000   1.746
   31        0.753   0.839   0.000   1.593
   32        0.759   0.855   0.000   1.614
   33        0.763   0.909   0.000   1.672
   34        0.749   0.929   0.000   1.678
   35        0.764   0.853   0.000   1.617
   36        0.758   0.859   0.000   1.617
   37        0.760   0.920   0.000   1.680
   38        0.751   0.941   0.000   1.692
   39        0.759   0.843   0.000   1.602
   40        0.747   0.893   0.000   1.640
   41        0.737   1.038   0.000   1.775
   42        0.756   0.958   0.000   1.714
   43        0.796   0.857   0.000   1.653
   44        0.767   0.891   0.000   1.658
   45        0.756   0.945   0.000   1.701
   46        0.754   0.918   0.000   1.672
   47        0.750   0.928   0.000   1.678
   48        0.758   0.977   0.000   1.735
   49        0.763   0.836   0.000   1.599
   50        0.759   0.872   0.000   1.631
   51        0.774   0.818   0.000   1.592
   52        0.754   0.877   0.000   1.631
   53        0.744   0.939   0.000   1.683
   54        0.747   0.957   0.000   1.704
   55        0.755   0.935   0.000   1.691
   56        0.754   0.836   0.000   1.590
   57        0.758   0.969   0.000   1.727
   58        0.761   0.863   0.000   1.624
   59        0.763   0.912   0.000   1.676
   60        0.756   0.914   0.000   1.670
   61        0.754   0.924   0.000   1.678
   62        0.756   0.888   0.000   1.643
   63        0.746   0.888   0.000   1.634
   64        0.753   0.953   0.000   1.706
   65        0.753   0.859   0.000   1.612
   66        0.746   0.881   0.000   1.627
   67        0.780   0.878   0.000   1.657
   68        0.756   0.931   0.000   1.688
   69        0.757   0.952   0.000   1.709
   70        0.756   0.867   0.000   1.622
   71        0.750   0.927   0.000   1.677
   72        0.752   0.856   0.000   1.608
   73        0.753   0.934   0.000   1.687
   74        0.751   0.968   0.000   1.719
   75        0.749   0.885   0.000   1.633
   76        0.750   0.936   0.000   1.685
   77        0.759   0.956   0.000   1.715
   78        0.749   0.935   0.000   1.684
   79        0.753   0.941   0.000   1.693
   80        0.755   0.891   0.000   1.646
   81        0.779   0.839   0.000   1.618
   82        0.750   0.926   0.000   1.676
   83        0.745   0.912   0.000   1.657
   84        0.759   0.965   0.000   1.724
   85        0.756   0.906   0.000   1.662
   86        0.755   0.950   0.000   1.705
   87        0.752   0.895   0.000   1.648
   88        0.753   0.903   0.000   1.656
   89        0.760   0.953   0.000   1.713
   90        0.762   0.881   0.000   1.643
   91        0.753   0.881   0.000   1.634
--------------------------------------------------
tot         67.228  74.756   0.000 141.984


 total amount of memory used by VASP MPI-rank0   169647. kBytes
=======================================================================

   base                                    :      30000. kBytes
   nonl-proj                               :      29978. kBytes
   fftplans                                :      38231. kBytes
   grid                                    :      29478. kBytes
   one-center                              :         18. kBytes
   wavefun                                 :      41942. kBytes

  
  
 General timing and accounting informations for this job:
 ========================================================
  
                  Total CPU time used (sec):     1640.399
                            User time (sec):     1633.924
                          System time (sec):        6.474
                         Elapsed time (sec):     1642.332
  
                   Maximum memory used (kb):      354576.
                   Average memory used (kb):          N/A
  
                          Minor page faults:       217819
                          Major page faults:         1173
                 Voluntary context switches:         2643
