 vasp.6.5.0 16Dec24 (build Jan 20 2025 08:32:48) complex                         
 executed on        HPECrayEX_GCC date 2025.05.14  04:51:14
 running   64 mpi-ranks, with    1 threads/rank, on    1 nodes
 distrk:  each k-point on   64 cores,    1 groups
 distr:  one band on NCORE=  16 cores,    4 groups


--------------------------------------------------------------------------------------------------------


 INCAR:
   SYSTEM = a-Si SPC
   NCORE = 16
   ISTART = 1
   ICHARG = 1
   ISPIN = 1
   ISYM = 1
   EDIFF = 1E-6
   NELM = 150
   EDIFFG = -0.01
   NSW = 0
   ISIF = 2
   IBRION = -1
   PREC = Accurate
   ENCUT = 1200
   KSPACING = 0.23
   KGAMMA = .TRUE.
   METAGGA = SCAN
   LASPH = .TRUE.
   LDIAG = .FALSE.
   LMIXTAU = .TRUE.
   ADDGRID = .TRUE.
   ALGO = Normal
   ISMEAR = 0
   SIGMA = 0.1
   LORBIT = 11
   NEDOS = 2000
   LWAVE = .FALSE.
   LCHARG = .FALSE.

 POTCAR:    PAW_PBE Si 05Jan2001                  
 POTCAR:    PAW_PBE Si 05Jan2001                  
   SHA256 =  79d9987ad8750f624c4d6acb2a16d13abf6a777132adc04dc6c8399be72b42bb Si/POTCAR             
   COPYR  = (c) Copyright 05Jan2001 Georg Kresse                                                    
   COPYR  = This file is part of the software VASP. Any use, copying, and all other rights are regul
   COPYR  = If you do not have a valid VASP license, you may not use, copy or distribute this file. 
   VRHFIN =Si: s2p2                                                                                 
   LEXCH  = PE                                                                                      
   EATOM  =   103.0669 eV,    7.5752 Ry                                                             
                                                                                                    
   TITEL  = PAW_PBE Si 05Jan2001                                                                    
   LULTRA =        F    use ultrasoft PP ?                                                          
   IUNSCR =        1    unscreen: 0-lin 1-nonlin 2-no                                               
   RPACOR =    1.500    partial core radius                                                         
   POMASS =   28.085; ZVAL   =    4.000    mass and valenz                                          
   RCORE  =    1.900    outmost cutoff radius                                                       
   RWIGS  =    2.480; RWIGS  =    1.312    wigner-seitz radius (au A)                               
   ENMAX  =  245.345; ENMIN  =  184.009 eV                                                          
   ICORE  =        2    local potential                                                             
   LCOR   =        T    correct aug charges                                                         
   LPAW   =        T    paw PP                                                                      
   EAUG   =  322.069                                                                                
   DEXC   =    0.000                                                                                
   RMAX   =    1.950    core radius for proj-oper                                                   
   RAUG   =    1.300    factor for augmentation sphere                                              
   RDEP   =    1.993    radius for radial grids                                                     
   RDEPT  =    1.837    core radius for aug-charge                                                  
                                                                                                    
   Atomic configuration                                                                             
    6 entries                                                                                       
     n  l   j            E        occ.                                                              
     1  0  0.50     -1785.8828   2.0000                                                             
     2  0  0.50      -139.4969   2.0000                                                             
     2  1  1.50       -95.5546   6.0000                                                             
     3  0  0.50       -10.8127   2.0000                                                             
     3  1  0.50        -4.0811   2.0000                                                             
     3  2  1.50        -4.0817   0.0000                                                             
   Description                                                                                      
     l       E           TYP  RCUT    TYP  RCUT                                                     
     0    -10.8127223     23  1.900                                                                 
     0     -7.6451159     23  1.900                                                                 
     1     -4.0811372     23  1.900                                                                 
     1      2.4879257     23  1.900                                                                 
     2     -4.0817478      7  1.900                                                                 
  local pseudopotential read in
  partial core-charges read in
  partial kinetic energy density read in
  atomic valenz-charges read in
  non local Contribution for L=           0  read in
    real space projection operators read in
  non local Contribution for L=           0  read in
    real space projection operators read in
  non local Contribution for L=           1  read in
    real space projection operators read in
  non local Contribution for L=           1  read in
    real space projection operators read in
    PAW grid and wavefunctions read in

   number of l-projection  operators is LMAX  =           4
   number of lm-projection operators is LMMAX =           8

 -----------------------------------------------------------------------------
|                                                                             |
|               ----> ADVICE to this user running VASP <----                  |
|                                                                             |
|     You have a (more or less) 'large supercell' and for larger cells it     |
|     might be more efficient to use real-space projection operators.         |
|     Therefore, try LREAL= Auto in the INCAR file.                           |
|     Mind: For very accurate calculation, you might also keep the            |
|     reciprocal projection scheme (i.e. LREAL=.FALSE.).                      |
|                                                                             |
 -----------------------------------------------------------------------------

 -----------------------------------------------------------------------------
|                                                                             |
|               ----> ADVICE to this user running VASP <----                  |
|                                                                             |
|     You enforced a specific xc type in the INCAR file but a different       |
|     type was found in the POTCAR file.                                      |
|     I HOPE YOU KNOW WHAT YOU ARE DOING!                                     |
|                                                                             |
 -----------------------------------------------------------------------------

  PAW_PBE Si 05Jan2001                  :
 energy of atom  1       EATOM= -103.0669
 kinetic energy error for atom=    0.0001 (will be added to EATOM!!)


 POSCAR: Si
  positions in cartesian coordinates
  No initial velocities read in


 exchange-correlation table for SCAN
   RHO(1)=    0.500       N(1)  =     2000
   RHO(2)=  100.500       N(2)  =     4000



--------------------------------------------------------------------------------------------------------


 ion  position               nearest neighbor table
   1  0.000  0.000  0.248-   2 2.35  28 2.35
   2  0.125  0.125  0.281-   1 2.35   3 2.35   5 2.35   7 2.35
   3  0.250  0.250  0.248-   2 2.35   4 2.35
   4  0.375  0.375  0.281-   3 2.35  25 2.35  21 2.35  15 2.35
   5  0.000  0.250  0.315-   6 2.35  24 2.35  20 2.35   2 2.35
   6  0.125  0.375  0.349-   5 2.35  15 2.35  35 2.35  41 2.35
   7  0.250  0.000  0.315-   8 2.35  14 2.35  12 2.35   2 2.35
   8  0.375  0.125  0.349-   7 2.35  21 2.35  35 2.35  49 2.35
   9  0.000  0.500  0.248-  10 2.35  20 2.35
  10  0.125  0.625  0.281-   9 2.35  11 2.35  13 2.35  15 2.35
  11  0.250  0.750  0.248-  10 2.35  12 2.35
  12  0.375  0.875  0.281-  11 2.35  17 2.35   7 2.35  29 2.35
  13  0.000  0.750  0.315-  14 2.35  32 2.35  28 2.35  10 2.35
  14  0.125  0.875  0.349-   7 2.35  13 2.35  33 2.35  43 2.35
  15  0.250  0.500  0.315-   6 2.35  16 2.35  10 2.35   4 2.35
  16  0.375  0.625  0.349-  15 2.35  29 2.35  43 2.35  57 2.35
  17  0.500  0.000  0.248-  12 2.35  18 2.35
  18  0.625  0.125  0.281-  17 2.35  19 2.35  21 2.35  23 2.35
  19  0.750  0.250  0.248-  18 2.35  20 2.35
  20  0.875  0.375  0.281-   9 2.35  19 2.35   5 2.35  31 2.35
  21  0.500  0.250  0.315-   8 2.35  22 2.35  18 2.35   4 2.35
  22  0.625  0.375  0.349-  21 2.35  31 2.35  51 2.35  57 2.35
  23  0.750  0.000  0.315-  24 2.35  30 2.35  28 2.35  18 2.35
  24  0.875  0.125  0.349-   5 2.35  23 2.35  33 2.35  51 2.35
  25  0.500  0.500  0.248-   4 2.35  26 2.35
  26  0.625  0.625  0.281-  25 2.35  27 2.35  29 2.35  31 2.35
  27  0.750  0.750  0.248-  26 2.35  28 2.35
  28  0.875  0.875  0.281-   1 2.35  27 2.35  23 2.35  13 2.35
  29  0.500  0.750  0.315-  16 2.35  30 2.35  26 2.35  12 2.35
  30  0.625  0.875  0.349-  23 2.35  29 2.35  49 2.35  59 2.35
  31  0.750  0.500  0.315-  22 2.35  32 2.35  26 2.35  20 2.35
  32  0.875  0.625  0.349-  13 2.35  31 2.35  41 2.35  59 2.35
  33  0.000  0.000  0.382-  14 2.35  24 2.35  34 2.35  60 2.35
  34  0.125  0.125  0.416-  33 2.35  35 2.35  37 2.35  39 2.35
  35  0.250  0.250  0.382-   6 2.35   8 2.35  34 2.35  36 2.35
  36  0.375  0.375  0.416-  35 2.35  57 2.35  53 2.35  47 2.35
  37  0.000  0.250  0.450-  38 2.35  56 2.35  52 2.35  34 2.35
  38  0.125  0.375  0.483-  37 2.35  47 2.35  67 2.35  73 2.35
  39  0.250  0.000  0.450-  40 2.35  46 2.35  44 2.35  34 2.35
  40  0.375  0.125  0.483-  39 2.35  53 2.35  67 2.35  81 2.35
  41  0.000  0.500  0.382-   6 2.35  32 2.35  42 2.35  52 2.35
  42  0.125  0.625  0.416-  41 2.35  43 2.35  45 2.35  47 2.35
  43  0.250  0.750  0.382-  14 2.35  16 2.35  42 2.35  44 2.35
  44  0.375  0.875  0.416-  43 2.35  49 2.35  39 2.35  61 2.35
  45  0.000  0.750  0.450-  46 2.35  64 2.35  60 2.35  42 2.35
  46  0.125  0.875  0.483-  39 2.35  45 2.35  65 2.35  75 2.35
  47  0.250  0.500  0.450-  38 2.35  48 2.35  42 2.35  36 2.35
  48  0.375  0.625  0.483-  47 2.35  61 2.35  75 2.35  89 2.35
  49  0.500  0.000  0.382-   8 2.35  30 2.35  44 2.35  50 2.35
  50  0.625  0.125  0.416-  49 2.35  51 2.35  53 2.35  55 2.35
  51  0.750  0.250  0.382-  22 2.35  24 2.35  50 2.35  52 2.35
  52  0.875  0.375  0.416-  41 2.35  51 2.35  37 2.35  63 2.35
  53  0.500  0.250  0.450-  40 2.35  54 2.35  50 2.35  36 2.35
  54  0.625  0.375  0.483-  53 2.35  63 2.35  83 2.35  89 2.35
  55  0.750  0.000  0.450-  56 2.35  62 2.35  60 2.35  50 2.35
  56  0.875  0.125  0.483-  37 2.35  55 2.35  65 2.35  83 2.35
  57  0.500  0.500  0.382-  16 2.35  22 2.35  36 2.35  58 2.35
  58  0.625  0.625  0.416-  57 2.35  59 2.35  61 2.35  63 2.35
  59  0.750  0.750  0.382-  30 2.35  32 2.35  58 2.35  60 2.35
  60  0.875  0.875  0.416-  33 2.35  59 2.35  55 2.35  45 2.35
  61  0.500  0.750  0.450-  48 2.35  62 2.35  58 2.35  44 2.35
  62  0.625  0.875  0.483-  55 2.35  61 2.35  81 2.35  91 2.35
  63  0.750  0.500  0.450-  54 2.35  64 2.35  58 2.35  52 2.35
  64  0.875  0.625  0.483-  45 2.35  63 2.35  73 2.35  91 2.35
  65  0.000  0.000  0.517-  46 2.35  56 2.35  66 2.35  92 2.35
  66  0.125  0.125  0.550-  65 2.35  67 2.35  69 2.35  71 2.35
  67  0.250  0.250  0.517-  38 2.35  40 2.35  66 2.35  68 2.35
  68  0.375  0.375  0.550-  67 2.35  89 2.35  85 2.35  79 2.35
  69  0.000  0.250  0.584-  70 2.35  88 2.35  84 2.35  66 2.35
  70  0.125  0.375  0.618-  69 2.35  79 2.35  99 2.35 105 2.35
  71  0.250  0.000  0.584-  72 2.35  78 2.35  76 2.35  66 2.35
  72  0.375  0.125  0.618-  71 2.35  85 2.35  99 2.35 113 2.35
  73  0.000  0.500  0.517-  38 2.35  64 2.35  74 2.35  84 2.35
  74  0.125  0.625  0.550-  73 2.35  75 2.35  77 2.35  79 2.35
  75  0.250  0.750  0.517-  46 2.35  48 2.35  74 2.35  76 2.35
  76  0.375  0.875  0.550-  75 2.35  81 2.35  71 2.35  93 2.35
  77  0.000  0.750  0.584-  78 2.35  96 2.35  92 2.35  74 2.35
  78  0.125  0.875  0.618-  71 2.35  77 2.35  97 2.35 107 2.35
  79  0.250  0.500  0.584-  70 2.35  80 2.35  74 2.35  68 2.35
  80  0.375  0.625  0.618-  79 2.35  93 2.35 107 2.35 121 2.35
  81  0.500  0.000  0.517-  40 2.35  62 2.35  76 2.35  82 2.35
  82  0.625  0.125  0.550-  81 2.35  83 2.35  85 2.35  87 2.35
  83  0.750  0.250  0.517-  54 2.35  56 2.35  82 2.35  84 2.35
  84  0.875  0.375  0.550-  73 2.35  83 2.35  69 2.35  95 2.35
  85  0.500  0.250  0.584-  72 2.35  86 2.35  82 2.35  68 2.35
  86  0.625  0.375  0.618-  85 2.35  95 2.35 115 2.35 121 2.35
  87  0.750  0.000  0.584-  88 2.35  94 2.35  92 2.35  82 2.35
  88  0.875  0.125  0.618-  69 2.35  87 2.35  97 2.35 115 2.35
  89  0.500  0.500  0.517-  48 2.35  54 2.35  68 2.35  90 2.35
  90  0.625  0.625  0.550-  89 2.35  91 2.35  93 2.35  95 2.35
  91  0.750  0.750  0.517-  62 2.35  64 2.35  90 2.35  92 2.35
  92  0.875  0.875  0.550-  65 2.35  91 2.35  87 2.35  77 2.35
  93  0.500  0.750  0.584-  80 2.35  94 2.35  90 2.35  76 2.35
  94  0.625  0.875  0.618-  87 2.35  93 2.35 113 2.35 123 2.35
  95  0.750  0.500  0.584-  86 2.35  96 2.35  90 2.35  84 2.35
  96  0.875  0.625  0.618-  77 2.35  95 2.35 105 2.35 123 2.35
  97  0.000  0.000  0.651-  78 2.35  88 2.35  98 2.35 124 2.35
  98  0.125  0.125  0.685-  97 2.35  99 2.35 101 2.35 103 2.35
  99  0.250  0.250  0.651-  70 2.35  72 2.35  98 2.35 100 2.35
 100  0.375  0.375  0.685-  99 2.35 121 2.35 117 2.35 111 2.35
 101  0.000  0.250  0.719- 102 2.35 120 2.35 116 2.35  98 2.35
 102  0.125  0.375  0.752- 101 2.35 111 2.35
 103  0.250  0.000  0.719- 104 2.35 110 2.35 108 2.35  98 2.35
 104  0.375  0.125  0.752- 103 2.35 117 2.35
 105  0.000  0.500  0.651-  70 2.35  96 2.35 106 2.35 116 2.35
 106  0.125  0.625  0.685- 105 2.35 107 2.35 109 2.35 111 2.35
 107  0.250  0.750  0.651-  78 2.35  80 2.35 106 2.35 108 2.35
 108  0.375  0.875  0.685- 107 2.35 113 2.35 103 2.35 125 2.35
 109  0.000  0.750  0.719- 110 2.35 128 2.35 124 2.35 106 2.35
 110  0.125  0.875  0.752- 103 2.35 109 2.35
 111  0.250  0.500  0.719- 102 2.35 112 2.35 106 2.35 100 2.35
 112  0.375  0.625  0.752- 111 2.35 125 2.35
 113  0.500  0.000  0.651-  72 2.35  94 2.35 108 2.35 114 2.35
 114  0.625  0.125  0.685- 113 2.35 115 2.35 117 2.35 119 2.35
 115  0.750  0.250  0.651-  86 2.35  88 2.35 114 2.35 116 2.35
 116  0.875  0.375  0.685- 105 2.35 115 2.35 101 2.35 127 2.35
 117  0.500  0.250  0.719- 104 2.35 118 2.35 114 2.35 100 2.35
 118  0.625  0.375  0.752- 117 2.35 127 2.35
 119  0.750  0.000  0.719- 120 2.35 126 2.35 124 2.35 114 2.35
 120  0.875  0.125  0.752- 101 2.35 119 2.35
 121  0.500  0.500  0.651-  80 2.35  86 2.35 100 2.35 122 2.35
 122  0.625  0.625  0.685- 121 2.35 123 2.35 125 2.35 127 2.35
 123  0.750  0.750  0.651-  94 2.35  96 2.35 122 2.35 124 2.35
 124  0.875  0.875  0.685-  97 2.35 123 2.35 119 2.35 109 2.35
 125  0.500  0.750  0.719- 112 2.35 126 2.35 122 2.35 108 2.35
 126  0.625  0.875  0.752- 119 2.35 125 2.35
 127  0.750  0.500  0.719- 118 2.35 128 2.35 122 2.35 116 2.35
 128  0.875  0.625  0.752- 109 2.35 127 2.35

  LATTYP: Found a simple tetragonal cell.
 ALAT       =    10.8600000000
 C/A-ratio  =     3.7166206262
  
  Lattice vectors:
  
 A1 = (  10.8600000000,   0.0000000000,   0.0000000000)
 A2 = (   0.0000000000,  10.8600000000,   0.0000000000)
 A3 = (   0.0000000000,   0.0000000000,  40.3625000000)


Analysis of symmetry for initial positions (statically):
=====================================================================
 Subroutine PRICEL returns following result:
 
  LATTYP: Found a simple tetragonal cell.
 ALAT       =     3.8395898218
 C/A-ratio  =    10.5121905914
  
  Lattice vectors:
  
 A1 = (   2.7150000000,  -2.7150000000,   0.0000000000)
 A2 = (   2.7150000000,   2.7150000000,   0.0000000000)
 A3 = (   0.0000000000,   0.0000000000,  40.3625000000)
 
   8 primitive cells build up your supercell.
 

 Routine SETGRP: Setting up the symmetry group for a 
 simple tetragonal supercell.


 Subroutine GETGRP returns: Found  8 space group operations
 (whereof  4 operations were pure point group operations)
 out of a pool of 16 trial point group operations.


The static configuration has the point symmetry C_2v.
 The point group associated with its full space group is D_2h.


Analysis of symmetry for dynamics (positions and initial velocities):
=====================================================================
 Subroutine PRICEL returns following result:
 
  LATTYP: Found a simple tetragonal cell.
 ALAT       =     3.8395898218
 C/A-ratio  =    10.5121905914
  
  Lattice vectors:
  
 A1 = (   2.7150000000,  -2.7150000000,   0.0000000000)
 A2 = (   2.7150000000,   2.7150000000,   0.0000000000)
 A3 = (   0.0000000000,   0.0000000000,  40.3625000000)
 
   8 primitive cells build up your supercell.
 

 Routine SETGRP: Setting up the symmetry group for a 
 simple tetragonal supercell.


 Subroutine GETGRP returns: Found  8 space group operations
 (whereof  4 operations were pure point group operations)
 out of a pool of 16 trial point group operations.


The dynamic configuration has the point symmetry C_2v.
 The point group associated with its full space group is D_2h.


 Subroutine INISYM returns: Found  8 space group operations
 (whereof  4 operations are pure point group operations),
 and found     8 'primitive' translations


----------------------------------------------------------------------------------------

                                     Primitive cell                                     

  volume of cell :     595.0421

  direct lattice vectors                    reciprocal lattice vectors
     2.715000000 -2.715000000  0.000000000     0.184162063 -0.184162063  0.000000000
     2.715000000  2.715000000  0.000000000     0.184162063  0.184162063 -0.000000000
     0.000000000  0.000000000 40.362500000    -0.000000000  0.000000000  0.024775472

  length of vectors
     3.839589822  3.839589822 40.362500000     0.260444487  0.260444487  0.024775472

  position of ions in fractional coordinates (direct lattice)
     0.000000000  0.000000000  0.247754723
     0.000000000  0.500000000  0.281387426
     0.500000000  0.500000000  0.315020130
     0.500000000  0.000000000  0.348652834
     0.000000000  0.000000000  0.382285537
     0.000000000  0.500000000  0.415918241
     0.500000000  0.500000000  0.449550945
     0.500000000  0.000000000  0.483183648
     0.000000000  0.000000000  0.516816352
     0.000000000  0.500000000  0.550449055
     0.500000000  0.500000000  0.584081759
     0.500000000  0.000000000  0.617714463
     0.000000000  0.000000000  0.651347166
     0.000000000  0.500000000  0.684979870
     0.500000000  0.500000000  0.718612574
     0.500000000  0.000000000  0.752245277

  ion indices of the primitive-cell ions
   primitive index   ion index
                 1           1
                 2           2
                 3           5
                 4          24
                 5          33
                 6          34
                 7          37
                 8          56
                 9          65
                10          66
                11          69
                12          88
                13          97
                14          98
                15         101
                16         120

----------------------------------------------------------------------------------------


 -----------------------------------------------------------------------------
|                                                                             |
|           W    W    AA    RRRRR   N    N  II  N    N   GGGG   !!!           |
|           W    W   A  A   R    R  NN   N  II  NN   N  G    G  !!!           |
|           W    W  A    A  R    R  N N  N  II  N N  N  G       !!!           |
|           W WW W  AAAAAA  RRRRR   N  N N  II  N  N N  G  GGG   !            |
|           WW  WW  A    A  R   R   N   NN  II  N   NN  G    G                |
|           W    W  A    A  R    R  N    N  II  N    N   GGGG   !!!           |
|                                                                             |
|     The requested file  could not be found or opened for reading            |
|     k-point information. Automatic k-point generation is used as a          |
|     fallback, which may lead to unwanted results.                           |
|                                                                             |
 -----------------------------------------------------------------------------



Automatic generation of k-mesh.
 Grid dimensions derived from KSPACING:
 generate k-points for:    3    3    1

 Generating k-lattice:

  Cartesian coordinates                     Fractional coordinates (reciprocal lattice)
     0.030693677  0.000000000  0.000000000     0.333333333  0.000000000  0.000000000
     0.000000000  0.030693677  0.000000000     0.000000000  0.333333333  0.000000000
     0.000000000  0.000000000  0.024775472     0.000000000  0.000000000  1.000000000

  Length of vectors
     0.030693677  0.030693677  0.024775472

  Shift w.r.t. Gamma in fractional coordinates (k-lattice)
     0.000000000  0.000000000  0.000000000

 
 Subroutine IBZKPT returns following result:
 ===========================================
 
 Found      4 irreducible k-points:
 
 Following reciprocal coordinates:
            Coordinates               Weight
  0.000000  0.000000  0.000000      1.000000
  0.333333  0.000000  0.000000      4.000000
  0.333333  0.333333  0.000000      2.000000
 -0.333333  0.333333  0.000000      2.000000
 
 Following cartesian coordinates:
            Coordinates               Weight
  0.000000  0.000000  0.000000      1.000000
  0.030694  0.000000  0.000000      4.000000
  0.030694  0.030694  0.000000      2.000000
 -0.030694  0.030694  0.000000      2.000000
 


--------------------------------------------------------------------------------------------------------




 Dimension of arrays:
   k-points           NKPTS =      4   k-points in BZ     NKDIM =      4   number of bands    NBANDS=    324
   number of dos      NEDOS =   2000   number of ions     NIONS =    128
   non local maximal  LDIM  =      4   non local SUM 2l+1 LMDIM =      8
   total plane-waves  NPLWV = ******
   max r-space proj   IRMAX =      1   max aug-charges    IRDMAX= 428338
   dimension x,y,z NGX =   126 NGY =  126 NGZ =  480
   dimension x,y,z NGXF=   252 NGYF=  252 NGZF=  960
   support grid    NGXF=   504 NGYF=  504 NGZF= 1920
   ions per type =             128
   NGX,Y,Z   is equivalent  to a cutoff of  19.29, 19.29, 19.77 a.u.
   NGXF,Y,Z  is equivalent  to a cutoff of  38.58, 38.58, 39.54 a.u.

 SYSTEM =  a-Si SPC                                
 POSCAR =  Si                                      

 Startparameter for this run:
   NWRITE =      2    write-flag & timer
   PREC   = accura    normal or accurate (medium, high low for compatibility)
   ISTART =      1    job   : 0-new  1-cont  2-samecut
   ICHARG =      1    charge: 1-file 2-atom 10-const
   ISPIN  =      1    spin polarized calculation?
   LNONCOLLINEAR =      F non collinear calculations
   LSORBIT =      F    spin-orbit coupling
   INIWAV =      1    electr: 0-lowe 1-rand  2-diag
   LASPH  =      T    aspherical Exc in radial PAW
 Electronic Relaxation 1
   ENCUT  = 1200.0 eV  88.20 Ry    9.39 a.u.  30.67 30.67114.01*2*pi/ulx,y,z
   ENINI  = 1200.0     initial cutoff
   ENAUG  =  322.1 eV  augmentation charge cutoff
   NELM   =    150;   NELMIN=  2; NELMDL=  0     # of ELM steps 
   EDIFF  = 0.1E-05   stopping-criterion for ELM
   LREAL  =      F    real-space projection
   NLSPLINE    = F    spline interpolate recip. space projectors
   LCOMPAT=      F    compatible to vasp.4.4
   GGA_COMPAT  = T    GGA compatible to vasp.4.4-vasp.4.6
   LMAXPAW     = -100 max onsite density
   LMAXMIX     =    2 max onsite mixed and CHGCAR
   VOSKOWN=      0    Vosko Wilk Nusair interpolation
   ROPT   =    0.00000
 Ionic relaxation
   EDIFFG = -.1E-01   stopping-criterion for IOM
   NSW    =      0    number of steps for IOM
   NBLOCK =      1;   KBLOCK =      1    inner block; outer block 
   IBRION =     -1    ionic relax: 0-MD 1-quasi-New 2-CG
   NFREE  =      0    steps in history (QN), initial steepest desc. (CG)
   ISIF   =      2    stress and relaxation
   IWAVPR =     10    prediction:  0-non 1-charg 2-wave 3-comb
   ISYM   =      1    0-nonsym 1-usesym 2-fastsym
   LCORR  =      T    Harris-Foulkes like correction to forces

   POTIM  = 0.5000    time-step for ionic-motion
   TEIN   =    0.0    initial temperature
   TEBEG  =    0.0;   TEEND  =   0.0 temperature during run
   SMASS  =  -3.00    Nose mass-parameter (am)
   estimated Nose-frequenzy (Omega)   =  0.10E-29 period in steps = 0.13E+47 mass=  -0.270E-26a.u.
   SCALEE = 1.0000    scale energy and forces
   NPACO  =    256;   APACO  = 10.0  distance and # of slots for P.C.
   PSTRESS=    0.0 pullay stress

  Mass of Ions in am
   POMASS =  28.09
  Ionic Valenz
   ZVAL   =   4.00
  Atomic Wigner-Seitz radii
   RWIGS  =  -1.00
  virtual crystal weights 
   VCA    =   1.00
   NELECT =     512.0000    total number of electrons
   NUPDOWN=      -1.0000    fix difference up-down

 DOS related values:
   EMIN   =  10.00;   EMAX   =-10.00  energy-range for DOS
   EFERMI =   0.00;   METHOD = LEGACY      
   ISMEAR =     0;   SIGMA  =   0.10  broadening in eV -4-tet -1-fermi 0-gaus
   EFERMI_NEDOS =   21; number of points for ismear=-14 and -15

 Electronic relaxation 2 (details)
   IALGO  =     38    algorithm
   LDIAG  =      F    sub-space diagonalisation (order eigenvalues)
   LSUBROT=      F    optimize rotation matrix (better conditioning)
   TURBO    =      0    0=normal 1=particle mesh
   IRESTART =      0    0=no restart 2=restart with 2 vectors
   NREBOOT  =      0    no. of reboots
   NMIN     =      0    reboot dimension
   EREF     =   0.00    reference energy to select bands
   IMIX   =      4    mixing-type and parameters
     AMIX     =   0.40;   BMIX     =  1.00
     AMIX_MAG =   1.60;   BMIX_MAG =  1.00
     AMIN     =   0.10
     WC   =   100.;   INIMIX=   1;  MIXPRE=   1;  MAXMIX= -45

 Intra band minimization:
   WEIMIN = 0.0000     energy-eigenvalue tresh-hold
   EBREAK =  0.77E-09  absolut break condition
   DEPER  =   0.30     relativ break condition  

   TIME   =   0.40     timestep for ELM

  volume/ion in A,a.u.               =      37.19       250.97
  Fermi-wavevector in a.u.,A,eV,Ry     =   0.778548  1.471243  8.247002  0.606138
  Thomas-Fermi vector in A             =   1.881467

 Write flags
   LWAVE        =      F    write WAVECAR
   LDOWNSAMPLE  =      F    k-point downsampling of WAVECAR
   LCHARG       =      F    write CHGCAR
   LVTOT        =      F    write LOCPOT, total local potential
   LVHAR        =      F    write LOCPOT, Hartree potential only
   WRT_POTENTIAL= false  ! write potential to hdf5 file
   LELF         =      F    write electronic localiz. function (ELF)
   LORBIT       =     11    0 simple, 1 ext, 2 COOP (PROOUT), +10 PAW based schemes


 Python interface
   PLUGINS active      =      F    recompile with -DPLUGINS to activate

 Dipole corrections
   LMONO      =      F    monopole corrections only (constant potential shift)
   LDIPOL     =      F    correct potential (dipole corrections)
   IDIPOL     =      0    1-x, 2-y, 3-z, 4-all directions 
   EPSILON    =  1.0000000 bulk dielectric constant
   LVACPOTAV  =      F  vacuum potentials using an averaging scheme for the charge density
   VACPOTFLAT =  0.1000000 required flatness to determine vacuum potential

Coulomb truncation method
  LTRUNCATE          =      F  Coulomb kernel truncation to be used
  IDIMENSIONALITY    =      3  Dimensionality of cutoff (0 molecules / 2 surfaces)
  ISURFACE           =     -1  Direction of surface normal
  LCOARSEN           =      F  Coarsen the charge grid before padding, preferred


 Exchange correlation treatment:
   METAGGA = SCAN    functional components
   XC_C    = 1    coefficients multiplying the functional components
   LIBXC   =     F    Libxc                    
   VOSKOWN =     0    Vosko Wilk Nusair interpolation
   LHFCALC =     F    Hartree Fock is set to
   LHFONE  =     F    Hartree Fock one center treatment
   AEXX    =    0.0000 exact exchange contribution

 Parameters of functionals:
   SCAN:
     P1 =  0.000000E+00
     P2 =  0.000000E+00
     P3 =  0.000000E+00

 Accuracy and mixing parameters for tau-dependent meta-GGA functionals:
   LMAXTAU = 6
   LMIXTAU = T

 Van der Waals corrections
   IVDW    =     0    specifies the selected vdW correction

 Linear response parameters
   LEPSILON=     F    determine dielectric tensor
   LRPA    =     F    only Hartree local field effects (RPA)
   LNABLA  =     F    use nabla operator in PAW spheres
   LVEL    =     F    velocity operator in full k-point grid
   CSHIFT  =0.1000    complex shift for real part using Kramers Kronig
   OMEGAMAX=  -1.0    maximum frequency
   DEG_THRESHOLD= 0.2000000E-02 threshold for treating states as degnerate
   RTIME   =   -0.100 relaxation time in fs
  (WPLASMAI=    0.000 imaginary part of plasma frequency in eV, 0.658/RTIME)
   DFIELD  = 0.0000000 0.0000000 0.0000000 field for delta impulse in time

  Optional k-point grid parameters
   LKPOINTS_OPT  =     F    use optional k-point grid
   KPOINTS_OPT_MODE=     1    mode for optional k-point grid

 Orbital magnetization related:
   ORBITALMAG=     F  switch on orbital magnetization
   LCHIMAG   =     F  perturbation theory with respect to B field
   DQ        =  0.001000  dq finite difference perturbation B field
   LLRAUG    =     F  two centre corrections for induced B field
   LBONE     =     F  B-component reconstruction in AE one-centre
   LVGVCALC  =     T  calculate vGv susceptibility
   LVGVAPPL  =     F  apply vGv susceptibility instead of pGv for G=0

 Random number generation:
   RANDOM_GENERATOR = DEFAULT
   PCG_SEED         = not used


--------------------------------------------------------------------------------------------------------


 Static calculation
 charge density and potential will be updated during run
 non-spin polarized calculation
 Variant of blocked Davidson
 perform Loewdin sub-space diagonalisation
    ordering is kept fixed
    before iterative eigenvector-optimisation
 modified Broyden-mixing scheme, WC =      100.0
 initial mixing is a Kerker type mixing with AMIX =  0.4000 and BMIX =      1.0000
 Hartree-type preconditioning will be used
 using additional bands           68
 reciprocal scheme for non local part
 use partial core corrections
 calculate Harris-corrections to forces   (improved forces if not selfconsistent)
 use gradient corrections 
 use of overlap-Matrix (Vanderbilt PP)
 Gauss-broadening in eV      SIGMA  =   0.10


--------------------------------------------------------------------------------------------------------


  energy-cutoff  :     1200.00
  volume of cell :     4760.34
      direct lattice vectors                 reciprocal lattice vectors
    10.860000000  0.000000000  0.000000000     0.092081031  0.000000000  0.000000000
     0.000000000 10.860000000  0.000000000     0.000000000  0.092081031  0.000000000
     0.000000000  0.000000000 40.362500000     0.000000000  0.000000000  0.024775472

  length of vectors
    10.860000000 10.860000000 40.362500000     0.092081031  0.092081031  0.024775472



 old parameters found on file WAVECAR:
  energy-cutoff  :     1200.00
  volume of cell :     4760.34
      direct lattice vectors                 reciprocal lattice vectors
    10.860000000  0.000000000  0.000000000     0.092081031  0.000000000  0.000000000
     0.000000000 10.860000000  0.000000000     0.000000000  0.092081031  0.000000000
     0.000000000  0.000000000 40.362500000     0.000000000  0.000000000  0.024775472

  length of vectors


 k-points in units of 2pi/SCALE and weight: read from INCAR                         
   0.00000000  0.00000000  0.00000000       0.111
   0.03069368  0.00000000  0.00000000       0.444
   0.03069368  0.03069368  0.00000000       0.222
  -0.03069368  0.03069368  0.00000000       0.222

 k-points in reciprocal lattice and weights: read from INCAR                         
   0.00000000  0.00000000  0.00000000       0.111
   0.33333333  0.00000000  0.00000000       0.444
   0.33333333  0.33333333  0.00000000       0.222
  -0.33333333  0.33333333  0.00000000       0.222

 position of ions in fractional coordinates (direct lattice) 
   0.00000000  0.00000000  0.24775472
   0.12500000  0.12500000  0.28138743
   0.25000000  0.25000000  0.24775472
   0.37500000  0.37500000  0.28138743
   0.00000000  0.25000000  0.31502013
   0.12500000  0.37500000  0.34865283
   0.25000000  0.00000000  0.31502013
   0.37500000  0.12500000  0.34865283
   0.00000000  0.50000000  0.24775472
   0.12500000  0.62500000  0.28138743
   0.25000000  0.75000000  0.24775472
   0.37500000  0.87500000  0.28138743
   0.00000000  0.75000000  0.31502013
   0.12500000  0.87500000  0.34865283
   0.25000000  0.50000000  0.31502013
   0.37500000  0.62500000  0.34865283
   0.50000000  0.00000000  0.24775472
   0.62500000  0.12500000  0.28138743
   0.75000000  0.25000000  0.24775472
   0.87500000  0.37500000  0.28138743
   0.50000000  0.25000000  0.31502013
   0.62500000  0.37500000  0.34865283
   0.75000000  0.00000000  0.31502013
   0.87500000  0.12500000  0.34865283
   0.50000000  0.50000000  0.24775472
   0.62500000  0.62500000  0.28138743
   0.75000000  0.75000000  0.24775472
   0.87500000  0.87500000  0.28138743
   0.50000000  0.75000000  0.31502013
   0.62500000  0.87500000  0.34865283
   0.75000000  0.50000000  0.31502013
   0.87500000  0.62500000  0.34865283
   0.00000000  0.00000000  0.38228554
   0.12500000  0.12500000  0.41591824
   0.25000000  0.25000000  0.38228554
   0.37500000  0.37500000  0.41591824
   0.00000000  0.25000000  0.44955094
   0.12500000  0.37500000  0.48318365
   0.25000000  0.00000000  0.44955094
   0.37500000  0.12500000  0.48318365
   0.00000000  0.50000000  0.38228554
   0.12500000  0.62500000  0.41591824
   0.25000000  0.75000000  0.38228554
   0.37500000  0.87500000  0.41591824
   0.00000000  0.75000000  0.44955094
   0.12500000  0.87500000  0.48318365
   0.25000000  0.50000000  0.44955094
   0.37500000  0.62500000  0.48318365
   0.50000000  0.00000000  0.38228554
   0.62500000  0.12500000  0.41591824
   0.75000000  0.25000000  0.38228554
   0.87500000  0.37500000  0.41591824
   0.50000000  0.25000000  0.44955094
   0.62500000  0.37500000  0.48318365
   0.75000000  0.00000000  0.44955094
   0.87500000  0.12500000  0.48318365
   0.50000000  0.50000000  0.38228554
   0.62500000  0.62500000  0.41591824
   0.75000000  0.75000000  0.38228554
   0.87500000  0.87500000  0.41591824
   0.50000000  0.75000000  0.44955094
   0.62500000  0.87500000  0.48318365
   0.75000000  0.50000000  0.44955094
   0.87500000  0.62500000  0.48318365
   0.00000000  0.00000000  0.51681635
   0.12500000  0.12500000  0.55044906
   0.25000000  0.25000000  0.51681635
   0.37500000  0.37500000  0.55044906
   0.00000000  0.25000000  0.58408176
   0.12500000  0.37500000  0.61771446
   0.25000000  0.00000000  0.58408176
   0.37500000  0.12500000  0.61771446
   0.00000000  0.50000000  0.51681635
   0.12500000  0.62500000  0.55044906
   0.25000000  0.75000000  0.51681635
   0.37500000  0.87500000  0.55044906
   0.00000000  0.75000000  0.58408176
   0.12500000  0.87500000  0.61771446
   0.25000000  0.50000000  0.58408176
   0.37500000  0.62500000  0.61771446
   0.50000000  0.00000000  0.51681635
   0.62500000  0.12500000  0.55044906
   0.75000000  0.25000000  0.51681635
   0.87500000  0.37500000  0.55044906
   0.50000000  0.25000000  0.58408176
   0.62500000  0.37500000  0.61771446
   0.75000000  0.00000000  0.58408176
   0.87500000  0.12500000  0.61771446
   0.50000000  0.50000000  0.51681635
   0.62500000  0.62500000  0.55044906
   0.75000000  0.75000000  0.51681635
   0.87500000  0.87500000  0.55044906
   0.50000000  0.75000000  0.58408176
   0.62500000  0.87500000  0.61771446
   0.75000000  0.50000000  0.58408176
   0.87500000  0.62500000  0.61771446
   0.00000000  0.00000000  0.65134717
   0.12500000  0.12500000  0.68497987
   0.25000000  0.25000000  0.65134717
   0.37500000  0.37500000  0.68497987
   0.00000000  0.25000000  0.71861257
   0.12500000  0.37500000  0.75224528
   0.25000000  0.00000000  0.71861257
   0.37500000  0.12500000  0.75224528
   0.00000000  0.50000000  0.65134717
   0.12500000  0.62500000  0.68497987
   0.25000000  0.75000000  0.65134717
   0.37500000  0.87500000  0.68497987
   0.00000000  0.75000000  0.71861257
   0.12500000  0.87500000  0.75224528
   0.25000000  0.50000000  0.71861257
   0.37500000  0.62500000  0.75224528
   0.50000000  0.00000000  0.65134717
   0.62500000  0.12500000  0.68497987
   0.75000000  0.25000000  0.65134717
   0.87500000  0.37500000  0.68497987
   0.50000000  0.25000000  0.71861257
   0.62500000  0.37500000  0.75224528
   0.75000000  0.00000000  0.71861257
   0.87500000  0.12500000  0.75224528
   0.50000000  0.50000000  0.65134717
   0.62500000  0.62500000  0.68497987
   0.75000000  0.75000000  0.65134717
   0.87500000  0.87500000  0.68497987
   0.50000000  0.75000000  0.71861257
   0.62500000  0.87500000  0.75224528
   0.75000000  0.50000000  0.71861257
   0.87500000  0.62500000  0.75224528

 position of ions in cartesian coordinates  (Angst):
   0.00000000  0.00000000 10.00000000
   1.35750000  1.35750000 11.35750000
   2.71500000  2.71500000 10.00000000
   4.07250000  4.07250000 11.35750000
   0.00000000  2.71500000 12.71500000
   1.35750000  4.07250000 14.07250000
   2.71500000  0.00000000 12.71500000
   4.07250000  1.35750000 14.07250000
   0.00000000  5.43000000 10.00000000
   1.35750000  6.78750000 11.35750000
   2.71500000  8.14500000 10.00000000
   4.07250000  9.50250000 11.35750000
   0.00000000  8.14500000 12.71500000
   1.35750000  9.50250000 14.07250000
   2.71500000  5.43000000 12.71500000
   4.07250000  6.78750000 14.07250000
   5.43000000  0.00000000 10.00000000
   6.78750000  1.35750000 11.35750000
   8.14500000  2.71500000 10.00000000
   9.50250000  4.07250000 11.35750000
   5.43000000  2.71500000 12.71500000
   6.78750000  4.07250000 14.07250000
   8.14500000  0.00000000 12.71500000
   9.50250000  1.35750000 14.07250000
   5.43000000  5.43000000 10.00000000
   6.78750000  6.78750000 11.35750000
   8.14500000  8.14500000 10.00000000
   9.50250000  9.50250000 11.35750000
   5.43000000  8.14500000 12.71500000
   6.78750000  9.50250000 14.07250000
   8.14500000  5.43000000 12.71500000
   9.50250000  6.78750000 14.07250000
   0.00000000  0.00000000 15.43000000
   1.35750000  1.35750000 16.78750000
   2.71500000  2.71500000 15.43000000
   4.07250000  4.07250000 16.78750000
   0.00000000  2.71500000 18.14500000
   1.35750000  4.07250000 19.50250000
   2.71500000  0.00000000 18.14500000
   4.07250000  1.35750000 19.50250000
   0.00000000  5.43000000 15.43000000
   1.35750000  6.78750000 16.78750000
   2.71500000  8.14500000 15.43000000
   4.07250000  9.50250000 16.78750000
   0.00000000  8.14500000 18.14500000
   1.35750000  9.50250000 19.50250000
   2.71500000  5.43000000 18.14500000
   4.07250000  6.78750000 19.50250000
   5.43000000  0.00000000 15.43000000
   6.78750000  1.35750000 16.78750000
   8.14500000  2.71500000 15.43000000
   9.50250000  4.07250000 16.78750000
   5.43000000  2.71500000 18.14500000
   6.78750000  4.07250000 19.50250000
   8.14500000  0.00000000 18.14500000
   9.50250000  1.35750000 19.50250000
   5.43000000  5.43000000 15.43000000
   6.78750000  6.78750000 16.78750000
   8.14500000  8.14500000 15.43000000
   9.50250000  9.50250000 16.78750000
   5.43000000  8.14500000 18.14500000
   6.78750000  9.50250000 19.50250000
   8.14500000  5.43000000 18.14500000
   9.50250000  6.78750000 19.50250000
   0.00000000  0.00000000 20.86000000
   1.35750000  1.35750000 22.21750000
   2.71500000  2.71500000 20.86000000
   4.07250000  4.07250000 22.21750000
   0.00000000  2.71500000 23.57500000
   1.35750000  4.07250000 24.93250000
   2.71500000  0.00000000 23.57500000
   4.07250000  1.35750000 24.93250000
   0.00000000  5.43000000 20.86000000
   1.35750000  6.78750000 22.21750000
   2.71500000  8.14500000 20.86000000
   4.07250000  9.50250000 22.21750000
   0.00000000  8.14500000 23.57500000
   1.35750000  9.50250000 24.93250000
   2.71500000  5.43000000 23.57500000
   4.07250000  6.78750000 24.93250000
   5.43000000  0.00000000 20.86000000
   6.78750000  1.35750000 22.21750000
   8.14500000  2.71500000 20.86000000
   9.50250000  4.07250000 22.21750000
   5.43000000  2.71500000 23.57500000
   6.78750000  4.07250000 24.93250000
   8.14500000  0.00000000 23.57500000
   9.50250000  1.35750000 24.93250000
   5.43000000  5.43000000 20.86000000
   6.78750000  6.78750000 22.21750000
   8.14500000  8.14500000 20.86000000
   9.50250000  9.50250000 22.21750000
   5.43000000  8.14500000 23.57500000
   6.78750000  9.50250000 24.93250000
   8.14500000  5.43000000 23.57500000
   9.50250000  6.78750000 24.93250000
   0.00000000  0.00000000 26.29000000
   1.35750000  1.35750000 27.64750000
   2.71500000  2.71500000 26.29000000
   4.07250000  4.07250000 27.64750000
   0.00000000  2.71500000 29.00500000
   1.35750000  4.07250000 30.36250000
   2.71500000  0.00000000 29.00500000
   4.07250000  1.35750000 30.36250000
   0.00000000  5.43000000 26.29000000
   1.35750000  6.78750000 27.64750000
   2.71500000  8.14500000 26.29000000
   4.07250000  9.50250000 27.64750000
   0.00000000  8.14500000 29.00500000
   1.35750000  9.50250000 30.36250000
   2.71500000  5.43000000 29.00500000
   4.07250000  6.78750000 30.36250000
   5.43000000  0.00000000 26.29000000
   6.78750000  1.35750000 27.64750000
   8.14500000  2.71500000 26.29000000
   9.50250000  4.07250000 27.64750000
   5.43000000  2.71500000 29.00500000
   6.78750000  4.07250000 30.36250000
   8.14500000  0.00000000 29.00500000
   9.50250000  1.35750000 30.36250000
   5.43000000  5.43000000 26.29000000
   6.78750000  6.78750000 27.64750000
   8.14500000  8.14500000 26.29000000
   9.50250000  9.50250000 27.64750000
   5.43000000  8.14500000 29.00500000
   6.78750000  9.50250000 30.36250000
   8.14500000  5.43000000 29.00500000
   9.50250000  6.78750000 30.36250000



--------------------------------------------------------------------------------------------------------


 k-point     1 :   0.0000 0.0000 0.0000  plane waves:  449425
 k-point     2 :   0.3333 0.0000 0.0000  plane waves:  449230
 k-point     3 :   0.3333 0.3333 0.0000  plane waves:  449286
 k-point     4 :  -0.3333 0.3333 0.0000  plane waves:  449286

 maximum and minimum number of plane-waves per node :     28157    28027

 maximum number of plane-waves:    449425
 maximum index in each direction: 
   IXMAX=   31   IYMAX=   30   IZMAX=  114
   IXMIN=  -31   IYMIN=  -31   IZMIN= -114


 parallel 3D FFT for wavefunctions:
    minimum data exchange during FFTs selected (reduces bandwidth)
 parallel 3D FFT for charge:
    minimum data exchange during FFTs selected (reduces bandwidth)


 total amount of memory used by VASP MPI-rank0   484715. kBytes
=======================================================================

   base                                    :      30000. kBytes
   nonl-proj                               :      64816. kBytes
   fftplans                                :     154585. kBytes
   grid                                    :      89122. kBytes
   one-center                              :         24. kBytes
   wavefun                                 :     146168. kBytes

     INWAV:  cpu time     21.1077: real time     21.1187
 Broyden mixing: mesh for mixing (old mesh)
   NGX = 61   NGY = 61   NGZ =229
  (NGX  =252   NGY  =252   NGZ  =960)
  gives a total of 852109 points

 initial charge density was supplied:
 number of electron     511.9999999 magnetization 
 keeping initial charge density in first step


--------------------------------------------------------------------------------------------------------


 Maximum index for augmentation-charges         6788 (set IRDMAX)


--------------------------------------------------------------------------------------------------------


 First call to EWALD:  gamma=   0.105
 Maximum number of real-space cells   4x   4x   1
 Maximum number of reciprocal cells   2x   2x   6

    FEWALD:  cpu time      0.0195: real time      0.0195


--------------------------------------- Ionic step        1  -------------------------------------------




--------------------------------------- Iteration      1(   1)  ---------------------------------------


    POTLOK:  cpu time      3.0626: real time      3.0642
    SETDIJ:  cpu time      2.5051: real time      2.5067
    EDDIAG:  cpu time     85.8357: real time     85.8812
     EDDAV:  cpu time    389.7014: real time    389.9130
       DOS:  cpu time      0.0082: real time      0.0082
    CHARGE:  cpu time     96.7822: real time     96.8337
    MIXING:  cpu time      0.0735: real time      0.0737
    --------------------------------------------
      LOOP:  cpu time    577.9687: real time    578.2809

 eigenvalue-minimisations  :  2624
 total energy-change (2. order) :-0.1330352E+04  (-0.1411770E+01)
 number of electron     511.9999999 magnetization 
 augmentation part      -28.7404080 magnetization 

 Broyden mixing:
  rms(total) = 0.14897E+01    rms(broyden)= 0.35676E+02
  rms(prec ) = 0.15322E+01
  weight for this iteration     100.00
  WARNING: grid for Broyden might be to small

 Free energy of the ion-electron system (eV)
  ---------------------------------------------------
  alpha Z        PSCENC =       115.86085667
  Ewald energy   TEWEN  =    130414.66939728
  -Hartree energ DENC   =   -143301.10508287
  -exchange      EXHF   =         0.00000000
  -V(xc)+E(xc)   XCENC  =      -624.89849961
  PAW double counting   =     50638.71909429   -49363.52233995
  entropy T*S    EENTRO =        -0.26842970
  eigenvalues    EBANDS =     -2402.36207241
  atomic energy  EATOM  =     13192.55497936
  Solvation  Ediel_sol  =         0.00000000
  ---------------------------------------------------
  free energy    TOTEN  =     -1330.35209694 eV

  energy without entropy =    -1330.08366723  energy(sigma->0) =    -1330.21788208


--------------------------------------------------------------------------------------------------------




--------------------------------------- Iteration      1(   2)  ---------------------------------------


    POTLOK:  cpu time      3.0340: real time      3.0434
    SETDIJ:  cpu time      2.5138: real time      2.5153
    EDDIAG:  cpu time     85.8838: real time     85.9314
     EDDAV:  cpu time    390.1328: real time    390.3443
       DOS:  cpu time      0.0043: real time      0.0043
    CHARGE:  cpu time     97.0978: real time     97.1628
    MIXING:  cpu time      0.0721: real time      0.0726
    --------------------------------------------
      LOOP:  cpu time    578.7385: real time    579.0741

 eigenvalue-minimisations  :  2632
 total energy-change (2. order) : 0.9120550E+02  (-0.1279374E+01)
 number of electron     511.9999999 magnetization 
 augmentation part      -28.6323589 magnetization 

 Broyden mixing:
  rms(total) = 0.98033E+00    rms(broyden)= 0.20626E+02
  rms(prec ) = 0.10023E+01
  weight for this iteration     100.00
  WARNING: grid for Broyden might be to small

 eigenvalues of (default mixing * dielectric matrix)
  average eigenvalue GAMMA=   0.6337
  0.6337

 Free energy of the ion-electron system (eV)
  ---------------------------------------------------
  alpha Z        PSCENC =       115.86085667
  Ewald energy   TEWEN  =    130414.66939728
  -Hartree energ DENC   =   -143290.36527413
  -exchange      EXHF   =         0.00000000
  -V(xc)+E(xc)   XCENC  =      -611.31264366
  PAW double counting   =     60787.04188670   -59511.47712865
  entropy T*S    EENTRO =        -0.23545255
  eigenvalues    EBANDS =     -2335.88321837
  atomic energy  EATOM  =     13192.55497936
  Solvation  Ediel_sol  =         0.00000000
  ---------------------------------------------------
  free energy    TOTEN  =     -1239.14659734 eV

  energy without entropy =    -1238.91114479  energy(sigma->0) =    -1239.02887106


--------------------------------------------------------------------------------------------------------




--------------------------------------- Iteration      1(   3)  ---------------------------------------


    POTLOK:  cpu time      3.0518: real time      3.0536
    SETDIJ:  cpu time      2.5072: real time      2.5086
    EDDIAG:  cpu time     85.8273: real time     85.8796
     EDDAV:  cpu time    390.0134: real time    390.2265
       DOS:  cpu time      0.0075: real time      0.0076
    CHARGE:  cpu time     97.3445: real time     97.3976
    MIXING:  cpu time      0.0688: real time      0.0688
    --------------------------------------------
      LOOP:  cpu time    578.8206: real time    579.1423

 eigenvalue-minimisations  :  2632
 total energy-change (2. order) :-0.6148352E+01  (-0.1077308E+01)
 number of electron     511.9999999 magnetization 
 augmentation part      -28.5437995 magnetization 

 Broyden mixing:
  rms(total) = 0.39162E+00    rms(broyden)= 0.31448E+02
  rms(prec ) = 0.50321E+00
  weight for this iteration     100.00
  WARNING: grid for Broyden might be to small

 eigenvalues of (default mixing * dielectric matrix)
  average eigenvalue GAMMA=   0.8012
  0.9751  0.6273

 Free energy of the ion-electron system (eV)
  ---------------------------------------------------
  alpha Z        PSCENC =       115.86085667
  Ewald energy   TEWEN  =    130414.66939728
  -Hartree energ DENC   =   -143272.65470367
  -exchange      EXHF   =         0.00000000
  -V(xc)+E(xc)   XCENC  =      -618.93901429
  PAW double counting   =     72805.10181674   -71529.69539395
  entropy T*S    EENTRO =        -0.23053222
  eigenvalues    EBANDS =     -2351.96235531
  atomic energy  EATOM  =     13192.55497936
  Solvation  Ediel_sol  =         0.00000000
  ---------------------------------------------------
  free energy    TOTEN  =     -1245.29494938 eV

  energy without entropy =    -1245.06441717  energy(sigma->0) =    -1245.17968327


--------------------------------------------------------------------------------------------------------




--------------------------------------- Iteration      1(   4)  ---------------------------------------


    POTLOK:  cpu time      3.0467: real time      3.0484
    SETDIJ:  cpu time      2.5128: real time      2.5140
    EDDIAG:  cpu time     85.7971: real time     85.8475
     EDDAV:  cpu time    391.4617: real time    391.6815
       DOS:  cpu time      0.0070: real time      0.0070
    CHARGE:  cpu time     97.4456: real time     97.5165
    MIXING:  cpu time      0.0747: real time      0.0747
    --------------------------------------------
      LOOP:  cpu time    580.3455: real time    580.6896

 eigenvalue-minimisations  :  2648
 total energy-change (2. order) : 0.5827521E+00  (-0.1139804E+00)
 number of electron     511.9999999 magnetization 
 augmentation part      -28.5315220 magnetization 

 Broyden mixing:
  rms(total) = 0.47132E-01    rms(broyden)= 0.26235E+01
  rms(prec ) = 0.54440E-01
  weight for this iteration     100.00
  WARNING: grid for Broyden might be to small

 eigenvalues of (default mixing * dielectric matrix)
  average eigenvalue GAMMA=   1.1697
  2.1626  0.7237  0.6228

 Free energy of the ion-electron system (eV)
  ---------------------------------------------------
  alpha Z        PSCENC =       115.86085667
  Ewald energy   TEWEN  =    130414.66939728
  -Hartree energ DENC   =   -143285.44812046
  -exchange      EXHF   =         0.00000000
  -V(xc)+E(xc)   XCENC  =      -619.62972756
  PAW double counting   =     81419.57962142   -80144.22880505
  entropy T*S    EENTRO =        -0.23363342
  eigenvalues    EBANDS =     -2337.83676556
  atomic energy  EATOM  =     13192.55497936
  Solvation  Ediel_sol  =         0.00000000
  ---------------------------------------------------
  free energy    TOTEN  =     -1244.71219732 eV

  energy without entropy =    -1244.47856390  energy(sigma->0) =    -1244.59538061


--------------------------------------------------------------------------------------------------------




--------------------------------------- Iteration      1(   5)  ---------------------------------------


    POTLOK:  cpu time      3.0451: real time      3.0465
    SETDIJ:  cpu time      2.5154: real time      2.5167
    EDDIAG:  cpu time     85.8072: real time     85.8556
     EDDAV:  cpu time    437.7985: real time    438.0402
       DOS:  cpu time      0.0047: real time      0.0047
    CHARGE:  cpu time     97.0268: real time     97.0756
    MIXING:  cpu time      0.0749: real time      0.0749
    --------------------------------------------
      LOOP:  cpu time    626.2726: real time    626.6142

 eigenvalue-minimisations  :  3192
 total energy-change (2. order) :-0.5022447E-01  (-0.8821949E-02)
 number of electron     511.9999999 magnetization 
 augmentation part      -28.5344361 magnetization 

 Broyden mixing:
  rms(total) = 0.31747E-01    rms(broyden)= 0.39097E+00
  rms(prec ) = 0.32630E-01
  weight for this iteration     100.00
  WARNING: grid for Broyden might be to small

 eigenvalues of (default mixing * dielectric matrix)
  average eigenvalue GAMMA=   1.2053
  2.5603  0.9751  0.6274  0.6583

 Free energy of the ion-electron system (eV)
  ---------------------------------------------------
  alpha Z        PSCENC =       115.86085667
  Ewald energy   TEWEN  =    130414.66939728
  -Hartree energ DENC   =   -143285.22457227
  -exchange      EXHF   =         0.00000000
  -V(xc)+E(xc)   XCENC  =      -621.07592419
  PAW double counting   =     80732.49059577   -79457.08683744
  entropy T*S    EENTRO =        -0.23332813
  eigenvalues    EBANDS =     -2336.71758885
  atomic energy  EATOM  =     13192.55497936
  Solvation  Ediel_sol  =         0.00000000
  ---------------------------------------------------
  free energy    TOTEN  =     -1244.76242179 eV

  energy without entropy =    -1244.52909366  energy(sigma->0) =    -1244.64575772


--------------------------------------------------------------------------------------------------------




--------------------------------------- Iteration      1(   6)  ---------------------------------------


    POTLOK:  cpu time      3.0476: real time      3.0487
    SETDIJ:  cpu time      2.5077: real time      2.5091
    EDDIAG:  cpu time     85.9350: real time     85.9861
     EDDAV:  cpu time    416.7931: real time    417.0206
       DOS:  cpu time      0.0052: real time      0.0052
    CHARGE:  cpu time     97.0181: real time     97.0685
    MIXING:  cpu time      0.0738: real time      0.0737
    --------------------------------------------
      LOOP:  cpu time    605.3804: real time    605.7119

 eigenvalue-minimisations  :  2944
 total energy-change (2. order) :-0.9151169E-02  (-0.2190200E-02)
 number of electron     511.9999999 magnetization 
 augmentation part      -28.5285302 magnetization 

 Broyden mixing:
  rms(total) = 0.93018E-02    rms(broyden)= 0.53446E+00
  rms(prec ) = 0.11232E-01
  weight for this iteration     100.00
  WARNING: grid for Broyden might be to small

 eigenvalues of (default mixing * dielectric matrix)
  average eigenvalue GAMMA=   1.1679
  2.5529  1.2021  0.8109  0.6417  0.6321

 Free energy of the ion-electron system (eV)
  ---------------------------------------------------
  alpha Z        PSCENC =       115.86085667
  Ewald energy   TEWEN  =    130414.66939728
  -Hartree energ DENC   =   -143281.59723443
  -exchange      EXHF   =         0.00000000
  -V(xc)+E(xc)   XCENC  =      -620.79977075
  PAW double counting   =     80616.69145639   -79341.23216491
  entropy T*S    EENTRO =        -0.23332345
  eigenvalues    EBANDS =     -2340.68576913
  atomic energy  EATOM  =     13192.55497936
  Solvation  Ediel_sol  =         0.00000000
  ---------------------------------------------------
  free energy    TOTEN  =     -1244.77157296 eV

  energy without entropy =    -1244.53824951  energy(sigma->0) =    -1244.65491123


--------------------------------------------------------------------------------------------------------




--------------------------------------- Iteration      1(   7)  ---------------------------------------


    POTLOK:  cpu time      3.0514: real time      3.0527
    SETDIJ:  cpu time      2.5072: real time      2.5081
    EDDIAG:  cpu time     85.8973: real time     85.9482
     EDDAV:  cpu time    435.9184: real time    436.1502
       DOS:  cpu time      0.0074: real time      0.0075
    CHARGE:  cpu time     97.2707: real time     97.3589
    MIXING:  cpu time      0.0710: real time      0.0714
    --------------------------------------------
      LOOP:  cpu time    624.7233: real time    625.0970

 eigenvalue-minimisations  :  3168
 total energy-change (2. order) :-0.4701950E-03  (-0.3005870E-03)
 number of electron     511.9999999 magnetization 
 augmentation part      -28.5281277 magnetization 

 Broyden mixing:
  rms(total) = 0.30079E-02    rms(broyden)= 0.79787E-01
  rms(prec ) = 0.33158E-02
  weight for this iteration     100.00
  WARNING: grid for Broyden might be to small

 eigenvalues of (default mixing * dielectric matrix)
  average eigenvalue GAMMA=   1.2478
  2.5603  1.9110  1.0040  0.7421  0.6289  0.6407

 Free energy of the ion-electron system (eV)
  ---------------------------------------------------
  alpha Z        PSCENC =       115.86085667
  Ewald energy   TEWEN  =    130414.66939728
  -Hartree energ DENC   =   -143282.07412055
  -exchange      EXHF   =         0.00000000
  -V(xc)+E(xc)   XCENC  =      -620.81699638
  PAW double counting   =     80694.67192791   -79419.19227820
  entropy T*S    EENTRO =        -0.23360013
  eigenvalues    EBANDS =     -2340.21220912
  atomic energy  EATOM  =     13192.55497936
  Solvation  Ediel_sol  =         0.00000000
  ---------------------------------------------------
  free energy    TOTEN  =     -1244.77204315 eV

  energy without entropy =    -1244.53844303  energy(sigma->0) =    -1244.65524309


--------------------------------------------------------------------------------------------------------




--------------------------------------- Iteration      1(   8)  ---------------------------------------


    POTLOK:  cpu time      3.0491: real time      3.0588
    SETDIJ:  cpu time      2.5052: real time      2.5063
    EDDIAG:  cpu time     85.8848: real time     85.9339
     EDDAV:  cpu time    416.9147: real time    417.1431
       DOS:  cpu time      0.0048: real time      0.0048
    CHARGE:  cpu time     96.7755: real time     96.8260
    MIXING:  cpu time      0.0776: real time      0.0776
    --------------------------------------------
      LOOP:  cpu time    605.2117: real time    605.5504

 eigenvalue-minimisations  :  2944
 total energy-change (2. order) :-0.1404226E-03  (-0.6456945E-04)
 number of electron     511.9999999 magnetization 
 augmentation part      -28.5295857 magnetization 

 Broyden mixing:
  rms(total) = 0.17819E-02    rms(broyden)= 0.38521E-01
  rms(prec ) = 0.20492E-02
  weight for this iteration     100.00
  WARNING: grid for Broyden might be to small

 eigenvalues of (default mixing * dielectric matrix)
  average eigenvalue GAMMA=   1.3300
  2.7456  2.6332  1.0785  0.8787  0.7094  0.6263  0.6386

 Free energy of the ion-electron system (eV)
  ---------------------------------------------------
  alpha Z        PSCENC =       115.86085667
  Ewald energy   TEWEN  =    130414.66939728
  -Hartree energ DENC   =   -143281.62468944
  -exchange      EXHF   =         0.00000000
  -V(xc)+E(xc)   XCENC  =      -621.00567805
  PAW double counting   =     80717.26885025   -79441.79045131
  entropy T*S    EENTRO =        -0.23365047
  eigenvalues    EBANDS =     -2340.47179788
  atomic energy  EATOM  =     13192.55497936
  Solvation  Ediel_sol  =         0.00000000
  ---------------------------------------------------
  free energy    TOTEN  =     -1244.77218358 eV

  energy without entropy =    -1244.53853311  energy(sigma->0) =    -1244.65535834


--------------------------------------------------------------------------------------------------------




--------------------------------------- Iteration      1(   9)  ---------------------------------------


    POTLOK:  cpu time      3.0327: real time      3.0524
    SETDIJ:  cpu time      2.5153: real time      2.5168
    EDDIAG:  cpu time     85.9128: real time     85.9596
     EDDAV:  cpu time    404.7548: real time    404.9748
       DOS:  cpu time      0.0072: real time      0.0072
    CHARGE:  cpu time     96.7946: real time     96.8440
    MIXING:  cpu time      0.0797: real time      0.0797
    --------------------------------------------
      LOOP:  cpu time    593.0972: real time    593.4346

 eigenvalue-minimisations  :  2800
 total energy-change (2. order) :-0.2078191E-03  (-0.3544644E-04)
 number of electron     511.9999999 magnetization 
 augmentation part      -28.5296900 magnetization 

 Broyden mixing:
  rms(total) = 0.97226E-03    rms(broyden)= 0.23651E-01
  rms(prec ) = 0.12147E-02
  weight for this iteration     100.00
  WARNING: grid for Broyden might be to small

 eigenvalues of (default mixing * dielectric matrix)
  average eigenvalue GAMMA=   1.4363
  3.6118  2.6010  1.4978  1.0188  0.8157  0.6865  0.6237  0.6353

 Free energy of the ion-electron system (eV)
  ---------------------------------------------------
  alpha Z        PSCENC =       115.86085667
  Ewald energy   TEWEN  =    130414.66939728
  -Hartree energ DENC   =   -143280.52629467
  -exchange      EXHF   =         0.00000000
  -V(xc)+E(xc)   XCENC  =      -621.03544384
  PAW double counting   =     80698.28780449   -79422.80633568
  entropy T*S    EENTRO =        -0.23367307
  eigenvalues    EBANDS =     -2341.54368195
  atomic energy  EATOM  =     13192.55497936
  Solvation  Ediel_sol  =         0.00000000
  ---------------------------------------------------
  free energy    TOTEN  =     -1244.77239139 eV

  energy without entropy =    -1244.53871833  energy(sigma->0) =    -1244.65555486


--------------------------------------------------------------------------------------------------------




--------------------------------------- Iteration      1(  10)  ---------------------------------------


    POTLOK:  cpu time      3.0475: real time      3.0489
    SETDIJ:  cpu time      2.5124: real time      2.5134
    EDDIAG:  cpu time     85.8877: real time     85.9338
     EDDAV:  cpu time    396.1766: real time    396.3893
       DOS:  cpu time      0.0047: real time      0.0047
    CHARGE:  cpu time     96.8475: real time     96.8993
    MIXING:  cpu time      0.0735: real time      0.0736
    --------------------------------------------
      LOOP:  cpu time    584.5498: real time    584.8628

 eigenvalue-minimisations  :  2704
 total energy-change (2. order) :-0.4304224E-03  (-0.4279984E-04)
 number of electron     511.9999999 magnetization 
 augmentation part      -28.5299355 magnetization 

 Broyden mixing:
  rms(total) = 0.59187E-03    rms(broyden)= 0.10236E-01
  rms(prec ) = 0.75493E-03
  weight for this iteration     100.00
  WARNING: grid for Broyden might be to small

 eigenvalues of (default mixing * dielectric matrix)
  average eigenvalue GAMMA=   1.5158
  4.3737  2.6095  1.9989  1.0308  0.9089  0.7822  0.6803  0.6260  0.6316

 Free energy of the ion-electron system (eV)
  ---------------------------------------------------
  alpha Z        PSCENC =       115.86085667
  Ewald energy   TEWEN  =    130414.66939728
  -Hartree energ DENC   =   -143279.40831424
  -exchange      EXHF   =         0.00000000
  -V(xc)+E(xc)   XCENC  =      -621.05923620
  PAW double counting   =     80691.87671853   -79416.39296487
  entropy T*S    EENTRO =        -0.23373184
  eigenvalues    EBANDS =     -2342.64052652
  atomic energy  EATOM  =     13192.55497936
  Solvation  Ediel_sol  =         0.00000000
  ---------------------------------------------------
  free energy    TOTEN  =     -1244.77282182 eV

  energy without entropy =    -1244.53908997  energy(sigma->0) =    -1244.65595589


--------------------------------------------------------------------------------------------------------




--------------------------------------- Iteration      1(  11)  ---------------------------------------


    POTLOK:  cpu time      3.0431: real time      3.0443
    SETDIJ:  cpu time      2.5084: real time      2.5094
    EDDIAG:  cpu time     85.8993: real time     85.9443
     EDDAV:  cpu time    406.6539: real time    406.8792
       DOS:  cpu time      0.0062: real time      0.0062
    CHARGE:  cpu time     96.7163: real time     96.7682
    MIXING:  cpu time      0.0824: real time      0.0824
    --------------------------------------------
      LOOP:  cpu time    594.9096: real time    595.2338

 eigenvalue-minimisations  :  2832
 total energy-change (2. order) :-0.2874575E-03  (-0.1754598E-04)
 number of electron     511.9999999 magnetization 
 augmentation part      -28.5300255 magnetization 

 Broyden mixing:
  rms(total) = 0.36647E-03    rms(broyden)= 0.11011E-01
  rms(prec ) = 0.52683E-03
  weight for this iteration     100.00
  WARNING: grid for Broyden might be to small

 eigenvalues of (default mixing * dielectric matrix)
  average eigenvalue GAMMA=   1.7493
  6.2783  2.6201  2.6201  1.4082  1.0425  0.8601  0.7381  0.6678  0.6288  0.6288

 Free energy of the ion-electron system (eV)
  ---------------------------------------------------
  alpha Z        PSCENC =       115.86085667
  Ewald energy   TEWEN  =    130414.66939728
  -Hartree energ DENC   =   -143278.93046198
  -exchange      EXHF   =         0.00000000
  -V(xc)+E(xc)   XCENC  =      -621.07113337
  PAW double counting   =     80701.58039933   -79426.09811064
  entropy T*S    EENTRO =        -0.23373822
  eigenvalues    EBANDS =     -2343.10529772
  atomic energy  EATOM  =     13192.55497936
  Solvation  Ediel_sol  =         0.00000000
  ---------------------------------------------------
  free energy    TOTEN  =     -1244.77310927 eV

  energy without entropy =    -1244.53937106  energy(sigma->0) =    -1244.65624017


--------------------------------------------------------------------------------------------------------




--------------------------------------- Iteration      1(  12)  ---------------------------------------


    POTLOK:  cpu time      3.0495: real time      3.0509
    SETDIJ:  cpu time      2.5068: real time      2.5079
    EDDIAG:  cpu time     85.8646: real time     85.9112
     EDDAV:  cpu time    399.1470: real time    399.3669
       DOS:  cpu time      0.0047: real time      0.0047
    CHARGE:  cpu time     97.4618: real time     97.5143
    MIXING:  cpu time      0.0818: real time      0.0818
    --------------------------------------------
      LOOP:  cpu time    588.1163: real time    588.4377

 eigenvalue-minimisations  :  2744
 total energy-change (2. order) :-0.2594887E-03  (-0.2688227E-04)
 number of electron     511.9999999 magnetization 
 augmentation part      -28.5301154 magnetization 

 Broyden mixing:
  rms(total) = 0.20702E-03    rms(broyden)= 0.80841E-02
  rms(prec ) = 0.30761E-03
  weight for this iteration     100.00
  WARNING: grid for Broyden might be to small

 eigenvalues of (default mixing * dielectric matrix)
  average eigenvalue GAMMA=   1.7543
  6.9226  2.7047  2.7047  1.5504  1.0502  0.9115  0.8046  0.7284  0.6608  0.6261
  0.6337

 Free energy of the ion-electron system (eV)
  ---------------------------------------------------
  alpha Z        PSCENC =       115.86085667
  Ewald energy   TEWEN  =    130414.66939728
  -Hartree energ DENC   =   -143278.04230904
  -exchange      EXHF   =         0.00000000
  -V(xc)+E(xc)   XCENC  =      -621.07950802
  PAW double counting   =     80698.85528092   -79423.37381730
  entropy T*S    EENTRO =        -0.23374774
  eigenvalues    EBANDS =     -2343.98450089
  atomic energy  EATOM  =     13192.55497936
  Solvation  Ediel_sol  =         0.00000000
  ---------------------------------------------------
  free energy    TOTEN  =     -1244.77336876 eV

  energy without entropy =    -1244.53962102  energy(sigma->0) =    -1244.65649489


--------------------------------------------------------------------------------------------------------




--------------------------------------- Iteration      1(  13)  ---------------------------------------


    POTLOK:  cpu time      3.0469: real time      3.0485
    SETDIJ:  cpu time      2.5048: real time      2.5062
    EDDIAG:  cpu time     85.7609: real time     85.8084
     EDDAV:  cpu time    401.5583: real time    401.7789
       DOS:  cpu time      0.0048: real time      0.0048
    CHARGE:  cpu time     97.4620: real time     97.5168
    MIXING:  cpu time      0.0823: real time      0.0827
    --------------------------------------------
      LOOP:  cpu time    590.4202: real time    590.7466

 eigenvalue-minimisations  :  2776
 total energy-change (2. order) :-0.1173202E-03  (-0.8386498E-05)
 number of electron     511.9999999 magnetization 
 augmentation part      -28.5301775 magnetization 

 Broyden mixing:
  rms(total) = 0.20419E-03    rms(broyden)= 0.22239E-02
  rms(prec ) = 0.24138E-03
  weight for this iteration     100.00
  WARNING: grid for Broyden might be to small

 eigenvalues of (default mixing * dielectric matrix)
  average eigenvalue GAMMA=   1.7385
  7.0988  2.7751  2.7751  1.6858  1.2558  1.0189  0.8157  0.8157  0.7078  0.6286
  0.6286  0.6561

 Free energy of the ion-electron system (eV)
  ---------------------------------------------------
  alpha Z        PSCENC =       115.86085667
  Ewald energy   TEWEN  =    130414.66939728
  -Hartree energ DENC   =   -143277.55022521
  -exchange      EXHF   =         0.00000000
  -V(xc)+E(xc)   XCENC  =      -621.08488372
  PAW double counting   =     80696.61287657   -79421.13151996
  entropy T*S    EENTRO =        -0.23376580
  eigenvalues    EBANDS =     -2344.47120130
  atomic energy  EATOM  =     13192.55497936
  Solvation  Ediel_sol  =         0.00000000
  ---------------------------------------------------
  free energy    TOTEN  =     -1244.77348608 eV

  energy without entropy =    -1244.53972029  energy(sigma->0) =    -1244.65660319


--------------------------------------------------------------------------------------------------------




--------------------------------------- Iteration      1(  14)  ---------------------------------------


    POTLOK:  cpu time      3.0453: real time      3.0537
    SETDIJ:  cpu time      2.5110: real time      2.5130
    EDDIAG:  cpu time     85.8097: real time     85.8541
     EDDAV:  cpu time    383.3578: real time    383.5608
       DOS:  cpu time      0.0068: real time      0.0069
    CHARGE:  cpu time     97.2084: real time     97.2618
    MIXING:  cpu time      0.0805: real time      0.0805
    --------------------------------------------
      LOOP:  cpu time    572.0194: real time    572.3305

 eigenvalue-minimisations  :  2560
 total energy-change (2. order) :-0.3264494E-04  (-0.2404180E-05)
 number of electron     511.9999999 magnetization 
 augmentation part      -28.5301709 magnetization 

 Broyden mixing:
  rms(total) = 0.96822E-04    rms(broyden)= 0.22786E-02
  rms(prec ) = 0.12078E-03
  weight for this iteration     100.00
  WARNING: grid for Broyden might be to small

 eigenvalues of (default mixing * dielectric matrix)
  average eigenvalue GAMMA=   1.7509
  7.1912  2.9639  2.7409  2.1375  1.5060  1.0429  0.9420  0.8694  0.7762  0.6908
  0.6252  0.6274  0.6489

 Free energy of the ion-electron system (eV)
  ---------------------------------------------------
  alpha Z        PSCENC =       115.86085667
  Ewald energy   TEWEN  =    130414.66939728
  -Hartree energ DENC   =   -143277.25257024
  -exchange      EXHF   =         0.00000000
  -V(xc)+E(xc)   XCENC  =      -621.08144853
  PAW double counting   =     80699.25739806   -79423.77594363
  entropy T*S    EENTRO =        -0.23377671
  eigenvalues    EBANDS =     -2344.77241100
  atomic energy  EATOM  =     13192.55497936
  Solvation  Ediel_sol  =         0.00000000
  ---------------------------------------------------
  free energy    TOTEN  =     -1244.77351873 eV

  energy without entropy =    -1244.53974201  energy(sigma->0) =    -1244.65663037


--------------------------------------------------------------------------------------------------------




--------------------------------------- Iteration      1(  15)  ---------------------------------------


    POTLOK:  cpu time      3.0435: real time      3.0451
    SETDIJ:  cpu time      2.5073: real time      2.5089
    EDDIAG:  cpu time     85.8358: real time     85.8846
     EDDAV:  cpu time    333.3647: real time    333.5510
       DOS:  cpu time      0.0052: real time      0.0052
    CHARGE:  cpu time     97.1099: real time     97.1619
    MIXING:  cpu time      0.0804: real time      0.0804
    --------------------------------------------
      LOOP:  cpu time    521.9468: real time    522.2371

 eigenvalue-minimisations  :  1968
 total energy-change (2. order) :-0.6812406E-05  (-0.3818880E-06)
 number of electron     511.9999999 magnetization 
 augmentation part      -28.5301841 magnetization 

 Broyden mixing:
  rms(total) = 0.60496E-04    rms(broyden)= 0.13933E-02
  rms(prec ) = 0.78839E-04
  weight for this iteration     100.00
  WARNING: grid for Broyden might be to small

 eigenvalues of (default mixing * dielectric matrix)
  average eigenvalue GAMMA=   1.7697
  7.2404  3.4401  2.6327  2.6327  1.5850  1.1883  1.0194  0.8475  0.8475  0.7602
  0.6831  0.6249  0.6288  0.6446

 Free energy of the ion-electron system (eV)
  ---------------------------------------------------
  alpha Z        PSCENC =       115.86085667
  Ewald energy   TEWEN  =    130414.66939728
  -Hartree energ DENC   =   -143277.13348454
  -exchange      EXHF   =         0.00000000
  -V(xc)+E(xc)   XCENC  =      -621.08268036
  PAW double counting   =     80699.15081452   -79423.66940468
  entropy T*S    EENTRO =        -0.23377450
  eigenvalues    EBANDS =     -2344.89022929
  atomic energy  EATOM  =     13192.55497936
  Solvation  Ediel_sol  =         0.00000000
  ---------------------------------------------------
  free energy    TOTEN  =     -1244.77352554 eV

  energy without entropy =    -1244.53975104  energy(sigma->0) =    -1244.65663829


--------------------------------------------------------------------------------------------------------




--------------------------------------- Iteration      1(  16)  ---------------------------------------


    POTLOK:  cpu time      3.0459: real time      3.0473
    SETDIJ:  cpu time      2.5097: real time      2.5108
    EDDIAG:  cpu time     85.8297: real time     85.8791
     EDDAV:  cpu time    321.3487: real time    321.5321
       DOS:  cpu time      0.0041: real time      0.0041
    CHARGE:  cpu time     96.7997: real time     96.8505
    MIXING:  cpu time      0.0856: real time      0.0861
    --------------------------------------------
      LOOP:  cpu time    509.6233: real time    509.9100

 eigenvalue-minimisations  :  1824
 total energy-change (2. order) : 0.2015542E-05  (-0.1863537E-06)
 number of electron     511.9999999 magnetization 
 augmentation part      -28.5301985 magnetization 

 Broyden mixing:
  rms(total) = 0.36929E-04    rms(broyden)= 0.96255E-03
  rms(prec ) = 0.47192E-04
  weight for this iteration     100.00
  WARNING: grid for Broyden might be to small

 eigenvalues of (default mixing * dielectric matrix)
  average eigenvalue GAMMA=   1.8531
  7.3253  4.7446  2.7428  2.7428  1.8206  1.4767  1.0155  0.9891  0.8421  0.7945
  0.7299  0.6734  0.6266  0.6313  0.6403

 Free energy of the ion-electron system (eV)
  ---------------------------------------------------
  alpha Z        PSCENC =       115.86085667
  Ewald energy   TEWEN  =    130414.66939728
  -Hartree energ DENC   =   -143277.07396552
  -exchange      EXHF   =         0.00000000
  -V(xc)+E(xc)   XCENC  =      -621.08389757
  PAW double counting   =     80698.96957189   -79423.48812787
  entropy T*S    EENTRO =        -0.23377402
  eigenvalues    EBANDS =     -2344.94856375
  atomic energy  EATOM  =     13192.55497936
  Solvation  Ediel_sol  =         0.00000000
  ---------------------------------------------------
  free energy    TOTEN  =     -1244.77352352 eV

  energy without entropy =    -1244.53974950  energy(sigma->0) =    -1244.65663651


--------------------------------------------------------------------------------------------------------




--------------------------------------- Iteration      1(  17)  ---------------------------------------


    POTLOK:  cpu time      3.0554: real time      3.0569
    SETDIJ:  cpu time      2.5069: real time      2.5080
    EDDIAG:  cpu time     85.7906: real time     85.8398
     EDDAV:  cpu time    320.0461: real time    320.2231
       DOS:  cpu time      0.0040: real time      0.0041
    CHARGE:  cpu time     97.1199: real time     97.1730
    MIXING:  cpu time      0.0813: real time      0.0813
    --------------------------------------------
      LOOP:  cpu time    508.6043: real time    508.8862

 eigenvalue-minimisations  :  1808
 total energy-change (2. order) : 0.3999085E-05  (-0.1267723E-06)
 number of electron     511.9999999 magnetization 
 augmentation part      -28.5301952 magnetization 

 Broyden mixing:
  rms(total) = 0.35684E-04    rms(broyden)= 0.36796E-03
  rms(prec ) = 0.39957E-04
  weight for this iteration     100.00
  WARNING: grid for Broyden might be to small

 eigenvalues of (default mixing * dielectric matrix)
  average eigenvalue GAMMA=   2.0031
  7.8887  6.6125  2.9020  2.7939  2.2555  1.5502  1.1853  1.0265  0.9044  0.8266
  0.8266  0.7133  0.6678  0.6258  0.6301  0.6399

 Free energy of the ion-electron system (eV)
  ---------------------------------------------------
  alpha Z        PSCENC =       115.86085667
  Ewald energy   TEWEN  =    130414.66939728
  -Hartree energ DENC   =   -143277.05929542
  -exchange      EXHF   =         0.00000000
  -V(xc)+E(xc)   XCENC  =      -621.08334796
  PAW double counting   =     80699.37820346   -79423.89667871
  entropy T*S    EENTRO =        -0.23377489
  eigenvalues    EBANDS =     -2344.96385932
  atomic energy  EATOM  =     13192.55497936
  Solvation  Ediel_sol  =         0.00000000
  ---------------------------------------------------
  free energy    TOTEN  =     -1244.77351953 eV

  energy without entropy =    -1244.53974464  energy(sigma->0) =    -1244.65663208


--------------------------------------------------------------------------------------------------------




--------------------------------------- Iteration      1(  18)  ---------------------------------------


    POTLOK:  cpu time      3.0469: real time      3.0483
    SETDIJ:  cpu time      2.5150: real time      2.5173
    EDDIAG:  cpu time     85.9178: real time     85.9651
     EDDAV:  cpu time    311.3587: real time    311.5267
       DOS:  cpu time      0.0049: real time      0.0049
    CHARGE:  cpu time     97.3727: real time     97.4257
[...]
   0.200E-07 0.169E-07 -.500E+03   -.136E-13 -.226E-13 0.499E+03   0.808E-20 0.705E-20 0.528E+00   0.275E-14 0.367E-14 0.158E-04
   0.268E-07 0.265E-07 -.408E+03   0.250E-13 0.341E-14 0.408E+03   -.149E-21 0.694E-21 -.122E+00   0.159E-14 0.546E-15 0.113E-04
   0.216E-07 0.195E-07 -.500E+03   0.443E-13 0.102E-13 0.499E+03   -.288E-20 -.201E-20 0.528E+00   -.709E-14 -.547E-14 0.158E-04
   -.542E-07 -.519E-07 -.585E+03   0.341E-13 0.568E-14 0.586E+03   -.116E-20 0.104E-20 -.331E+00   0.460E-15 0.196E-14 0.211E-04
   0.906E-07 0.921E-07 -.662E+03   0.193E-13 0.569E-14 0.664E+03   -.605E-19 -.220E-19 -.152E+01   -.248E-14 -.380E-14 0.252E-04
   -.504E-07 -.512E-07 -.585E+03   0.136E-13 0.455E-14 0.586E+03   0.938E-21 -.857E-22 -.331E+00   0.216E-15 0.191E-14 0.211E-04
   0.915E-07 0.920E-07 -.662E+03   0.182E-13 -.459E-14 0.664E+03   -.107E-20 0.926E-19 -.152E+01   -.561E-14 0.480E-14 0.252E-04
 -----------------------------------------------------------------------------------------------
   0.791E-06 0.739E-06 -.234E-02   0.272E-12 -.182E-13 0.637E-11   -.268E-19 -.463E-19 -.178E-14   -.173E-13 -.222E-13 0.568E-11


 POSITION                                       TOTAL-FORCE (eV/Angst)
 -----------------------------------------------------------------------------------
      0.00000      0.00000     10.00000         0.000000      0.000000      0.091902
      1.35750      1.35750     11.35750        -0.000000     -0.000000     -0.037586
      2.71500      2.71500     10.00000        -0.000000     -0.000000      0.091902
      4.07250      4.07250     11.35750        -0.000000     -0.000000     -0.037586
      0.00000      2.71500     12.71500         0.000000     -0.000000      0.044771
      1.35750      4.07250     14.07250         0.000000      0.000000     -0.086318
      2.71500      0.00000     12.71500        -0.000000     -0.000000      0.044771
      4.07250      1.35750     14.07250        -0.000000     -0.000000     -0.086318
      0.00000      5.43000     10.00000        -0.000000     -0.000000      0.091902
      1.35750      6.78750     11.35750         0.000000     -0.000000     -0.037586
      2.71500      8.14500     10.00000        -0.000000     -0.000000      0.091902
      4.07250      9.50250     11.35750         0.000000     -0.000000     -0.037586
      0.00000      8.14500     12.71500        -0.000000     -0.000000      0.044771
      1.35750      9.50250     14.07250        -0.000000      0.000000     -0.086318
      2.71500      5.43000     12.71500        -0.000000     -0.000000      0.044771
      4.07250      6.78750     14.07250        -0.000000     -0.000000     -0.086318
      5.43000      0.00000     10.00000        -0.000000      0.000000      0.091902
      6.78750      1.35750     11.35750         0.000000      0.000000     -0.037586
      8.14500      2.71500     10.00000         0.000000      0.000000      0.091902
      9.50250      4.07250     11.35750         0.000000      0.000000     -0.037586
      5.43000      2.71500     12.71500         0.000000      0.000000      0.044771
      6.78750      4.07250     14.07250        -0.000000     -0.000000     -0.086318
      8.14500      0.00000     12.71500        -0.000000     -0.000000      0.044771
      9.50250      1.35750     14.07250        -0.000000      0.000000     -0.086318
      5.43000      5.43000     10.00000         0.000000     -0.000000      0.091902
      6.78750      6.78750     11.35750         0.000000     -0.000000     -0.037586
      8.14500      8.14500     10.00000         0.000000      0.000000      0.091902
      9.50250      9.50250     11.35750         0.000000      0.000000     -0.037586
      5.43000      8.14500     12.71500         0.000000      0.000000      0.044771
      6.78750      9.50250     14.07250        -0.000000     -0.000000     -0.086318
      8.14500      5.43000     12.71500        -0.000000     -0.000000      0.044771
      9.50250      6.78750     14.07250         0.000000      0.000000     -0.086318
      0.00000      0.00000     15.43000        -0.000000      0.000000      0.001113
      1.35750      1.35750     16.78750        -0.000000     -0.000000     -0.008968
      2.71500      2.71500     15.43000         0.000000      0.000000      0.001113
      4.07250      4.07250     16.78750         0.000000      0.000000     -0.008968
      0.00000      2.71500     18.14500         0.000000     -0.000000      0.006358
      1.35750      4.07250     19.50250         0.000000      0.000000      0.001066
      2.71500      0.00000     18.14500         0.000000     -0.000000      0.006358
      4.07250      1.35750     19.50250        -0.000000     -0.000000      0.001066
      0.00000      5.43000     15.43000         0.000000     -0.000000      0.001113
      1.35750      6.78750     16.78750        -0.000000      0.000000     -0.008968
      2.71500      8.14500     15.43000         0.000000     -0.000000      0.001113
      4.07250      9.50250     16.78750         0.000000      0.000000     -0.008968
      0.00000      8.14500     18.14500        -0.000000     -0.000000      0.006358
      1.35750      9.50250     19.50250        -0.000000      0.000000      0.001066
      2.71500      5.43000     18.14500        -0.000000     -0.000000      0.006358
      4.07250      6.78750     19.50250        -0.000000      0.000000      0.001066
      5.43000      0.00000     15.43000        -0.000000      0.000000      0.001113
      6.78750      1.35750     16.78750         0.000000      0.000000     -0.008968
      8.14500      2.71500     15.43000        -0.000000     -0.000000      0.001113
      9.50250      4.07250     16.78750         0.000000     -0.000000     -0.008968
      5.43000      2.71500     18.14500         0.000000      0.000000      0.006358
      6.78750      4.07250     19.50250        -0.000000     -0.000000      0.001066
      8.14500      0.00000     18.14500         0.000000      0.000000      0.006358
      9.50250      1.35750     19.50250         0.000000     -0.000000      0.001066
      5.43000      5.43000     15.43000        -0.000000      0.000000      0.001113
      6.78750      6.78750     16.78750        -0.000000     -0.000000     -0.008968
      8.14500      8.14500     15.43000        -0.000000     -0.000000      0.001113
      9.50250      9.50250     16.78750         0.000000     -0.000000     -0.008968
      5.43000      8.14500     18.14500         0.000000      0.000000      0.006358
      6.78750      9.50250     19.50250         0.000000     -0.000000      0.001066
      8.14500      5.43000     18.14500        -0.000000      0.000000      0.006358
      9.50250      6.78750     19.50250         0.000000      0.000000      0.001066
      0.00000      0.00000     20.86000        -0.000000      0.000000     -0.001066
      1.35750      1.35750     22.21750        -0.000000      0.000000     -0.006358
      2.71500      2.71500     20.86000         0.000000      0.000000     -0.001066
      4.07250      4.07250     22.21750         0.000000     -0.000000     -0.006358
      0.00000      2.71500     23.57500        -0.000000     -0.000000      0.008968
      1.35750      4.07250     24.93250         0.000000     -0.000000     -0.001113
      2.71500      0.00000     23.57500        -0.000000      0.000000      0.008968
      4.07250      1.35750     24.93250         0.000000      0.000000     -0.001113
      0.00000      5.43000     20.86000        -0.000000      0.000000     -0.001066
      1.35750      6.78750     22.21750         0.000000      0.000000     -0.006358
      2.71500      8.14500     20.86000        -0.000000      0.000000     -0.001066
      4.07250      9.50250     22.21750        -0.000000      0.000000     -0.006358
      0.00000      8.14500     23.57500         0.000000      0.000000      0.008968
      1.35750      9.50250     24.93250         0.000000     -0.000000     -0.001113
      2.71500      5.43000     23.57500         0.000000      0.000000      0.008968
      4.07250      6.78750     24.93250         0.000000     -0.000000     -0.001113
      5.43000      0.00000     20.86000         0.000000      0.000000     -0.001066
      6.78750      1.35750     22.21750        -0.000000      0.000000     -0.006358
      8.14500      2.71500     20.86000         0.000000      0.000000     -0.001066
      9.50250      4.07250     22.21750         0.000000      0.000000     -0.006358
      5.43000      2.71500     23.57500         0.000000     -0.000000      0.008968
      6.78750      4.07250     24.93250        -0.000000      0.000000     -0.001113
      8.14500      0.00000     23.57500        -0.000000     -0.000000      0.008968
      9.50250      1.35750     24.93250         0.000000     -0.000000     -0.001113
      5.43000      5.43000     20.86000         0.000000     -0.000000     -0.001066
      6.78750      6.78750     22.21750        -0.000000     -0.000000     -0.006358
      8.14500      8.14500     20.86000        -0.000000     -0.000000     -0.001066
      9.50250      9.50250     22.21750        -0.000000     -0.000000     -0.006358
      5.43000      8.14500     23.57500         0.000000      0.000000      0.008968
      6.78750      9.50250     24.93250        -0.000000      0.000000     -0.001113
      8.14500      5.43000     23.57500        -0.000000     -0.000000      0.008968
      9.50250      6.78750     24.93250         0.000000     -0.000000     -0.001113
      0.00000      0.00000     26.29000         0.000000     -0.000000      0.086318
      1.35750      1.35750     27.64750         0.000000      0.000000     -0.044771
      2.71500      2.71500     26.29000        -0.000000     -0.000000      0.086318
      4.07250      4.07250     27.64750        -0.000000     -0.000000     -0.044771
      0.00000      2.71500     29.00500        -0.000000     -0.000000      0.037586
      1.35750      4.07250     30.36250        -0.000000     -0.000000     -0.091902
      2.71500      0.00000     29.00500        -0.000000     -0.000000      0.037586
      4.07250      1.35750     30.36250         0.000000     -0.000000     -0.091902
      0.00000      5.43000     26.29000        -0.000000      0.000000      0.086318
      1.35750      6.78750     27.64750         0.000000      0.000000     -0.044771
      2.71500      8.14500     26.29000         0.000000      0.000000      0.086318
      4.07250      9.50250     27.64750        -0.000000     -0.000000     -0.044771
      0.00000      8.14500     29.00500        -0.000000      0.000000      0.037586
      1.35750      9.50250     30.36250         0.000000     -0.000000     -0.091902
      2.71500      5.43000     29.00500        -0.000000      0.000000      0.037586
      4.07250      6.78750     30.36250        -0.000000      0.000000     -0.091902
      5.43000      0.00000     26.29000         0.000000      0.000000      0.086318
      6.78750      1.35750     27.64750         0.000000      0.000000     -0.044771
      8.14500      2.71500     26.29000        -0.000000     -0.000000      0.086318
      9.50250      4.07250     27.64750         0.000000      0.000000     -0.044771
      5.43000      2.71500     29.00500        -0.000000      0.000000      0.037586
      6.78750      4.07250     30.36250         0.000000      0.000000     -0.091902
      8.14500      0.00000     29.00500         0.000000     -0.000000      0.037586
      9.50250      1.35750     30.36250         0.000000     -0.000000     -0.091902
      5.43000      5.43000     26.29000        -0.000000      0.000000      0.086318
      6.78750      6.78750     27.64750         0.000000      0.000000     -0.044771
      8.14500      8.14500     26.29000         0.000000     -0.000000      0.086318
      9.50250      9.50250     27.64750        -0.000000     -0.000000     -0.044771
      5.43000      8.14500     29.00500         0.000000     -0.000000      0.037586
      6.78750      9.50250     30.36250         0.000000      0.000000     -0.091902
      8.14500      5.43000     29.00500        -0.000000      0.000000      0.037586
      9.50250      6.78750     30.36250         0.000000      0.000000     -0.091902
 -----------------------------------------------------------------------------------
    total drift:                                0.000001      0.000001     -0.002342


--------------------------------------------------------------------------------------------------------



  FREE ENERGIE OF THE ION-ELECTRON SYSTEM (eV)
  ---------------------------------------------------
  free  energy   TOTEN  =     -1244.77350838 eV

  energy  without entropy=    -1244.53973400  energy(sigma->0) =    -1244.65662119



--------------------------------------------------------------------------------------------------------


    POTLOK:  cpu time      5.5578: real time      5.5607


--------------------------------------------------------------------------------------------------------


     LOOP+:  cpu time  13177.0759: real time  13184.5394
    4ORBIT:  cpu time      0.0000: real time      0.0000



 total charge

# of ion       s       p       d       tot
------------------------------------------
    1        0.848   0.743   0.000   1.592
    2        0.750   0.951   0.000   1.701
    3        0.848   0.743   0.000   1.592
    4        0.750   0.951   0.000   1.701
    5        0.751   0.940   0.000   1.691
    6        0.748   0.956   0.000   1.704
    7        0.751   0.940   0.000   1.691
    8        0.748   0.956   0.000   1.704
    9        0.848   0.743   0.000   1.592
   10        0.750   0.951   0.000   1.701
   11        0.848   0.743   0.000   1.592
   12        0.750   0.951   0.000   1.701
   13        0.751   0.940   0.000   1.691
   14        0.748   0.956   0.000   1.704
   15        0.751   0.940   0.000   1.691
   16        0.748   0.956   0.000   1.704
   17        0.848   0.743   0.000   1.592
   18        0.750   0.951   0.000   1.701
   19        0.848   0.743   0.000   1.592
   20        0.750   0.951   0.000   1.701
   21        0.751   0.940   0.000   1.691
   22        0.748   0.956   0.000   1.704
   23        0.751   0.940   0.000   1.691
   24        0.748   0.956   0.000   1.704
   25        0.848   0.743   0.000   1.592
   26        0.750   0.951   0.000   1.701
   27        0.848   0.743   0.000   1.592
   28        0.750   0.951   0.000   1.701
   29        0.751   0.940   0.000   1.691
   30        0.748   0.956   0.000   1.704
   31        0.751   0.940   0.000   1.691
   32        0.748   0.956   0.000   1.704
   33        0.746   0.959   0.000   1.705
   34        0.745   0.962   0.000   1.706
   35        0.746   0.959   0.000   1.705
   36        0.745   0.962   0.000   1.706
   37        0.744   0.962   0.000   1.706
   38        0.744   0.963   0.000   1.707
   39        0.744   0.962   0.000   1.706
   40        0.744   0.963   0.000   1.707
   41        0.746   0.959   0.000   1.705
   42        0.745   0.962   0.000   1.706
   43        0.746   0.959   0.000   1.705
   44        0.745   0.962   0.000   1.706
   45        0.744   0.962   0.000   1.706
   46        0.744   0.963   0.000   1.707
   47        0.744   0.962   0.000   1.706
   48        0.744   0.963   0.000   1.707
   49        0.746   0.959   0.000   1.705
   50        0.745   0.962   0.000   1.706
   51        0.746   0.959   0.000   1.705
   52        0.745   0.962   0.000   1.706
   53        0.744   0.962   0.000   1.706
   54        0.744   0.963   0.000   1.707
   55        0.744   0.962   0.000   1.706
   56        0.744   0.963   0.000   1.707
   57        0.746   0.959   0.000   1.705
   58        0.745   0.962   0.000   1.706
   59        0.746   0.959   0.000   1.705
   60        0.745   0.962   0.000   1.706
   61        0.744   0.962   0.000   1.706
   62        0.744   0.963   0.000   1.707
   63        0.744   0.962   0.000   1.706
   64        0.744   0.963   0.000   1.707
   65        0.744   0.963   0.000   1.707
   66        0.744   0.962   0.000   1.706
   67        0.744   0.963   0.000   1.707
   68        0.744   0.962   0.000   1.706
   69        0.745   0.962   0.000   1.706
   70        0.746   0.959   0.000   1.705
   71        0.745   0.962   0.000   1.706
   72        0.746   0.959   0.000   1.705
   73        0.744   0.963   0.000   1.707
   74        0.744   0.962   0.000   1.706
   75        0.744   0.963   0.000   1.707
   76        0.744   0.962   0.000   1.706
   77        0.745   0.962   0.000   1.706
   78        0.746   0.959   0.000   1.705
   79        0.745   0.962   0.000   1.706
   80        0.746   0.959   0.000   1.705
   81        0.744   0.963   0.000   1.707
   82        0.744   0.962   0.000   1.706
   83        0.744   0.963   0.000   1.707
   84        0.744   0.962   0.000   1.706
   85        0.745   0.962   0.000   1.706
   86        0.746   0.959   0.000   1.705
   87        0.745   0.962   0.000   1.706
   88        0.746   0.959   0.000   1.705
   89        0.744   0.963   0.000   1.707
   90        0.744   0.962   0.000   1.706
   91        0.744   0.963   0.000   1.707
   92        0.744   0.962   0.000   1.706
   93        0.745   0.962   0.000   1.706
   94        0.746   0.959   0.000   1.705
   95        0.745   0.962   0.000   1.706
   96        0.746   0.959   0.000   1.705
   97        0.748   0.956   0.000   1.704
   98        0.751   0.940   0.000   1.691
   99        0.748   0.956   0.000   1.704
  100        0.751   0.940   0.000   1.691
  101        0.750   0.951   0.000   1.701
  102        0.848   0.743   0.000   1.592
  103        0.750   0.951   0.000   1.701
  104        0.848   0.743   0.000   1.592
  105        0.748   0.956   0.000   1.704
  106        0.751   0.940   0.000   1.691
  107        0.748   0.956   0.000   1.704
  108        0.751   0.940   0.000   1.691
  109        0.750   0.951   0.000   1.701
  110        0.848   0.743   0.000   1.592
  111        0.750   0.951   0.000   1.701
  112        0.848   0.743   0.000   1.592
  113        0.748   0.956   0.000   1.704
  114        0.751   0.940   0.000   1.691
  115        0.748   0.956   0.000   1.704
  116        0.751   0.940   0.000   1.691
  117        0.750   0.951   0.000   1.701
  118        0.848   0.743   0.000   1.592
  119        0.750   0.951   0.000   1.701
  120        0.848   0.743   0.000   1.592
  121        0.748   0.956   0.000   1.704
  122        0.751   0.940   0.000   1.691
  123        0.748   0.956   0.000   1.704
  124        0.751   0.940   0.000   1.691
  125        0.750   0.951   0.000   1.701
  126        0.848   0.743   0.000   1.592
  127        0.750   0.951   0.000   1.701
  128        0.848   0.743   0.000   1.592
--------------------------------------------------
tot         97.215 118.969   0.000 216.183


 total amount of memory used by VASP MPI-rank0   484715. kBytes
=======================================================================

   base                                    :      30000. kBytes
   nonl-proj                               :      64816. kBytes
   fftplans                                :     154585. kBytes
   grid                                    :      89122. kBytes
   one-center                              :         24. kBytes
   wavefun                                 :     146168. kBytes

  
  
 General timing and accounting informations for this job:
 ========================================================
  
                  Total CPU time used (sec):    13326.458
                            User time (sec):    12217.810
                          System time (sec):     1108.648
                         Elapsed time (sec):    13334.029
  
                   Maximum memory used (kb):     2073120.
                   Average memory used (kb):          N/A
  
                          Minor page faults:     27284420
                          Major page faults:         1198
                 Voluntary context switches:         1923
