 vasp.6.5.0 16Dec24 (build Jan 20 2025 08:32:48) complex                         
 executed on        HPECrayEX_GCC date 2025.07.28  18:04:22
 running  128 mpi-ranks, with    1 threads/rank, on    1 nodes
 distrk:  each k-point on  128 cores,    1 groups
 distr:  one band on NCORE=  16 cores,    8 groups


--------------------------------------------------------------------------------------------------------


 INCAR:
   SYSTEM = a-Si SPC
   NCORE = 16
   ISTART = 1
   ICHARG = 1
   ISPIN = 1
   ISYM = 1
   EDIFF = 1E-6
   NELM = 150
   EDIFFG = -0.01
   NSW = 0
   ISIF = 2
   IBRION = -1
   PREC = Accurate
   ENCUT = 1200
   KSPACING = 0.23
   KGAMMA = .TRUE.
   METAGGA = SCAN
   LASPH = .TRUE.
   LDIAG = .FALSE.
   LMIXTAU = .TRUE.
   ADDGRID = .TRUE.
   ALGO = Normal
   ISMEAR = 0
   SIGMA = 0.1
   LORBIT = 11
   NEDOS = 2000
   LWAVE = .FALSE.
   LCHARG = .FALSE.

 POTCAR:    PAW_PBE H 15Jun2001                   
 POTCAR:    PAW_PBE Si 05Jan2001                  
 POTCAR:    PAW_PBE H 15Jun2001                   
   SHA256 =  030f79b5d3ab3cf0e668861823c8fb652ff669f3e15e46930bd03bfd63a607b6 H/POTCAR              
   COPYR  = (c) Copyright 15Jun2001 Georg Kresse                                                    
   COPYR  = This file is part of the software VASP. Any use, copying, and all other rights are regul
   COPYR  = If you do not have a valid VASP license, you may not use, copy or distribute this file. 
   VRHFIN =H: ultrasoft test                                                                        
   LEXCH  = PE                                                                                      
   EATOM  =    12.4884 eV,    0.9179 Ry                                                             
                                                                                                    
   TITEL  = PAW_PBE H 15Jun2001                                                                     
   LULTRA =        F    use ultrasoft PP ?                                                          
   IUNSCR =        0    unscreen: 0-lin 1-nonlin 2-no                                               
   RPACOR =    0.000    partial core radius                                                         
   POMASS =    1.000; ZVAL   =    1.000    mass and valenz                                          
   RCORE  =    1.100    outmost cutoff radius                                                       
   RWIGS  =    0.700; RWIGS  =    0.370    wigner-seitz radius (au A)                               
   ENMAX  =  250.000; ENMIN  =  200.000 eV                                                          
   RCLOC  =    0.701    cutoff for local pot                                                        
   LCOR   =        T    correct aug charges                                                         
   LPAW   =        T    paw PP                                                                      
   EAUG   =  400.000                                                                                
   RMAX   =    1.123    core radius for proj-oper                                                   
   RAUG   =    1.200    factor for augmentation sphere                                              
   RDEP   =    1.112    radius for radial grids                                                     
   RDEPT  =    0.926    core radius for aug-charge                                                  
                                                                                                    
   Atomic configuration                                                                             
    2 entries                                                                                       
     n  l   j            E        occ.                                                              
     1  0  0.50        -6.4927   1.0000                                                             
     2  1  0.50        -3.4015   0.0000                                                             
   Description                                                                                      
     l       E           TYP  RCUT    TYP  RCUT                                                     
     0     -6.4927494     23  1.100                                                                 
     0      6.8029130     23  1.100                                                                 
     1     -4.0817478     23  1.100                                                                 
  local pseudopotential read in
  atomic valenz-charges read in
  non local Contribution for L=           0  read in
    real space projection operators read in
  non local Contribution for L=           0  read in
    real space projection operators read in
  non local Contribution for L=           1  read in
    real space projection operators read in
    PAW grid and wavefunctions read in

   number of l-projection  operators is LMAX  =           3
   number of lm-projection operators is LMMAX =           5

 POTCAR:    PAW_PBE Si 05Jan2001                  
   SHA256 =  79d9987ad8750f624c4d6acb2a16d13abf6a777132adc04dc6c8399be72b42bb Si/POTCAR             
   COPYR  = (c) Copyright 05Jan2001 Georg Kresse                                                    
   COPYR  = This file is part of the software VASP. Any use, copying, and all other rights are regul
   COPYR  = If you do not have a valid VASP license, you may not use, copy or distribute this file. 
   VRHFIN =Si: s2p2                                                                                 
   LEXCH  = PE                                                                                      
   EATOM  =   103.0669 eV,    7.5752 Ry                                                             
                                                                                                    
   TITEL  = PAW_PBE Si 05Jan2001                                                                    
   LULTRA =        F    use ultrasoft PP ?                                                          
   IUNSCR =        1    unscreen: 0-lin 1-nonlin 2-no                                               
   RPACOR =    1.500    partial core radius                                                         
   POMASS =   28.085; ZVAL   =    4.000    mass and valenz                                          
   RCORE  =    1.900    outmost cutoff radius                                                       
   RWIGS  =    2.480; RWIGS  =    1.312    wigner-seitz radius (au A)                               
   ENMAX  =  245.345; ENMIN  =  184.009 eV                                                          
   ICORE  =        2    local potential                                                             
   LCOR   =        T    correct aug charges                                                         
   LPAW   =        T    paw PP                                                                      
   EAUG   =  322.069                                                                                
   DEXC   =    0.000                                                                                
   RMAX   =    1.950    core radius for proj-oper                                                   
   RAUG   =    1.300    factor for augmentation sphere                                              
   RDEP   =    1.993    radius for radial grids                                                     
   RDEPT  =    1.837    core radius for aug-charge                                                  
                                                                                                    
   Atomic configuration                                                                             
    6 entries                                                                                       
     n  l   j            E        occ.                                                              
     1  0  0.50     -1785.8828   2.0000                                                             
     2  0  0.50      -139.4969   2.0000                                                             
     2  1  1.50       -95.5546   6.0000                                                             
     3  0  0.50       -10.8127   2.0000                                                             
     3  1  0.50        -4.0811   2.0000                                                             
     3  2  1.50        -4.0817   0.0000                                                             
   Description                                                                                      
     l       E           TYP  RCUT    TYP  RCUT                                                     
     0    -10.8127223     23  1.900                                                                 
     0     -7.6451159     23  1.900                                                                 
     1     -4.0811372     23  1.900                                                                 
     1      2.4879257     23  1.900                                                                 
     2     -4.0817478      7  1.900                                                                 
  local pseudopotential read in
  partial core-charges read in
  partial kinetic energy density read in
  atomic valenz-charges read in
  non local Contribution for L=           0  read in
    real space projection operators read in
  non local Contribution for L=           0  read in
    real space projection operators read in
  non local Contribution for L=           1  read in
    real space projection operators read in
  non local Contribution for L=           1  read in
    real space projection operators read in
    PAW grid and wavefunctions read in

   number of l-projection  operators is LMAX  =           4
   number of lm-projection operators is LMMAX =           8

 -----------------------------------------------------------------------------
|                                                                             |
|               ----> ADVICE to this user running VASP <----                  |
|                                                                             |
|     You have a (more or less) 'large supercell' and for larger cells it     |
|     might be more efficient to use real-space projection operators.         |
|     Therefore, try LREAL= Auto in the INCAR file.                           |
|     Mind: For very accurate calculation, you might also keep the            |
|     reciprocal projection scheme (i.e. LREAL=.FALSE.).                      |
|                                                                             |
 -----------------------------------------------------------------------------

 -----------------------------------------------------------------------------
|                                                                             |
|               ----> ADVICE to this user running VASP <----                  |
|                                                                             |
|     You enforced a specific xc type in the INCAR file but a different       |
|     type was found in the POTCAR file.                                      |
|     I HOPE YOU KNOW WHAT YOU ARE DOING!                                     |
|                                                                             |
 -----------------------------------------------------------------------------

  PAW_PBE H 15Jun2001                   :
 energy of atom  1       EATOM=  -12.4884
 kinetic energy error for atom=    0.0000 (will be added to EATOM!!)
  PAW_PBE Si 05Jan2001                  :
 energy of atom  2       EATOM= -103.0669
 kinetic energy error for atom=    0.0001 (will be added to EATOM!!)


 POSCAR:  H Si
  positions in cartesian coordinates
  No initial velocities read in


 exchange-correlation table for SCAN
   RHO(1)=    0.500       N(1)  =     2000
   RHO(2)=  100.500       N(2)  =     4000



--------------------------------------------------------------------------------------------------------


 ion  position               nearest neighbor table
   1  0.216  0.555  0.619-  52 1.48
   2  0.610  0.475  0.405-  46 2.43  39 2.44  57 2.47
   3  0.341  0.355  0.446-  54 2.33  24 2.38  14 2.41  57 2.41
   4  0.425  0.174  0.500-  14 2.29  53 2.29  29 2.29  54 2.47
   5  0.325  0.749  0.408-  58 2.30  11 2.35  10 2.38
   6  0.261  0.019  0.564-  62 2.35  12 2.37   9 2.49  53 2.51
   7  0.964  0.236  0.433-  42 2.34  27 2.35  15 2.42  63 2.47
   8  0.214  0.134  0.454-  54 2.37   9 2.37  63 2.37  12 2.42
   9  0.238  0.975  0.471-  58 2.32   8 2.37  60 2.40   6 2.49  62 2.70
  10  0.357  0.614  0.457-  38 2.34   5 2.38  25 2.41  57 2.47
  11  0.169  0.770  0.428-  19 2.32   5 2.35  55 2.41  60 2.41
  12  0.153  0.135  0.543-   6 2.37  48 2.38   8 2.42  31 2.42
  13  0.662  0.752  0.582-  20 2.35  23 2.36  28 2.38
  14  0.387  0.315  0.534-   4 2.29  44 2.30  16 2.34   3 2.41
  15  0.869  0.346  0.386-  33 2.39  39 2.41   7 2.42
  16  0.490  0.439  0.537-  47 2.29  56 2.32  14 2.34  57 2.45
  17  0.072  0.623  0.521-  59 2.36  25 2.39  51 2.39  55 2.40  19 2.84
  18  0.580  0.101  0.583-  50 2.33  34 2.35  53 2.41
  19  0.109  0.625  0.412-  51 2.32  11 2.32  25 2.63  17 2.84
  20  0.597  0.687  0.506-  13 2.35  38 2.36  46 2.38  28 2.40
  21  0.394  0.805  0.562-  62 2.29  38 2.31  41 2.31  58 2.59
  22  0.855  0.572  0.591-  59 2.30  23 2.34  61 2.35
  23  0.805  0.705  0.547-  22 2.34  13 2.36  35 2.41  26 2.51
  24  0.193  0.400  0.476-  25 2.33  44 2.38   3 2.38  27 2.39
  25  0.211  0.558  0.488-  24 2.33  17 2.39  10 2.41  52 2.51  19 2.63
  26  0.823  0.698  0.450-  51 2.37  35 2.40  46 2.45  23 2.51
  27  0.033  0.359  0.478-  33 2.34   7 2.35  40 2.36  24 2.39
  28  0.622  0.851  0.511-  41 2.29  37 2.31  13 2.38  20 2.40
  29  0.507  0.216  0.427-   4 2.29  32 2.35  54 2.39
  30  0.867  0.314  0.601-  49 2.31  40 2.31  61 2.32
  31  0.019  0.056  0.508-  42 2.36  43 2.37  12 2.42  63 2.43  60 3.09
  32  0.663  0.202  0.450-  29 2.35  50 2.36  39 2.38  45 2.43
  33  0.923  0.461  0.446-  51 2.31  27 2.34  36 2.36  15 2.39
  34  0.730  0.040  0.582-  18 2.35  49 2.40  37 2.42  50 3.12
  35  0.858  0.836  0.498-  43 2.35  37 2.37  26 2.40  23 2.41
  36  0.776  0.457  0.485-  61 2.31  39 2.35  33 2.36  46 2.40
  37  0.744  0.953  0.501-  28 2.31  45 2.37  35 2.37  34 2.42
  38  0.442  0.664  0.530-  21 2.31  56 2.31  10 2.34  20 2.36
  39  0.716  0.350  0.425-  36 2.35  32 2.38  15 2.41   2 2.44
  40  0.010  0.359  0.570-  30 2.31  27 2.36  48 2.37  59 2.43
  41  0.478  0.914  0.516-  28 2.29  58 2.30  53 2.31  21 2.31
  42  0.883  0.137  0.489-  49 2.33   7 2.34  31 2.36  45 2.36
  43  0.009  0.893  0.501-  55 2.34  35 2.35  60 2.36  31 2.37
  44  0.243  0.360  0.562-  48 2.29  14 2.30  52 2.35  24 2.38
  45  0.765  0.071  0.438-  42 2.36  37 2.37  32 2.43
  46  0.694  0.590  0.455-  20 2.38  36 2.40   2 2.43  26 2.45
  47  0.625  0.379  0.568-  16 2.29  61 2.31  50 2.33
  48  0.134  0.265  0.598-  44 2.29  40 2.37  12 2.38
  49  0.801  0.186  0.563-  30 2.31  42 2.33  50 2.34  34 2.40
  50  0.649  0.227  0.542-  47 2.33  18 2.33  49 2.34  32 2.36  34 3.12
  51  0.964  0.615  0.450-  33 2.31  19 2.32  26 2.37  17 2.39
  52  0.274  0.516  0.577-   1 1.48  56 2.33  44 2.35  25 2.51
  53  0.431  0.050  0.555-   4 2.29  41 2.31  18 2.41   6 2.51
  54  0.345  0.204  0.416-   3 2.33   8 2.37  29 2.39   4 2.47
  55  0.120  0.781  0.519-  62 2.34  43 2.34  17 2.40  11 2.41  60 3.13
  56  0.429  0.550  0.592-  38 2.31  16 2.32  52 2.33
  57  0.455  0.476  0.445-   3 2.41  16 2.45   2 2.47  10 2.47
  58  0.352  0.863  0.469-   5 2.30  41 2.30   9 2.32  21 2.59  62 2.65
  59  0.006  0.524  0.585-  22 2.30  17 2.36  40 2.43
  60  0.102  0.922  0.426-  43 2.36   9 2.40  11 2.41  63 2.66  31 3.09  55 3.13
  61  0.774  0.435  0.575-  47 2.31  36 2.31  30 2.32  22 2.35
  62  0.247  0.859  0.554-  21 2.29  55 2.34   6 2.35  58 2.65   9 2.70
  63  0.066  0.102  0.421-   8 2.37  31 2.43   7 2.47  60 2.66

  LATTYP: Found a simple tetragonal cell.
 ALAT       =    14.5237936979
 C/A-ratio  =     1.7515810214
  
  Lattice vectors:
  
 A1 = (  14.5237936979,   0.0000000000,   0.0000000000)
 A2 = (   0.0000000000,  14.5237936979,   0.0000000000)
 A3 = (   0.0000000000,   0.0000000000,  25.4396014000)


Analysis of symmetry for initial positions (statically):
=====================================================================
 Subroutine PRICEL returns:
 Original cell was already a primitive cell.
 

 Routine SETGRP: Setting up the symmetry group for a 
 simple tetragonal supercell.


 Subroutine GETGRP returns: Found  1 space group operations
 (whereof  1 operations were pure point group operations)
 out of a pool of 16 trial point group operations.


The static configuration has the point symmetry C_1 .


Analysis of symmetry for dynamics (positions and initial velocities):
=====================================================================
 Subroutine PRICEL returns:
 Original cell was already a primitive cell.
 

 Routine SETGRP: Setting up the symmetry group for a 
 simple tetragonal supercell.


 Subroutine GETGRP returns: Found  1 space group operations
 (whereof  1 operations were pure point group operations)
 out of a pool of 16 trial point group operations.


The dynamic configuration has the point symmetry C_1 .


 Subroutine INISYM returns: Found  1 space group operations
 (whereof  1 operations are pure point group operations),
 and found     1 'primitive' translations


----------------------------------------------------------------------------------------

                                     Primitive cell                                     

  volume of cell :    5366.2444

  direct lattice vectors                    reciprocal lattice vectors
    14.523793698  0.000000000  0.000000000     0.068852534  0.000000000  0.000000000
     0.000000000 14.523793698  0.000000000     0.000000000  0.068852534  0.000000000
     0.000000000  0.000000000 25.439601400     0.000000000  0.000000000  0.039308792

  length of vectors
    14.523793698 14.523793698 25.439601400     0.068852534  0.068852534  0.039308792

  position of ions in fractional coordinates (direct lattice)
     0.215715513  0.554857835  0.619054687
     0.609997915  0.474893611  0.405170478
     0.341378242  0.355092944  0.446218511
     0.424882908  0.174331813  0.499837212
     0.324925912  0.749226140  0.407886219
     0.261468414  0.019068366  0.564342515
     0.963526084  0.235614108  0.432877495
     0.214279490  0.133509423  0.454279846
     0.237762694  0.974967096  0.470749734
     0.357476021  0.613517942  0.456734137
     0.168756064  0.770177762  0.428469063
     0.152920495  0.134960926  0.542825467
     0.662220888  0.751855083  0.581971425
     0.387394457  0.315051397  0.534351281
     0.868520491  0.346105758  0.386446654
     0.489893699  0.438994738  0.536680535
     0.071539928  0.623346994  0.521408183
     0.580138753  0.101424222  0.583239881
     0.108766670  0.624806835  0.411673600
     0.597303581  0.687487930  0.505836692
     0.394488293  0.805284955  0.562068156
     0.855441524  0.571806656  0.590662729
     0.805469057  0.704695357  0.547424947
     0.192548068  0.400016835  0.476234740
     0.210831180  0.558178315  0.488098580
     0.823347493  0.697790983  0.449505712
     0.033473456  0.358658268  0.477973734
     0.622252139  0.850749123  0.510749484
     0.507337408  0.216282971  0.426719886
     0.867214269  0.313771938  0.601318247
     0.018992241  0.055635848  0.508473281
     0.663140087  0.201760294  0.450386286
     0.923252211  0.461110876  0.445636392
     0.729873962  0.039790376  0.581575064
     0.857624985  0.835645135  0.497675986
     0.775943467  0.456581627  0.484919455
     0.743626040  0.952590636  0.501062818
     0.442203969  0.664447038  0.529606433
     0.716365339  0.349781421  0.424640847
     0.009546849  0.358745340  0.569700243
     0.477795232  0.914185474  0.515752132
     0.882754993  0.137424409  0.489286068
     0.008566830  0.893077092  0.500601042
     0.243209428  0.359707843  0.561994357
     0.764867639  0.070959953  0.438006520
     0.694207409  0.590001329  0.454813068
     0.625271866  0.378620737  0.567731172
     0.133505579  0.265401433  0.598136199
     0.800838015  0.185606604  0.563193997
     0.649315096  0.226681865  0.541766182
     0.964108201  0.614771998  0.450201577
     0.274386315  0.516094288  0.576699789
     0.430596766  0.049552831  0.555001034
     0.344743255  0.203650094  0.415652065
     0.120200393  0.780988103  0.518863918
     0.428765112  0.549683867  0.592246354
     0.455174070  0.476011368  0.445016436
     0.352102401  0.863232494  0.468717432
     0.006173818  0.523766459  0.584681637
     0.102010253  0.922345315  0.426432834
     0.773671790  0.435252902  0.575088036
     0.246810805  0.859315931  0.553731932
     0.065641075  0.101527674  0.420614808

  ion indices of the primitive-cell ions
   primitive index   ion index
                 1           1
                 2           2
                 3           3
                 4           4
                 5           5
                 6           6
                 7           7
                 8           8
                 9           9
                10          10
                11          11
                12          12
                13          13
                14          14
                15          15
                16          16
                17          17
                18          18
                19          19
                20          20
                21          21
                22          22
                23          23
                24          24
                25          25
                26          26
                27          27
                28          28
                29          29
                30          30
                31          31
                32          32
                33          33
                34          34
                35          35
                36          36
                37          37
                38          38
                39          39
                40          40
                41          41
                42          42
                43          43
                44          44
                45          45
                46          46
                47          47
                48          48
                49          49
                50          50
                51          51
                52          52
                53          53
                54          54
                55          55
                56          56
                57          57
                58          58
                59          59
                60          60
                61          61
                62          62
                63          63

----------------------------------------------------------------------------------------


 -----------------------------------------------------------------------------
|                                                                             |
|           W    W    AA    RRRRR   N    N  II  N    N   GGGG   !!!           |
|           W    W   A  A   R    R  NN   N  II  NN   N  G    G  !!!           |
|           W    W  A    A  R    R  N N  N  II  N N  N  G       !!!           |
|           W WW W  AAAAAA  RRRRR   N  N N  II  N  N N  G  GGG   !            |
|           WW  WW  A    A  R   R   N   NN  II  N   NN  G    G                |
|           W    W  A    A  R    R  N    N  II  N    N   GGGG   !!!           |
|                                                                             |
|     The requested file  could not be found or opened for reading            |
|     k-point information. Automatic k-point generation is used as a          |
|     fallback, which may lead to unwanted results.                           |
|                                                                             |
 -----------------------------------------------------------------------------



Automatic generation of k-mesh.
 Grid dimensions derived from KSPACING:
 generate k-points for:    2    2    2

 Generating k-lattice:

  Cartesian coordinates                     Fractional coordinates (reciprocal lattice)
     0.034426267  0.000000000  0.000000000     0.500000000  0.000000000  0.000000000
     0.000000000  0.034426267  0.000000000     0.000000000  0.500000000  0.000000000
     0.000000000  0.000000000  0.019654396     0.000000000  0.000000000  0.500000000

  Length of vectors
     0.034426267  0.034426267  0.019654396

  Shift w.r.t. Gamma in fractional coordinates (k-lattice)
     0.000000000  0.000000000  0.000000000

 
 Subroutine IBZKPT returns following result:
 ===========================================
 
 Found      8 irreducible k-points:
 
 Following reciprocal coordinates:
            Coordinates               Weight
  0.000000  0.000000  0.000000      1.000000
  0.500000  0.000000  0.000000      1.000000
  0.000000  0.500000  0.000000      1.000000
  0.500000  0.500000  0.000000      1.000000
  0.000000  0.000000  0.500000      1.000000
  0.500000  0.000000  0.500000      1.000000
  0.000000  0.500000  0.500000      1.000000
  0.500000  0.500000  0.500000      1.000000
 
 Following cartesian coordinates:
            Coordinates               Weight
  0.000000  0.000000  0.000000      1.000000
  0.034426  0.000000  0.000000      1.000000
  0.000000  0.034426  0.000000      1.000000
  0.034426  0.034426  0.000000      1.000000
  0.000000  0.000000  0.019654      1.000000
  0.034426  0.000000  0.019654      1.000000
  0.000000  0.034426  0.019654      1.000000
  0.034426  0.034426  0.019654      1.000000
 


--------------------------------------------------------------------------------------------------------




 Dimension of arrays:
   k-points           NKPTS =      8   k-points in BZ     NKDIM =      8   number of bands    NBANDS=    160
   number of dos      NEDOS =   2000   number of ions     NIONS =     63
   non local maximal  LDIM  =      4   non local SUM 2l+1 LMDIM =      8
   total plane-waves  NPLWV = ******
   max r-space proj   IRMAX =      1   max aug-charges    IRDMAX= 405316
   dimension x,y,z NGX =   168 NGY =  168 NGZ =  288
   dimension x,y,z NGXF=   336 NGYF=  336 NGZF=  576
   support grid    NGXF=   672 NGYF=  672 NGZF= 1152
   ions per type =               1  62
   NGX,Y,Z   is equivalent  to a cutoff of  19.23, 19.23, 18.82 a.u.
   NGXF,Y,Z  is equivalent  to a cutoff of  38.46, 38.46, 37.64 a.u.

 SYSTEM =  a-Si SPC                                
 POSCAR =   H Si                                   

 Startparameter for this run:
   NWRITE =      2    write-flag & timer
   PREC   = accura    normal or accurate (medium, high low for compatibility)
   ISTART =      1    job   : 0-new  1-cont  2-samecut
   ICHARG =      1    charge: 1-file 2-atom 10-const
   ISPIN  =      1    spin polarized calculation?
   LNONCOLLINEAR =      F non collinear calculations
   LSORBIT =      F    spin-orbit coupling
   INIWAV =      1    electr: 0-lowe 1-rand  2-diag
   LASPH  =      T    aspherical Exc in radial PAW
 Electronic Relaxation 1
   ENCUT  = 1200.0 eV  88.20 Ry    9.39 a.u.  41.02 41.02 71.86*2*pi/ulx,y,z
   ENINI  = 1200.0     initial cutoff
   ENAUG  =  400.0 eV  augmentation charge cutoff
   NELM   =    150;   NELMIN=  2; NELMDL=  0     # of ELM steps 
   EDIFF  = 0.1E-05   stopping-criterion for ELM
   LREAL  =      F    real-space projection
   NLSPLINE    = F    spline interpolate recip. space projectors
   LCOMPAT=      F    compatible to vasp.4.4
   GGA_COMPAT  = T    GGA compatible to vasp.4.4-vasp.4.6
   LMAXPAW     = -100 max onsite density
   LMAXMIX     =    2 max onsite mixed and CHGCAR
   VOSKOWN=      0    Vosko Wilk Nusair interpolation
   ROPT   =    0.00000   0.00000
 Ionic relaxation
   EDIFFG = -.1E-01   stopping-criterion for IOM
   NSW    =      0    number of steps for IOM
   NBLOCK =      1;   KBLOCK =      1    inner block; outer block 
   IBRION =     -1    ionic relax: 0-MD 1-quasi-New 2-CG
   NFREE  =      0    steps in history (QN), initial steepest desc. (CG)
   ISIF   =      2    stress and relaxation
   IWAVPR =     10    prediction:  0-non 1-charg 2-wave 3-comb
   ISYM   =      1    0-nonsym 1-usesym 2-fastsym
   LCORR  =      T    Harris-Foulkes like correction to forces

   POTIM  = 0.5000    time-step for ionic-motion
   TEIN   =    0.0    initial temperature
   TEBEG  =    0.0;   TEEND  =   0.0 temperature during run
   SMASS  =  -3.00    Nose mass-parameter (am)
   estimated Nose-frequenzy (Omega)   =  0.10E-29 period in steps = 0.13E+47 mass=  -0.482E-26a.u.
   SCALEE = 1.0000    scale energy and forces
   NPACO  =    256;   APACO  = 10.0  distance and # of slots for P.C.
   PSTRESS=    0.0 pullay stress

  Mass of Ions in am
   POMASS =   1.00 28.09
  Ionic Valenz
   ZVAL   =   1.00  4.00
  Atomic Wigner-Seitz radii
   RWIGS  =  -1.00 -1.00
  virtual crystal weights 
   VCA    =   1.00  1.00
   NELECT =     249.0000    total number of electrons
   NUPDOWN=      -1.0000    fix difference up-down

 DOS related values:
   EMIN   =  10.00;   EMAX   =-10.00  energy-range for DOS
   EFERMI =   0.00;   METHOD = LEGACY      
   ISMEAR =     0;   SIGMA  =   0.10  broadening in eV -4-tet -1-fermi 0-gaus
   EFERMI_NEDOS =   21; number of points for ismear=-14 and -15

 Electronic relaxation 2 (details)
   IALGO  =     38    algorithm
   LDIAG  =      F    sub-space diagonalisation (order eigenvalues)
   LSUBROT=      F    optimize rotation matrix (better conditioning)
   TURBO    =      0    0=normal 1=particle mesh
   IRESTART =      0    0=no restart 2=restart with 2 vectors
   NREBOOT  =      0    no. of reboots
   NMIN     =      0    reboot dimension
   EREF     =   0.00    reference energy to select bands
   IMIX   =      4    mixing-type and parameters
     AMIX     =   0.40;   BMIX     =  1.00
     AMIX_MAG =   1.60;   BMIX_MAG =  1.00
     AMIN     =   0.10
     WC   =   100.;   INIMIX=   1;  MIXPRE=   1;  MAXMIX= -45

 Intra band minimization:
   WEIMIN = 0.0000     energy-eigenvalue tresh-hold
   EBREAK =  0.16E-08  absolut break condition
   DEPER  =   0.30     relativ break condition  

   TIME   =   0.40     timestep for ELM

  volume/ion in A,a.u.               =      85.18       574.81
  Fermi-wavevector in a.u.,A,eV,Ry     =   0.588281  1.111689  4.708622  0.346074
  Thomas-Fermi vector in A             =   1.635483

 Write flags
   LWAVE        =      F    write WAVECAR
   LDOWNSAMPLE  =      F    k-point downsampling of WAVECAR
   LCHARG       =      F    write CHGCAR
   LVTOT        =      F    write LOCPOT, total local potential
   LVHAR        =      F    write LOCPOT, Hartree potential only
   WRT_POTENTIAL= false  ! write potential to hdf5 file
   LELF         =      F    write electronic localiz. function (ELF)
   LORBIT       =     11    0 simple, 1 ext, 2 COOP (PROOUT), +10 PAW based schemes


 Python interface
   PLUGINS active      =      F    recompile with -DPLUGINS to activate

 Dipole corrections
   LMONO      =      F    monopole corrections only (constant potential shift)
   LDIPOL     =      F    correct potential (dipole corrections)
   IDIPOL     =      0    1-x, 2-y, 3-z, 4-all directions 
   EPSILON    =  1.0000000 bulk dielectric constant
   LVACPOTAV  =      F  vacuum potentials using an averaging scheme for the charge density
   VACPOTFLAT =  0.1000000 required flatness to determine vacuum potential

Coulomb truncation method
  LTRUNCATE          =      F  Coulomb kernel truncation to be used
  IDIMENSIONALITY    =      3  Dimensionality of cutoff (0 molecules / 2 surfaces)
  ISURFACE           =     -1  Direction of surface normal
  LCOARSEN           =      F  Coarsen the charge grid before padding, preferred


 Exchange correlation treatment:
   METAGGA = SCAN    functional components
   XC_C    = 1    coefficients multiplying the functional components
   LIBXC   =     F    Libxc                    
   VOSKOWN =     0    Vosko Wilk Nusair interpolation
   LHFCALC =     F    Hartree Fock is set to
   LHFONE  =     F    Hartree Fock one center treatment
   AEXX    =    0.0000 exact exchange contribution

 Parameters of functionals:
   SCAN:
     P1 =  0.000000E+00
     P2 =  0.000000E+00
     P3 =  0.000000E+00

 Accuracy and mixing parameters for tau-dependent meta-GGA functionals:
   LMAXTAU = 6
   LMIXTAU = T

 Van der Waals corrections
   IVDW    =     0    specifies the selected vdW correction

 Linear response parameters
   LEPSILON=     F    determine dielectric tensor
   LRPA    =     F    only Hartree local field effects (RPA)
   LNABLA  =     F    use nabla operator in PAW spheres
   LVEL    =     F    velocity operator in full k-point grid
   CSHIFT  =0.1000    complex shift for real part using Kramers Kronig
   OMEGAMAX=  -1.0    maximum frequency
   DEG_THRESHOLD= 0.2000000E-02 threshold for treating states as degnerate
   RTIME   =   -0.100 relaxation time in fs
  (WPLASMAI=    0.000 imaginary part of plasma frequency in eV, 0.658/RTIME)
   DFIELD  = 0.0000000 0.0000000 0.0000000 field for delta impulse in time

  Optional k-point grid parameters
   LKPOINTS_OPT  =     F    use optional k-point grid
   KPOINTS_OPT_MODE=     1    mode for optional k-point grid

 Orbital magnetization related:
   ORBITALMAG=     F  switch on orbital magnetization
   LCHIMAG   =     F  perturbation theory with respect to B field
   DQ        =  0.001000  dq finite difference perturbation B field
   LLRAUG    =     F  two centre corrections for induced B field
   LBONE     =     F  B-component reconstruction in AE one-centre
   LVGVCALC  =     T  calculate vGv susceptibility
   LVGVAPPL  =     F  apply vGv susceptibility instead of pGv for G=0

 Random number generation:
   RANDOM_GENERATOR = DEFAULT
   PCG_SEED         = not used


--------------------------------------------------------------------------------------------------------


 Static calculation
 charge density and potential will be updated during run
 non-spin polarized calculation
 Variant of blocked Davidson
 perform Loewdin sub-space diagonalisation
    ordering is kept fixed
    before iterative eigenvector-optimisation
 modified Broyden-mixing scheme, WC =      100.0
 initial mixing is a Kerker type mixing with AMIX =  0.4000 and BMIX =      1.0000
 Hartree-type preconditioning will be used
 using additional bands           35
 reciprocal scheme for non local part
 use partial core corrections
 calculate Harris-corrections to forces   (improved forces if not selfconsistent)
 use gradient corrections 
 use of overlap-Matrix (Vanderbilt PP)
 Gauss-broadening in eV      SIGMA  =   0.10


--------------------------------------------------------------------------------------------------------


  energy-cutoff  :     1200.00
  volume of cell :     5366.24
      direct lattice vectors                 reciprocal lattice vectors
    14.523793698  0.000000000  0.000000000     0.068852534  0.000000000  0.000000000
     0.000000000 14.523793698  0.000000000     0.000000000  0.068852534  0.000000000
     0.000000000  0.000000000 25.439601400     0.000000000  0.000000000  0.039308792

  length of vectors
    14.523793698 14.523793698 25.439601400     0.068852534  0.068852534  0.039308792



 old parameters found on file WAVECAR:
  energy-cutoff  :     1200.00
  volume of cell :     5366.24
      direct lattice vectors                 reciprocal lattice vectors
    14.523793698  0.000000000  0.000000000     0.068852534  0.000000000  0.000000000
     0.000000000 14.523793698  0.000000000     0.000000000  0.068852534  0.000000000
     0.000000000  0.000000000 25.439601400     0.000000000  0.000000000  0.039308792

  length of vectors


 k-points in units of 2pi/SCALE and weight: read from INCAR                         
   0.00000000  0.00000000  0.00000000       0.125
   0.03442627  0.00000000  0.00000000       0.125
   0.00000000  0.03442627  0.00000000       0.125
   0.03442627  0.03442627  0.00000000       0.125
   0.00000000  0.00000000  0.01965440       0.125
   0.03442627  0.00000000  0.01965440       0.125
   0.00000000  0.03442627  0.01965440       0.125
   0.03442627  0.03442627  0.01965440       0.125

 k-points in reciprocal lattice and weights: read from INCAR                         
   0.00000000  0.00000000  0.00000000       0.125
   0.50000000  0.00000000  0.00000000       0.125
   0.00000000  0.50000000  0.00000000       0.125
   0.50000000  0.50000000  0.00000000       0.125
   0.00000000  0.00000000  0.50000000       0.125
   0.50000000  0.00000000  0.50000000       0.125
   0.00000000  0.50000000  0.50000000       0.125
   0.50000000  0.50000000  0.50000000       0.125

 position of ions in fractional coordinates (direct lattice) 
   0.21571551  0.55485783  0.61905469
   0.60999791  0.47489361  0.40517048
   0.34137824  0.35509294  0.44621851
   0.42488291  0.17433181  0.49983721
   0.32492591  0.74922614  0.40788622
   0.26146841  0.01906837  0.56434252
   0.96352608  0.23561411  0.43287749
   0.21427949  0.13350942  0.45427985
   0.23776269  0.97496710  0.47074973
   0.35747602  0.61351794  0.45673414
   0.16875606  0.77017776  0.42846906
   0.15292049  0.13496093  0.54282547
   0.66222089  0.75185508  0.58197142
   0.38739446  0.31505140  0.53435128
   0.86852049  0.34610576  0.38644665
   0.48989370  0.43899474  0.53668054
   0.07153993  0.62334699  0.52140818
   0.58013875  0.10142422  0.58323988
   0.10876667  0.62480683  0.41167360
   0.59730358  0.68748793  0.50583669
   0.39448829  0.80528496  0.56206816
   0.85544152  0.57180666  0.59066273
   0.80546906  0.70469536  0.54742495
   0.19254807  0.40001683  0.47623474
   0.21083118  0.55817832  0.48809858
   0.82334749  0.69779098  0.44950571
   0.03347346  0.35865827  0.47797373
   0.62225214  0.85074912  0.51074948
   0.50733741  0.21628297  0.42671989
   0.86721427  0.31377194  0.60131825
   0.01899224  0.05563585  0.50847328
   0.66314009  0.20176029  0.45038629
   0.92325221  0.46111088  0.44563639
   0.72987396  0.03979038  0.58157506
   0.85762498  0.83564514  0.49767599
   0.77594347  0.45658163  0.48491945
   0.74362604  0.95259064  0.50106282
   0.44220397  0.66444704  0.52960643
   0.71636534  0.34978142  0.42464085
   0.00954685  0.35874534  0.56970024
   0.47779523  0.91418547  0.51575213
   0.88275499  0.13742441  0.48928607
   0.00856683  0.89307709  0.50060104
   0.24320943  0.35970784  0.56199436
   0.76486764  0.07095995  0.43800652
   0.69420741  0.59000133  0.45481307
   0.62527187  0.37862074  0.56773117
   0.13350558  0.26540143  0.59813620
   0.80083802  0.18560660  0.56319400
   0.64931510  0.22668186  0.54176618
   0.96410820  0.61477200  0.45020158
   0.27438631  0.51609429  0.57669979
   0.43059677  0.04955283  0.55500103
   0.34474325  0.20365009  0.41565206
   0.12020039  0.78098810  0.51886392
   0.42876511  0.54968387  0.59224635
   0.45517407  0.47601137  0.44501644
   0.35210240  0.86323249  0.46871743
   0.00617382  0.52376646  0.58468164
   0.10201025  0.92234531  0.42643283
   0.77367179  0.43525290  0.57508804
   0.24681081  0.85931593  0.55373193
   0.06564107  0.10152767  0.42061481

 position of ions in cartesian coordinates  (Angst):
   3.13300761  8.05864072 15.74850448
   8.85948387  6.89725683 10.30737545
   4.95810716  5.15729666 11.35162105
   6.17091170  2.53195928 12.71565943
   4.71915692 10.88160589 10.37646282
   3.79751331  0.27694501 14.35664864
  13.99405407  3.42201070 11.01223092
   3.11215110  1.93906331 11.55669821
   3.45321632 14.16022097 11.97568558
   5.19190798  8.91060802 11.61913440
   2.45097826 11.18590292 10.90008218
   2.22098572  1.96014465 13.80926351
   9.61795956 10.91978811 14.80512107
   5.62643717  4.57574150 13.59368360
  12.61421243  5.02676863  9.83104884
   7.11511502  6.37586901 13.65293889
   1.03903116  9.05336314 13.26441633
   8.42581556  1.47306448 14.83739010
   1.57970467  9.07456557 10.47281230
   8.67511399  9.98493287 12.86828381
   5.72946659 11.69579256 14.29878986
  12.42425622  8.30480191 15.02622438
  11.69846641 10.23484999 13.92627246
   2.79652842  5.80976198 12.11522196
   3.06206856  8.10686670 12.41703333
  11.95812913 10.13457228 11.43524614
   0.48616157  5.20907869 12.15946128
   9.03746169 12.35610475 12.99326328
   7.36846385  3.14124925 10.85558382
  12.59524113  4.55715890 15.29729652
   0.27583939  0.80804358 12.93535760
   9.63130981  2.93032488 11.45764758
  13.40912465  6.69707923 11.33681219
  10.60053885  0.57790721 14.79503782
  12.45596835 12.13673755 12.66067871
  11.26964283  6.63129735 12.33615764
  10.80027119 13.83522988 12.74683836
   6.42247922  9.65029170 13.47297656
  10.40434239  5.08015320 10.80269389
   0.13865647  5.21034331 14.49294710
   6.93939938 13.27744122 13.12052865
  12.82095141  1.99592377 12.44724253
   0.12442287 12.97086744 12.73509098
   3.53232356  5.22432251 14.29691242
  11.10877979  1.03060772 11.14271128
  10.08252519  8.56905758 11.57026315
   9.08131958  5.49900947 14.44285472
   1.93900749  3.85463566 15.21634649
  11.63120612  2.69571202 14.32743080
   9.43051850  3.29228064 13.78231573
  14.00250862  8.92882167 11.45294868
   3.98513023  7.49564697 14.67101277
   6.25389860  0.71969509 14.11900508
   5.00697991  2.95777195 10.57402285
   1.74576571 11.34291009 13.19969126
   6.22729603  7.98349508 15.06651118
   6.61085429  6.91349090 11.32104074
   5.11386263 12.53741065 11.92398464
   0.08966726  7.60707599 14.87406779
   1.48157587 13.39595307 10.84828131
  11.23664947  6.32152335 14.63001040
   3.58462922 12.48052730 14.08671962
   0.95335743  1.47456699 10.70027305



--------------------------------------------------------------------------------------------------------


 k-point     1 :   0.0000 0.0000 0.0000  plane waves:  506503
 k-point     2 :   0.5000 0.0000 0.0000  plane waves:  506514
 k-point     3 :   0.0000 0.5000 0.0000  plane waves:  506514
 k-point     4 :   0.5000 0.5000 0.0000  plane waves:  506332
 k-point     5 :   0.0000 0.0000 0.5000  plane waves:  506224
 k-point     6 :   0.5000 0.0000 0.5000  plane waves:  506596
 k-point     7 :   0.0000 0.5000 0.5000  plane waves:  506596
 k-point     8 :   0.5000 0.5000 0.5000  plane waves:  506504

 maximum and minimum number of plane-waves per node :     31766    31554

 maximum number of plane-waves:    506596
 maximum index in each direction: 
   IXMAX=   41   IYMAX=   41   IZMAX=   71
   IXMIN=  -41   IYMIN=  -41   IZMIN=  -72


 parallel 3D FFT for wavefunctions:
    minimum data exchange during FFTs selected (reduces bandwidth)
 parallel 3D FFT for charge:
    minimum data exchange during FFTs selected (reduces bandwidth)


 total amount of memory used by VASP MPI-rank0   349210. kBytes
=======================================================================

   base                                    :      30000. kBytes
   nonl-proj                               :      64390. kBytes
   fftplans                                :      98000. kBytes
   grid                                    :      75605. kBytes
   one-center                              :         12. kBytes
   wavefun                                 :      81203. kBytes

     INWAV:  cpu time     24.6026: real time     24.6161
 Broyden mixing: mesh for mixing (old mesh)
   NGX = 83   NGY = 83   NGZ =143
  (NGX  =336   NGY  =336   NGZ  =576)
  gives a total of 985127 points

 initial charge density was supplied:
 number of electron     248.9999999 magnetization 
 keeping initial charge density in first step


--------------------------------------------------------------------------------------------------------


 Maximum index for augmentation-charges        10897 (set IRDMAX)


--------------------------------------------------------------------------------------------------------


 First call to EWALD:  gamma=   0.101
 Maximum number of real-space cells   3x   3x   2
 Maximum number of reciprocal cells   2x   2x   4

    FEWALD:  cpu time      0.0110: real time      0.0110


--------------------------------------- Ionic step        1  -------------------------------------------




--------------------------------------- Iteration      1(   1)  ---------------------------------------


    POTLOK:  cpu time      1.9146: real time      1.9153
    SETDIJ:  cpu time      1.3544: real time      1.3554
    EDDIAG:  cpu time     48.1177: real time     48.1430
     EDDAV:  cpu time    209.4706: real time    209.5880
       DOS:  cpu time      0.0102: real time      0.0106
    CHARGE:  cpu time     27.1795: real time     27.2034
    MIXING:  cpu time      0.0460: real time      0.0463
    --------------------------------------------
      LOOP:  cpu time    288.0929: real time    288.2620

 eigenvalue-minimisations  :  2560
 total energy-change (2. order) :-0.6237750E+03  (-0.7056470E+00)
 number of electron     248.9999999 magnetization 
 augmentation part      -14.1248707 magnetization 

 Broyden mixing:
  rms(total) = 0.94641E+00    rms(broyden)= 0.23642E+02
  rms(prec ) = 0.97688E+00
  weight for this iteration     100.00
  WARNING: grid for Broyden might be to small

 Free energy of the ion-electron system (eV)
  ---------------------------------------------------
  alpha Z        PSCENC =        24.32417353
  Ewald energy   TEWEN  =     28687.50798799
  -Hartree energ DENC   =    -34173.09708617
  -exchange      EXHF   =         0.00000000
  -V(xc)+E(xc)   XCENC  =      -305.98031917
  PAW double counting   =     22286.05031600   -21667.58870329
  entropy T*S    EENTRO =        -0.14933404
  eigenvalues    EBANDS =     -1877.47418866
  atomic energy  EATOM  =      6402.63218022
  Solvation  Ediel_sol  =         0.00000000
  ---------------------------------------------------
  free energy    TOTEN  =      -623.77497359 eV

  energy without entropy =     -623.62563955  energy(sigma->0) =     -623.70030657


--------------------------------------------------------------------------------------------------------




--------------------------------------- Iteration      1(   2)  ---------------------------------------


    POTLOK:  cpu time      1.8818: real time      1.9017
    SETDIJ:  cpu time      1.3078: real time      1.3084
    EDDIAG:  cpu time     48.2229: real time     48.2495
     EDDAV:  cpu time    212.1005: real time    212.2218
       DOS:  cpu time      0.0028: real time      0.0028
    CHARGE:  cpu time     27.1241: real time     27.1496
    MIXING:  cpu time      0.0389: real time      0.0391
    --------------------------------------------
      LOOP:  cpu time    290.6789: real time    290.8729

 eigenvalue-minimisations  :  2624
 total energy-change (2. order) : 0.4363994E+02  (-0.6585965E+00)
 number of electron     248.9999999 magnetization 
 augmentation part      -14.0678436 magnetization 

 Broyden mixing:
  rms(total) = 0.64742E+00    rms(broyden)= 0.13674E+02
  rms(prec ) = 0.66279E+00
  weight for this iteration     100.00
  WARNING: grid for Broyden might be to small

 eigenvalues of (default mixing * dielectric matrix)
  average eigenvalue GAMMA=   0.6337
  0.6337

 Free energy of the ion-electron system (eV)
  ---------------------------------------------------
  alpha Z        PSCENC =        24.32417353
  Ewald energy   TEWEN  =     28687.50798799
  -Hartree energ DENC   =    -34163.36133887
  -exchange      EXHF   =         0.00000000
  -V(xc)+E(xc)   XCENC  =      -299.26163925
  PAW double counting   =     26613.36262048   -25994.75521222
  entropy T*S    EENTRO =        -0.13978108
  eigenvalues    EBANDS =     -1850.44402368
  atomic energy  EATOM  =      6402.63218022
  Solvation  Ediel_sol  =         0.00000000
  ---------------------------------------------------
  free energy    TOTEN  =      -580.13503289 eV

  energy without entropy =     -579.99525181  energy(sigma->0) =     -580.06514235


--------------------------------------------------------------------------------------------------------




--------------------------------------- Iteration      1(   3)  ---------------------------------------


    POTLOK:  cpu time      1.8960: real time      1.8977
    SETDIJ:  cpu time      1.3079: real time      1.3161
    EDDIAG:  cpu time     48.2178: real time     48.2456
     EDDAV:  cpu time    209.4039: real time    209.5239
       DOS:  cpu time      0.0039: real time      0.0039
    CHARGE:  cpu time     27.1503: real time     27.1745
    MIXING:  cpu time      0.0386: real time      0.0386
    --------------------------------------------
      LOOP:  cpu time    288.0184: real time    288.2004

 eigenvalue-minimisations  :  2560
 total energy-change (2. order) :-0.2293006E+01  (-0.5646952E+00)
 number of electron     248.9999999 magnetization 
 augmentation part      -14.0192605 magnetization 

 Broyden mixing:
  rms(total) = 0.27264E+00    rms(broyden)= 0.19572E+02
  rms(prec ) = 0.33732E+00
  weight for this iteration     100.00
  WARNING: grid for Broyden might be to small

 eigenvalues of (default mixing * dielectric matrix)
  average eigenvalue GAMMA=   0.8517
  1.0751  0.6282

 Free energy of the ion-electron system (eV)
  ---------------------------------------------------
  alpha Z        PSCENC =        24.32417353
  Ewald energy   TEWEN  =     28687.50798799
  -Hartree energ DENC   =    -34164.29666011
  -exchange      EXHF   =         0.00000000
  -V(xc)+E(xc)   XCENC  =      -301.56572985
  PAW double counting   =     31669.25487728   -31050.74083872
  entropy T*S    EENTRO =        -0.14655642
  eigenvalues    EBANDS =     -1849.39747258
  atomic energy  EATOM  =      6402.63218022
  Solvation  Ediel_sol  =         0.00000000
  ---------------------------------------------------
  free energy    TOTEN  =      -582.42803867 eV

  energy without entropy =     -582.28148225  energy(sigma->0) =     -582.35476046


--------------------------------------------------------------------------------------------------------




--------------------------------------- Iteration      1(   4)  ---------------------------------------


    POTLOK:  cpu time      1.8817: real time      1.8986
    SETDIJ:  cpu time      1.3155: real time      1.3161
    EDDIAG:  cpu time     48.1889: real time     48.2147
     EDDAV:  cpu time    213.0938: real time    213.2143
       DOS:  cpu time      0.0035: real time      0.0035
    CHARGE:  cpu time     27.1314: real time     27.1557
    MIXING:  cpu time      0.0379: real time      0.0379
    --------------------------------------------
      LOOP:  cpu time    291.6527: real time    291.8407

 eigenvalue-minimisations  :  2640
 total energy-change (2. order) : 0.2713842E+00  (-0.5888869E-01)
 number of electron     248.9999999 magnetization 
 augmentation part      -14.0137539 magnetization 

 Broyden mixing:
  rms(total) = 0.47836E-01    rms(broyden)= 0.17851E+01
  rms(prec ) = 0.55468E-01
  weight for this iteration     100.00
  WARNING: grid for Broyden might be to small

 eigenvalues of (default mixing * dielectric matrix)
  average eigenvalue GAMMA=   1.2148
  2.2897  0.7339  0.6209

 Free energy of the ion-electron system (eV)
  ---------------------------------------------------
  alpha Z        PSCENC =        24.32417353
  Ewald energy   TEWEN  =     28687.50798799
  -Hartree energ DENC   =    -34165.01506780
  -exchange      EXHF   =         0.00000000
  -V(xc)+E(xc)   XCENC  =      -302.20785351
  PAW double counting   =     35802.45629400   -35183.97363145
  entropy T*S    EENTRO =        -0.14382373
  eigenvalues    EBANDS =     -1847.73691373
  atomic energy  EATOM  =      6402.63218022
  Solvation  Ediel_sol  =         0.00000000
  ---------------------------------------------------
  free energy    TOTEN  =      -582.15665447 eV

  energy without entropy =     -582.01283074  energy(sigma->0) =     -582.08474261


--------------------------------------------------------------------------------------------------------




--------------------------------------- Iteration      1(   5)  ---------------------------------------


    POTLOK:  cpu time      1.8783: real time      1.8954
    SETDIJ:  cpu time      1.3171: real time      1.3178
    EDDIAG:  cpu time     48.1254: real time     48.1546
     EDDAV:  cpu time    241.0575: real time    241.1999
       DOS:  cpu time      0.0034: real time      0.0034
    CHARGE:  cpu time     27.1476: real time     27.1750
    MIXING:  cpu time      0.0383: real time      0.0383
    --------------------------------------------
      LOOP:  cpu time    319.5676: real time    319.7844

 eigenvalue-minimisations  :  3264
 total energy-change (2. order) :-0.2645598E-01  (-0.5800742E-02)
 number of electron     248.9999999 magnetization 
 augmentation part      -14.0151205 magnetization 

 Broyden mixing:
  rms(total) = 0.29170E-01    rms(broyden)= 0.19469E+00
  rms(prec ) = 0.32342E-01
  weight for this iteration     100.00
  WARNING: grid for Broyden might be to small

 eigenvalues of (default mixing * dielectric matrix)
  average eigenvalue GAMMA=   1.1671
  2.5668  0.8771  0.6284  0.5960

 Free energy of the ion-electron system (eV)
  ---------------------------------------------------
  alpha Z        PSCENC =        24.32417353
  Ewald energy   TEWEN  =     28687.50798799
  -Hartree energ DENC   =    -34165.16284412
  -exchange      EXHF   =         0.00000000
  -V(xc)+E(xc)   XCENC  =      -303.01352289
  PAW double counting   =     35316.27479669   -34697.76607680
  entropy T*S    EENTRO =        -0.14547200
  eigenvalues    EBANDS =     -1846.83433306
  atomic energy  EATOM  =      6402.63218022
  Solvation  Ediel_sol  =         0.00000000
  ---------------------------------------------------
  free energy    TOTEN  =      -582.18311045 eV

  energy without entropy =     -582.03763845  energy(sigma->0) =     -582.11037445


--------------------------------------------------------------------------------------------------------




--------------------------------------- Iteration      1(   6)  ---------------------------------------


    POTLOK:  cpu time      1.8935: real time      1.8989
    SETDIJ:  cpu time      1.3166: real time      1.3174
    EDDIAG:  cpu time     48.1487: real time     48.1759
     EDDAV:  cpu time    224.4647: real time    224.5960
       DOS:  cpu time      0.0026: real time      0.0026
    CHARGE:  cpu time     27.1491: real time     27.1755
    MIXING:  cpu time      0.0397: real time      0.0397
    --------------------------------------------
      LOOP:  cpu time    303.0148: real time    303.2060

 eigenvalue-minimisations  :  2896
 total energy-change (2. order) :-0.3427169E-02  (-0.1196790E-02)
 number of electron     248.9999999 magnetization 
 augmentation part      -14.0148797 magnetization 

 Broyden mixing:
  rms(total) = 0.19274E-01    rms(broyden)= 0.16998E+00
  rms(prec ) = 0.20747E-01
  weight for this iteration     100.00
  WARNING: grid for Broyden might be to small

 eigenvalues of (default mixing * dielectric matrix)
  average eigenvalue GAMMA=   1.1203
  2.5635  1.0576  0.7403  0.6201  0.6201

 Free energy of the ion-electron system (eV)
  ---------------------------------------------------
  alpha Z        PSCENC =        24.32417353
  Ewald energy   TEWEN  =     28687.50798799
  -Hartree energ DENC   =    -34165.16371243
  -exchange      EXHF   =         0.00000000
  -V(xc)+E(xc)   XCENC  =      -303.14500030
  PAW double counting   =     35237.38049516   -34618.85932206
  entropy T*S    EENTRO =        -0.14465817
  eigenvalues    EBANDS =     -1846.71868156
  atomic energy  EATOM  =      6402.63218022
  Solvation  Ediel_sol  =         0.00000000
  ---------------------------------------------------
  free energy    TOTEN  =      -582.18653762 eV

  energy without entropy =     -582.04187945  energy(sigma->0) =     -582.11420854


--------------------------------------------------------------------------------------------------------




--------------------------------------- Iteration      1(   7)  ---------------------------------------


    POTLOK:  cpu time      1.8784: real time      1.8975
    SETDIJ:  cpu time      1.3102: real time      1.3109
    EDDIAG:  cpu time     48.1894: real time     48.2163
     EDDAV:  cpu time    216.4065: real time    216.5391
       DOS:  cpu time      0.0038: real time      0.0038
    CHARGE:  cpu time     27.1761: real time     27.2027
    MIXING:  cpu time      0.0394: real time      0.0394
    --------------------------------------------
      LOOP:  cpu time    295.0039: real time    295.2096

 eigenvalue-minimisations  :  2712
 total energy-change (2. order) :-0.1329814E-02  (-0.6665161E-03)
 number of electron     248.9999999 magnetization 
 augmentation part      -14.0134805 magnetization 

 Broyden mixing:
  rms(total) = 0.71113E-02    rms(broyden)= 0.63673E-01
  rms(prec ) = 0.84822E-02
  weight for this iteration     100.00
  WARNING: grid for Broyden might be to small

 eigenvalues of (default mixing * dielectric matrix)
  average eigenvalue GAMMA=   1.1105
  2.5316  1.4474  0.8312  0.6348  0.6348  0.5833

 Free energy of the ion-electron system (eV)
  ---------------------------------------------------
  alpha Z        PSCENC =        24.32417353
  Ewald energy   TEWEN  =     28687.50798799
  -Hartree energ DENC   =    -34165.18015993
  -exchange      EXHF   =         0.00000000
  -V(xc)+E(xc)   XCENC  =      -303.04216827
  PAW double counting   =     35249.30649243   -34630.77238139
  entropy T*S    EENTRO =        -0.14491387
  eigenvalues    EBANDS =     -1846.81907815
  atomic energy  EATOM  =      6402.63218022
  Solvation  Ediel_sol  =         0.00000000
  ---------------------------------------------------
  free energy    TOTEN  =      -582.18786743 eV

  energy without entropy =     -582.04295356  energy(sigma->0) =     -582.11541050


--------------------------------------------------------------------------------------------------------




--------------------------------------- Iteration      1(   8)  ---------------------------------------


    POTLOK:  cpu time      1.8838: real time      1.9028
    SETDIJ:  cpu time      1.3144: real time      1.3151
    EDDIAG:  cpu time     48.2027: real time     48.2310
     EDDAV:  cpu time    220.5322: real time    220.6596
       DOS:  cpu time      0.0039: real time      0.0039
    CHARGE:  cpu time     27.1514: real time     27.1776
    MIXING:  cpu time      0.0390: real time      0.0390
    --------------------------------------------
      LOOP:  cpu time    299.1274: real time    299.3290

 eigenvalue-minimisations  :  2800
 total energy-change (2. order) :-0.3054901E-03  (-0.1373894E-03)
 number of electron     248.9999999 magnetization 
 augmentation part      -14.0134478 magnetization 

 Broyden mixing:
  rms(total) = 0.28851E-02    rms(broyden)= 0.30352E-01
  rms(prec ) = 0.35593E-02
  weight for this iteration     100.00
  WARNING: grid for Broyden might be to small

 eigenvalues of (default mixing * dielectric matrix)
  average eigenvalue GAMMA=   1.1853
  2.3729  2.3729  0.9639  0.7751  0.6628  0.6241  0.5251

 Free energy of the ion-electron system (eV)
  ---------------------------------------------------
  alpha Z        PSCENC =        24.32417353
  Ewald energy   TEWEN  =     28687.50798799
  -Hartree energ DENC   =    -34164.96009307
  -exchange      EXHF   =         0.00000000
  -V(xc)+E(xc)   XCENC  =      -303.04075409
  PAW double counting   =     35269.45291777   -34650.91400302
  entropy T*S    EENTRO =        -0.14511864
  eigenvalues    EBANDS =     -1847.04546360
  atomic energy  EATOM  =      6402.63218022
  Solvation  Ediel_sol  =         0.00000000
  ---------------------------------------------------
  free energy    TOTEN  =      -582.18817292 eV

  energy without entropy =     -582.04305428  energy(sigma->0) =     -582.11561360


--------------------------------------------------------------------------------------------------------




--------------------------------------- Iteration      1(   9)  ---------------------------------------


    POTLOK:  cpu time      1.8808: real time      1.9045
    SETDIJ:  cpu time      1.3138: real time      1.3150
    EDDIAG:  cpu time     48.2110: real time     48.2370
     EDDAV:  cpu time    216.8751: real time    217.0064
       DOS:  cpu time      0.0031: real time      0.0031
    CHARGE:  cpu time     27.1288: real time     27.1542
    MIXING:  cpu time      0.0411: real time      0.0411
    --------------------------------------------
      LOOP:  cpu time    295.4540: real time    295.6614

 eigenvalue-minimisations  :  2720
 total energy-change (2. order) : 0.4044688E-04  (-0.6843400E-04)
 number of electron     248.9999999 magnetization 
 augmentation part      -14.0136177 magnetization 

 Broyden mixing:
  rms(total) = 0.17580E-02    rms(broyden)= 0.20054E-01
  rms(prec ) = 0.20818E-02
  weight for this iteration     100.00
  WARNING: grid for Broyden might be to small

 eigenvalues of (default mixing * dielectric matrix)
  average eigenvalue GAMMA=   1.2415
  2.8638  2.6888  1.0413  0.9151  0.6963  0.6282  0.5774  0.5211

 Free energy of the ion-electron system (eV)
  ---------------------------------------------------
  alpha Z        PSCENC =        24.32417353
  Ewald energy   TEWEN  =     28687.50798799
  -Hartree energ DENC   =    -34164.78744169
  -exchange      EXHF   =         0.00000000
  -V(xc)+E(xc)   XCENC  =      -303.06527653
  PAW double counting   =     35276.57622670   -34658.03680209
  entropy T*S    EENTRO =        -0.14490789
  eigenvalues    EBANDS =     -1847.19427272
  atomic energy  EATOM  =      6402.63218022
  Solvation  Ediel_sol  =         0.00000000
  ---------------------------------------------------
  free energy    TOTEN  =      -582.18813248 eV

  energy without entropy =     -582.04322459  energy(sigma->0) =     -582.11567853


--------------------------------------------------------------------------------------------------------




--------------------------------------- Iteration      1(  10)  ---------------------------------------


    POTLOK:  cpu time      1.8822: real time      1.9002
    SETDIJ:  cpu time      1.3137: real time      1.3144
    EDDIAG:  cpu time     48.2432: real time     48.2707
     EDDAV:  cpu time    221.9736: real time    222.1041
       DOS:  cpu time      0.0052: real time      0.0052
    CHARGE:  cpu time     27.1419: real time     27.1690
    MIXING:  cpu time      0.0417: real time      0.0417
    --------------------------------------------
      LOOP:  cpu time    300.6012: real time    300.8052

 eigenvalue-minimisations  :  2832
 total energy-change (2. order) :-0.5133498E-04  (-0.2610758E-04)
 number of electron     248.9999999 magnetization 
 augmentation part      -14.0136436 magnetization 

 Broyden mixing:
  rms(total) = 0.96555E-03    rms(broyden)= 0.14148E-01
  rms(prec ) = 0.11678E-02
  weight for this iteration     100.00
  WARNING: grid for Broyden might be to small

 eigenvalues of (default mixing * dielectric matrix)
  average eigenvalue GAMMA=   1.2822
  3.4790  2.6082  1.2998  0.8915  0.8744  0.6868  0.6245  0.5379  0.5379

 Free energy of the ion-electron system (eV)
  ---------------------------------------------------
  alpha Z        PSCENC =        24.32417353
  Ewald energy   TEWEN  =     28687.50798799
  -Hartree energ DENC   =    -34164.61600274
  -exchange      EXHF   =         0.00000000
  -V(xc)+E(xc)   XCENC  =      -303.07286688
  PAW double counting   =     35275.71632331   -34657.17621775
  entropy T*S    EENTRO =        -0.14499412
  eigenvalues    EBANDS =     -1847.35876737
  atomic energy  EATOM  =      6402.63218022
  Solvation  Ediel_sol  =         0.00000000
  ---------------------------------------------------
  free energy    TOTEN  =      -582.18818381 eV

  energy without entropy =     -582.04318970  energy(sigma->0) =     -582.11568675


--------------------------------------------------------------------------------------------------------




--------------------------------------- Iteration      1(  11)  ---------------------------------------


    POTLOK:  cpu time      1.8852: real time      1.9041
    SETDIJ:  cpu time      1.3161: real time      1.3168
    EDDIAG:  cpu time     48.2752: real time     48.3039
     EDDAV:  cpu time    215.3704: real time    215.4966
       DOS:  cpu time      0.0026: real time      0.0026
    CHARGE:  cpu time     27.1871: real time     27.2131
    MIXING:  cpu time      0.0421: real time      0.0421
    --------------------------------------------
      LOOP:  cpu time    294.0788: real time    294.2793

 eigenvalue-minimisations  :  2688
 total energy-change (2. order) :-0.9208735E-04  (-0.2534886E-04)
 number of electron     248.9999999 magnetization 
 augmentation part      -14.0136822 magnetization 

 Broyden mixing:
  rms(total) = 0.46332E-03    rms(broyden)= 0.11499E-01
  rms(prec ) = 0.66656E-03
  weight for this iteration     100.00
  WARNING: grid for Broyden might be to small

 eigenvalues of (default mixing * dielectric matrix)
  average eigenvalue GAMMA=   1.4586
  4.8094  2.5404  2.2583  1.0261  0.9088  0.7135  0.6341  0.5859  0.5443  0.5647

 Free energy of the ion-electron system (eV)
  ---------------------------------------------------
  alpha Z        PSCENC =        24.32417353
  Ewald energy   TEWEN  =     28687.50798799
  -Hartree energ DENC   =    -34164.39141433
  -exchange      EXHF   =         0.00000000
  -V(xc)+E(xc)   XCENC  =      -303.07927177
  PAW double counting   =     35271.85769497   -34653.31696873
  entropy T*S    EENTRO =        -0.14503748
  eigenvalues    EBANDS =     -1847.57762029
  atomic energy  EATOM  =      6402.63218022
  Solvation  Ediel_sol  =         0.00000000
  ---------------------------------------------------
  free energy    TOTEN  =      -582.18827590 eV

  energy without entropy =     -582.04323841  energy(sigma->0) =     -582.11575716


--------------------------------------------------------------------------------------------------------




--------------------------------------- Iteration      1(  12)  ---------------------------------------


    POTLOK:  cpu time      1.8869: real time      1.9022
    SETDIJ:  cpu time      1.3161: real time      1.3168
    EDDIAG:  cpu time     48.2279: real time     48.2590
     EDDAV:  cpu time    215.3601: real time    215.4889
       DOS:  cpu time      0.0025: real time      0.0025
    CHARGE:  cpu time     27.1373: real time     27.1657
    MIXING:  cpu time      0.0434: real time      0.0435
    --------------------------------------------
      LOOP:  cpu time    293.9742: real time    294.1786

 eigenvalue-minimisations  :  2688
 total energy-change (2. order) :-0.8483959E-04  (-0.1543100E-04)
 number of electron     248.9999999 magnetization 
 augmentation part      -14.0137397 magnetization 

 Broyden mixing:
  rms(total) = 0.26488E-03    rms(broyden)= 0.95616E-02
  rms(prec ) = 0.45279E-03
  weight for this iteration     100.00
  WARNING: grid for Broyden might be to small

 eigenvalues of (default mixing * dielectric matrix)
  average eigenvalue GAMMA=   1.7097
  7.4505  2.6498  2.6498  1.1037  1.1037  0.8199  0.7063  0.6278  0.5530  0.5709
  0.5709

 Free energy of the ion-electron system (eV)
  ---------------------------------------------------
  alpha Z        PSCENC =        24.32417353
  Ewald energy   TEWEN  =     28687.50798799
  -Hartree energ DENC   =    -34164.25109588
  -exchange      EXHF   =         0.00000000
  -V(xc)+E(xc)   XCENC  =      -303.08730609
  PAW double counting   =     35272.95658371   -34654.41609162
  entropy T*S    EENTRO =        -0.14501473
  eigenvalues    EBANDS =     -1847.70977786
  atomic energy  EATOM  =      6402.63218022
  Solvation  Ediel_sol  =         0.00000000
  ---------------------------------------------------
  free energy    TOTEN  =      -582.18836074 eV

  energy without entropy =     -582.04334601  energy(sigma->0) =     -582.11585337


--------------------------------------------------------------------------------------------------------




--------------------------------------- Iteration      1(  13)  ---------------------------------------


    POTLOK:  cpu time      1.9000: real time      1.9135
    SETDIJ:  cpu time      1.3195: real time      1.3206
    EDDIAG:  cpu time     48.2429: real time     48.2721
     EDDAV:  cpu time    215.5610: real time    215.6918
       DOS:  cpu time      0.0120: real time      0.0124
    CHARGE:  cpu time     27.1457: real time     27.1926
    MIXING:  cpu time      0.0565: real time      0.0572
    --------------------------------------------
      LOOP:  cpu time    294.2375: real time    294.4603

 eigenvalue-minimisations  :  2688
 total energy-change (2. order) :-0.1080636E-03  (-0.1987938E-04)
 number of electron     248.9999999 magnetization 
 augmentation part      -14.0137827 magnetization 

 Broyden mixing:
  rms(total) = 0.18712E-03    rms(broyden)= 0.76228E-02
  rms(prec ) = 0.33604E-03
  weight for this iteration     100.00
  WARNING: grid for Broyden might be to small

 eigenvalues of (default mixing * dielectric matrix)
  average eigenvalue GAMMA=   1.8088
  9.0501  2.7398  2.7398  1.4098  1.0488  0.9638  0.6966  0.6966  0.5436  0.6233
  0.6233  0.5706

 Free energy of the ion-electron system (eV)
  ---------------------------------------------------
  alpha Z        PSCENC =        24.32417353
  Ewald energy   TEWEN  =     28687.50798799
  -Hartree energ DENC   =    -34164.11127705
  -exchange      EXHF   =         0.00000000
  -V(xc)+E(xc)   XCENC  =      -303.09245009
  PAW double counting   =     35273.81777664   -34655.27760894
  entropy T*S    EENTRO =        -0.14501163
  eigenvalues    EBANDS =     -1847.84423947
  atomic energy  EATOM  =      6402.63218022
  Solvation  Ediel_sol  =         0.00000000
  ---------------------------------------------------
  free energy    TOTEN  =      -582.18846880 eV

  energy without entropy =     -582.04345717  energy(sigma->0) =     -582.11596298


--------------------------------------------------------------------------------------------------------




--------------------------------------- Iteration      1(  14)  ---------------------------------------


    POTLOK:  cpu time      1.8850: real time      1.9025
    SETDIJ:  cpu time      1.3194: real time      1.3207
    EDDIAG:  cpu time     48.2628: real time     48.2917
     EDDAV:  cpu time    215.4646: real time    215.5944
       DOS:  cpu time      0.0026: real time      0.0026
    CHARGE:  cpu time     27.1766: real time     27.2023
    MIXING:  cpu time      0.0445: real time      0.0445
    --------------------------------------------
      LOOP:  cpu time    294.1555: real time    294.3587

 eigenvalue-minimisations  :  2688
 total energy-change (2. order) :-0.1139163E-03  (-0.2451896E-04)
 number of electron     248.9999999 magnetization 
 augmentation part      -14.0138068 magnetization 

 Broyden mixing:
  rms(total) = 0.13342E-03    rms(broyden)= 0.54429E-02
  rms(prec ) = 0.22467E-03
  weight for this iteration     100.00
  WARNING: grid for Broyden might be to small

 eigenvalues of (default mixing * dielectric matrix)
  average eigenvalue GAMMA=   1.8142
  9.5931  2.7899  2.7899  1.7042  1.0866  1.0866  0.8686  0.5361  0.6714  0.6279
  0.6279  0.5749  0.6269

 Free energy of the ion-electron system (eV)
  ---------------------------------------------------
  alpha Z        PSCENC =        24.32417353
  Ewald energy   TEWEN  =     28687.50798799
  -Hartree energ DENC   =    -34163.95093706
  -exchange      EXHF   =         0.00000000
  -V(xc)+E(xc)   XCENC  =      -303.09469699
  PAW double counting   =     35273.20718555   -34654.66719270
  entropy T*S    EENTRO =        -0.14502589
  eigenvalues    EBANDS =     -1848.00225738
  atomic energy  EATOM  =      6402.63218022
  Solvation  Ediel_sol  =         0.00000000
  ---------------------------------------------------
  free energy    TOTEN  =      -582.18858272 eV

  energy without entropy =     -582.04355683  energy(sigma->0) =     -582.11606977


--------------------------------------------------------------------------------------------------------




--------------------------------------- Iteration      1(  15)  ---------------------------------------


    POTLOK:  cpu time      1.8785: real time      1.8978
    SETDIJ:  cpu time      1.3066: real time      1.3074
    EDDIAG:  cpu time     48.2760: real time     48.3045
     EDDAV:  cpu time    215.3828: real time    215.5071
       DOS:  cpu time      0.0067: real time      0.0067
    CHARGE:  cpu time     27.1733: real time     27.1986
    MIXING:  cpu time      0.0454: real time      0.0454
    --------------------------------------------
      LOOP:  cpu time    294.0693: real time    294.2676

 eigenvalue-minimisations  :  2688
 total energy-change (2. order) :-0.9364763E-04  (-0.1307269E-04)
 number of electron     248.9999999 magnetization 
 augmentation part      -14.0138258 magnetization 

 Broyden mixing:
  rms(total) = 0.10472E-03    rms(broyden)= 0.35336E-02
  rms(prec ) = 0.15672E-03
  weight for this iteration     100.00
  WARNING: grid for Broyden might be to small

 eigenvalues of (default mixing * dielectric matrix)
  average eigenvalue GAMMA=   1.8167
  9.8721  2.9892  2.7410  2.0827  1.3546  0.9823  0.9823  0.7982  0.6748  0.5322
  0.6407  0.5860  0.5986  0.5986

 Free energy of the ion-electron system (eV)
  ---------------------------------------------------
  alpha Z        PSCENC =        24.32417353
  Ewald energy   TEWEN  =     28687.50798799
  -Hartree energ DENC   =    -34163.84221438
  -exchange      EXHF   =         0.00000000
  -V(xc)+E(xc)   XCENC  =      -303.09587415
  PAW double counting   =     35273.17976162   -34654.63987953
  entropy T*S    EENTRO =        -0.14502998
  eigenvalues    EBANDS =     -1848.10978169
  atomic energy  EATOM  =      6402.63218022
  Solvation  Ediel_sol  =         0.00000000
  ---------------------------------------------------
  free energy    TOTEN  =      -582.18867636 eV

  energy without entropy =     -582.04364639  energy(sigma->0) =     -582.11616138


--------------------------------------------------------------------------------------------------------




--------------------------------------- Iteration      1(  16)  ---------------------------------------


    POTLOK:  cpu time      1.9010: real time      1.9022
    SETDIJ:  cpu time      1.3070: real time      1.3080
    EDDIAG:  cpu time     48.2106: real time     48.2388
     EDDAV:  cpu time    215.4070: real time    215.5324
       DOS:  cpu time      0.0039: real time      0.0039
    CHARGE:  cpu time     27.1856: real time     27.2109
    MIXING:  cpu time      0.0461: real time      0.0462
    --------------------------------------------
      LOOP:  cpu time    294.0612: real time    294.2423

 eigenvalue-minimisations  :  2688
 total energy-change (2. order) :-0.4505043E-04  (-0.9706244E-05)
 number of electron     248.9999999 magnetization 
 augmentation part      -14.0138421 magnetization 

 Broyden mixing:
  rms(total) = 0.64127E-04    rms(broyden)= 0.23285E-02
  rms(prec ) = 0.96631E-04
  weight for this iteration     100.00
  WARNING: grid for Broyden might be to small

 eigenvalues of (default mixing * dielectric matrix)
  average eigenvalue GAMMA=   1.8003
  9.9711  3.1536  2.6893  2.3510  1.4228  1.0837  1.0837  0.8728  0.7340  0.6880
  0.5323  0.6407  0.6218  0.5796  0.5796

 Free energy of the ion-electron system (eV)
  ---------------------------------------------------
  alpha Z        PSCENC =        24.32417353
  Ewald energy   TEWEN  =     28687.50798799
  -Hartree energ DENC   =    -34163.76792718
  -exchange      EXHF   =         0.00000000
  -V(xc)+E(xc)   XCENC  =      -303.09663605
  PAW double counting   =     35273.46262077   -34654.92279970
  entropy T*S    EENTRO =        -0.14502178
  eigenvalues    EBANDS =     -1848.18329922
  atomic energy  EATOM  =      6402.63218022
  Solvation  Ediel_sol  =         0.00000000
  ---------------------------------------------------
  free energy    TOTEN  =      -582.18872142 eV

  energy without entropy =     -582.04369964  energy(sigma->0) =     -582.11621053


--------------------------------------------------------------------------------------------------------




--------------------------------------- Iteration      1(  17)  ---------------------------------------


    POTLOK:  cpu time      1.8824: real time      1.9018
    SETDIJ:  cpu time      1.3072: real time      1.3079
    EDDIAG:  cpu time     48.2848: real time     48.3134
     EDDAV:  cpu time    212.7618: real time    212.8912
       DOS:  cpu time      0.0033: real time      0.0033
    CHARGE:  cpu time     27.2114: real time     27.2347
    MIXING:  cpu time      0.0470: real time      0.0470
    --------------------------------------------
      LOOP:  cpu time    291.4980: real time    291.6993

 eigenvalue-minimisations  :  2624
 total energy-change (2. order) :-0.2028128E-04  (-0.3563694E-05)
 number of electron     248.9999999 magnetization 
 augmentation part      -14.0138507 magnetization 

 Broyden mixing:
  rms(total) = 0.36676E-04    rms(broyden)= 0.16331E-02
  rms(prec ) = 0.55831E-04
  weight for this iteration     100.00
  WARNING: grid for Broyden might be to small

 eigenvalues of (default mixing * dielectric matrix)
  average eigenvalue GAMMA=   1.7671
  9.9949  3.2554  2.6113  2.5624  1.3844  1.3844  0.9922  0.9325  0.7404  0.7404
  0.7369  0.5334  0.6262  0.6262  0.5765  0.5765

 Free energy of the ion-electron system (eV)
  ---------------------------------------------------
  alpha Z        PSCENC =        24.32417353
  Ewald energy   TEWEN  =     28687.50798799
  -Hartree energ DENC   =    -34163.72905714
  -exchange      EXHF   =         0.00000000
  -V(xc)+E(xc)   XCENC  =      -303.09708874
  PAW double counting   =     35273.46528846   -34654.92546963
  entropy T*S    EENTRO =        -0.14502496
  eigenvalues    EBANDS =     -1848.22173143
  atomic energy  EATOM  =      6402.63218022
  Solvation  Ediel_sol  =         0.00000000
  ---------------------------------------------------
  free energy    TOTEN  =      -582.18874170 eV

  energy without entropy =     -582.04371674  energy(sigma->0) =     -582.11622922


--------------------------------------------------------------------------------------------------------




--------------------------------------- Iteration      1(  18)  ---------------------------------------


    POTLOK:  cpu time      1.8891: real time      1.9022
    SETDIJ:  cpu time      1.3148: real time      1.3159
    EDDIAG:  cpu time     48.3307: real time     48.3576
     EDDAV:  cpu time    215.5003: real time    215.6257
       DOS:  cpu time      0.0025: real time      0.0025
    CHARGE:  cpu time     27.1405: real time     27.1656
    MIXING:  cpu time      0.0478: real time      0.0478
    --------------------------------------------
      LOOP:  cpu time    294.2257: real time    294.4173

 eigenvalue-minimisations  :  2688
 total energy-change (2. order) :-0.6508657E-05  (-0.1179852E-05)
 number of electron     248.9999999 magnetization 
 augmentation part      -14.0138556 magnetization 

 Broyden mixing:
  rms(total) = 0.26695E-04    rms(broyden)= 0.11104E-02
  rms(prec ) = 0.40205E-04
  weight for this iteration     100.00
  WARNING: grid for Broyden might be to small

 eigenvalues of (default mixing * dielectric matrix)
  average eigenvalue GAMMA=   1.7606
 10.0075  3.4031  2.6570  2.6570  1.7697  1.4357  1.0532  1.0532  0.8049  0.8049
[...]
  Total     -24.31701   -19.00354     4.38269     5.33695     3.63013    -2.51048
  in kB      -7.26023    -5.67381     1.30852     1.59343     1.08383    -0.74954
  external pressure =       -3.88 kB  Pullay stress =        0.00 kB


 VOLUME and BASIS-vectors are now :
 -----------------------------------------------------------------------------
  energy-cutoff  :     1200.00
  volume of cell :     5366.24
      direct lattice vectors                 reciprocal lattice vectors
    14.523793698  0.000000000  0.000000000     0.068852534  0.000000000  0.000000000
     0.000000000 14.523793698  0.000000000     0.000000000  0.068852534  0.000000000
     0.000000000  0.000000000 25.439601400     0.000000000  0.000000000  0.039308792

  length of vectors
    14.523793698 14.523793698 25.439601400     0.068852534  0.068852534  0.039308792


 FORCES acting on ions
    electron-ion (+dipol)            ewald-force                    non-local-force                 convergence-correction
 -----------------------------------------------------------------------------------------------
   0.113E+02 -.144E+02 -.808E+02   -.133E+02 0.158E+02 0.831E+02   0.175E+01 -.114E+01 -.230E+01   -.102E-04 -.211E-04 0.141E-04
   0.191E+02 -.211E+02 0.251E+03   -.183E+02 0.223E+02 -.253E+03   -.977E+00 -.110E+01 0.161E+01   -.426E-04 -.769E-06 0.396E-05
   0.751E+01 -.110E+02 0.187E+03   -.731E+01 0.955E+01 -.184E+03   0.147E+00 0.137E+01 -.277E+01   -.841E-04 -.346E-04 0.746E-04
   -.106E+02 0.380E+02 -.554E+01   0.124E+02 -.363E+02 0.491E+01   -.170E+01 -.115E+01 0.603E+00   -.647E-04 0.147E-04 0.598E-04
   -.473E+02 -.655E+01 0.261E+03   0.466E+02 0.776E+01 -.263E+03   0.808E+00 -.122E+01 0.110E+01   -.684E-05 -.956E-06 -.306E-04
   0.234E+01 -.643E+01 -.211E+03   -.379E+01 0.585E+01 0.210E+03   0.140E+01 0.379E+00 0.850E+00   -.430E-04 0.123E-03 0.535E-04
   -.772E+01 0.189E+02 0.193E+03   0.621E+01 -.178E+02 -.190E+03   0.122E+01 -.100E+01 -.323E+01   0.120E-03 -.774E-04 0.994E-04
   -.130E+02 -.148E+02 0.141E+03   0.117E+02 0.134E+02 -.141E+03   0.165E+01 0.152E+01 -.341E+00   -.264E-04 0.546E-04 0.897E-04
   -.205E+02 -.541E+01 0.101E+03   0.201E+02 0.628E+01 -.102E+03   0.454E+00 -.439E+00 0.114E+01   -.332E-04 0.904E-04 0.189E-04
   -.179E+02 -.619E+01 0.148E+03   0.186E+02 0.885E+01 -.145E+03   -.696E+00 -.230E+01 -.273E+01   -.350E-04 -.675E-04 0.100E-04
   0.105E+02 -.105E+02 0.204E+03   -.984E+01 0.903E+01 -.203E+03   -.379E+00 0.146E+01 -.126E+01   -.538E-04 0.132E-04 -.225E-05
   0.112E+02 0.810E+01 -.140E+03   -.116E+02 -.659E+01 0.138E+03   -.212E-01 -.127E+01 0.163E+01   -.117E-04 0.171E-03 0.121E-03
   0.115E+01 -.163E+02 -.238E+03   -.189E+01 0.160E+02 0.240E+03   0.605E+00 0.125E+00 -.110E+01   0.115E-04 0.318E-04 0.644E-04
   -.174E+02 0.269E+02 -.126E+03   0.163E+02 -.259E+02 0.124E+03   0.109E+01 -.856E+00 0.250E+01   -.113E-03 -.611E-04 0.470E-04
   -.223E+01 0.102E+02 0.290E+03   0.294E+01 -.922E+01 -.291E+03   -.712E+00 -.926E+00 0.124E+01   0.431E-04 -.268E-04 0.565E-04
   -.265E+02 -.736E+01 -.946E+02   0.248E+02 0.718E+01 0.969E+02   0.182E+01 0.364E-02 -.182E+01   -.823E-04 -.488E-04 0.461E-04
   0.810E+01 -.305E+02 -.879E+02   -.923E+01 0.300E+02 0.878E+02   0.123E+01 0.807E+00 0.306E+00   0.198E-04 -.490E-04 0.445E-04
   0.212E+02 0.225E+02 -.217E+03   -.181E+02 -.213E+02 0.216E+03   -.279E+01 -.110E+01 0.133E+01   0.240E-05 0.151E-04 0.272E-04
   0.222E+01 0.119E+02 0.256E+03   -.156E+01 -.131E+02 -.258E+03   -.389E+00 0.660E+00 0.172E+01   0.294E-05 -.282E-04 0.257E-04
   0.325E+01 -.540E+01 0.245E+02   -.310E+01 0.587E+01 -.207E+02   -.493E-01 -.452E+00 -.351E+01   0.542E-05 0.230E-04 0.354E-04
   -.123E+02 0.685E+01 -.202E+03   0.132E+02 -.606E+01 0.201E+03   -.101E+01 -.717E+00 0.988E+00   -.576E-05 0.333E-04 0.597E-04
   0.102E+02 -.426E+02 -.236E+03   -.851E+01 0.414E+02 0.234E+03   -.123E+01 0.961E+00 0.139E+01   0.432E-04 -.268E-04 0.819E-04
   -.170E+02 -.283E+02 -.138E+03   0.137E+02 0.289E+02 0.138E+03   0.314E+01 -.191E+00 0.247E+00   0.288E-04 0.616E-05 0.681E-04
   0.147E+02 0.123E+02 0.113E+03   -.128E+02 -.112E+02 -.109E+03   -.192E+01 -.105E+01 -.354E+01   -.109E-04 -.856E-04 0.115E-03
   -.423E+01 -.177E+02 0.441E+02   0.499E+01 0.147E+02 -.433E+02   -.453E+00 0.265E+01 -.103E+01   -.432E-04 -.981E-04 0.406E-04
   0.177E+02 -.415E+02 0.181E+03   -.165E+02 0.417E+02 -.180E+03   -.831E+00 -.554E+00 -.483E+00   0.282E-04 0.365E-04 0.978E-05
   -.190E+02 0.111E+02 0.765E+02   0.167E+02 -.106E+02 -.765E+02   0.220E+01 -.520E+00 -.408E+00   0.150E-03 -.527E-04 0.161E-03
   -.238E+01 -.208E+02 0.203E+02   0.348E+01 0.212E+02 -.185E+02   -.102E+01 -.483E+00 -.191E+01   0.126E-04 0.606E-04 0.328E-04
   -.217E+02 0.304E+02 0.221E+03   0.214E+02 -.270E+02 -.219E+03   0.592E-01 -.278E+01 -.187E+01   -.502E-04 -.366E-04 0.546E-04
   -.390E+01 0.265E+02 -.257E+03   0.398E+01 -.260E+02 0.257E+03   -.174E+00 -.605E+00 0.368E+00   0.115E-03 -.465E-04 0.908E-04
   0.262E+02 0.251E+02 -.681E+02   -.270E+02 -.239E+02 0.657E+02   0.823E+00 -.104E+01 0.233E+01   0.399E-04 0.738E-04 0.788E-04
   0.820E+01 0.408E+02 0.156E+03   -.852E+01 -.409E+02 -.154E+03   0.470E+00 -.384E+00 -.248E+01   -.230E-04 -.829E-04 0.637E-04
   -.907E+01 -.199E+02 0.158E+03   0.921E+01 0.193E+02 -.158E+03   -.446E-01 0.591E+00 -.637E+00   0.111E-03 0.245E-04 0.763E-04
   -.222E+02 0.492E+02 -.217E+03   0.217E+02 -.494E+02 0.217E+03   0.948E-01 0.638E-01 -.656E-01   0.335E-05 0.409E-04 0.153E-04
   -.349E+01 -.247E+02 0.166E+02   0.301E+01 0.253E+02 -.149E+02   0.531E+00 -.596E+00 -.125E+01   0.163E-04 0.575E-04 0.241E-04
   0.110E+02 -.135E+02 0.362E+02   -.953E+01 0.137E+02 -.366E+02   -.146E+01 0.708E-01 0.385E+00   0.139E-04 -.114E-05 0.881E-04
   0.145E+01 0.128E+02 0.244E+02   -.205E+01 -.127E+02 -.248E+02   0.497E+00 -.256E+00 0.435E+00   0.116E-04 0.613E-04 0.332E-04
   -.163E+02 -.186E+02 -.723E+02   0.155E+02 0.172E+02 0.720E+02   0.706E+00 0.119E+01 -.821E-01   -.200E-04 -.219E-04 0.578E-04
   0.214E+02 0.185E+02 0.203E+03   -.192E+02 -.176E+02 -.202E+03   -.224E+01 -.119E+01 -.183E+01   -.634E-04 -.463E-04 0.412E-04
   -.384E+01 0.114E+02 -.177E+03   0.287E+01 -.128E+02 0.176E+03   0.939E+00 0.140E+01 0.123E+01   0.161E-03 -.135E-03 0.115E-03
   -.438E+02 -.187E+02 -.355E+01   0.426E+02 0.178E+02 0.463E+01   0.137E+01 0.114E+01 -.826E+00   0.159E-04 0.733E-04 0.407E-04
   0.238E+01 0.295E+02 0.248E+02   -.251E+01 -.292E+02 -.259E+02   0.281E+00 -.309E+00 0.976E+00   0.227E-04 -.242E-04 0.914E-04
   0.416E+02 0.311E+01 -.349E+02   -.405E+02 -.307E+01 0.328E+02   -.108E+01 -.290E-01 0.192E+01   0.412E-05 0.459E-04 0.307E-04
   -.476E+01 0.198E+02 -.181E+03   0.481E+01 -.195E+02 0.179E+03   0.185E+00 -.228E+00 0.161E+01   -.151E-03 -.129E-03 0.596E-04
   0.171E+02 0.486E+02 0.204E+03   -.154E+02 -.495E+02 -.206E+03   -.138E+01 0.859E+00 0.161E+01   0.533E-05 -.291E-04 0.322E-04
   0.169E+02 -.410E+02 0.143E+03   -.175E+02 0.392E+02 -.142E+03   0.622E+00 0.195E+01 -.126E+01   0.352E-05 0.287E-04 0.151E-04
   0.189E+02 -.981E+01 -.189E+03   -.190E+02 0.891E+01 0.188E+03   0.387E-01 0.106E+01 0.110E+01   0.376E-06 -.513E-04 0.682E-04
   0.494E+00 0.360E+02 -.259E+03   0.591E-01 -.355E+02 0.260E+03   -.613E+00 -.585E+00 -.611E+00   -.975E-05 -.294E-04 0.126E-03
   -.215E+02 0.297E+02 -.173E+03   0.206E+02 -.287E+02 0.170E+03   0.881E+00 -.884E+00 0.285E+01   0.488E-04 -.148E-04 0.684E-04
   0.225E+02 0.696E+01 -.105E+03   -.214E+02 -.746E+01 0.104E+03   -.136E+01 0.623E+00 0.837E+00   0.305E-05 -.820E-04 0.652E-04
   0.208E+02 -.336E+02 0.147E+03   -.200E+02 0.322E+02 -.148E+03   -.129E+01 0.148E+01 0.426E+00   0.632E-04 0.212E-04 0.293E-04
   0.294E+01 -.243E+02 -.200E+03   -.217E+01 0.242E+02 0.202E+03   -.814E+00 0.966E-01 -.151E+01   -.758E-04 -.986E-04 0.572E-04
   -.439E+01 0.503E+01 -.161E+03   0.620E+01 -.516E+01 0.156E+03   -.167E+01 -.597E-02 0.403E+01   -.174E-04 0.697E-04 0.393E-04
   0.432E+01 0.306E+02 0.253E+03   -.554E+01 -.298E+02 -.254E+03   0.110E+01 -.115E+01 -.101E+00   -.471E-04 0.410E-05 0.787E-04
   0.229E+02 0.276E+00 -.103E+03   -.235E+02 0.786E+00 0.998E+02   0.304E+00 -.893E+00 0.292E+01   -.207E-04 0.563E-05 0.418E-04
   -.259E+02 -.187E+02 -.259E+03   0.252E+02 0.185E+02 0.259E+03   0.621E+00 0.131E+00 0.853E+00   -.456E-04 -.397E-04 0.700E-04
   -.120E+02 -.190E+02 0.177E+03   0.119E+02 0.183E+02 -.176E+03   0.182E+00 0.504E+00 -.161E+01   -.807E-04 -.467E-04 0.186E-04
   -.448E+02 -.125E+02 0.125E+03   0.443E+02 0.115E+02 -.127E+03   0.674E+00 0.575E+00 0.131E+01   -.447E-05 0.714E-04 0.167E-04
   -.195E+02 -.281E+02 -.225E+03   0.184E+02 0.292E+02 0.225E+03   0.862E+00 -.117E+01 0.708E-02   0.553E-04 -.888E-04 0.708E-04
   0.318E+02 -.112E+01 0.229E+03   -.319E+02 -.558E+00 -.227E+03   -.190E+00 0.159E+01 -.256E+01   -.809E-05 0.497E-04 0.481E-05
   0.226E+02 -.195E+02 -.200E+03   -.213E+02 0.175E+02 0.198E+03   -.112E+01 0.197E+01 0.242E+01   0.688E-04 -.453E-04 0.114E-03
   0.278E+02 0.146E+02 -.188E+03   -.263E+02 -.149E+02 0.188E+03   -.117E+01 0.450E+00 0.747E+00   -.347E-04 0.447E-04 0.603E-04
   0.164E+02 0.819E+01 0.243E+03   -.142E+02 -.770E+01 -.239E+03   -.193E+01 -.836E+00 -.367E+01   0.453E-04 0.119E-04 0.586E-04
 -----------------------------------------------------------------------------------------------
   0.194E+01 0.375E+01 0.180E+01   -.977E-13 0.835E-13 0.142E-12   -.194E+01 -.375E+01 -.179E+01   -.425E-04 -.371E-03 0.342E-02


 POSITION                                       TOTAL-FORCE (eV/Angst)
 -----------------------------------------------------------------------------------
      3.13301      8.05864     15.74850        -0.225214      0.204382      0.014886
      8.85948      6.89726     10.30738        -0.256741      0.023666      0.242530
      4.95811      5.15730     11.35162         0.375933     -0.035733      0.095714
      6.17091      2.53196     12.71566        -0.042153      0.515057     -0.024053
      4.71916     10.88161     10.37646         0.019957     -0.072234     -0.241228
      3.79751      0.27695     14.35665         0.038140     -0.247216     -0.018039
     13.99405      3.42201     11.01223        -0.240472     -0.017542     -0.071361
      3.11215      1.93906     11.55670         0.471073      0.108456     -0.487378
      3.45322     14.16022     11.97569         0.070167      0.364883     -0.004385
      5.19191      8.91061     11.61913        -0.080127      0.240397      0.060288
      2.45098     11.18590     10.90008         0.246261      0.012782     -0.295948
      2.22099      1.96014     13.80926        -0.421403      0.107281      0.349778
      9.61796     10.91979     14.80512        -0.051224     -0.121183      0.183528
      5.62644      4.57574     13.59368         0.002509      0.123332     -0.130658
     12.61421      5.02677      9.83105        -0.052108      0.005138     -0.015499
      7.11512      6.37587     13.65294         0.173460     -0.225490      0.351820
      1.03903      9.05336     13.26442         0.206131      0.345835      0.119865
      8.42582      1.47306     14.83739         0.206492      0.083301      0.071312
      1.57970      9.07457     10.47281         0.182730     -0.293770      0.148449
      8.67511      9.98493     12.86828         0.126677      0.048562      0.114364
      5.72947     11.69579     14.29879        -0.251059      0.071600      0.165811
     12.42426      8.30480     15.02622         0.429797     -0.233976     -0.326563
     11.69847     10.23485     13.92627        -0.035800      0.451705     -0.327025
      2.79653      5.80976     12.11522        -0.143725      0.009826     -0.130041
      3.06207      8.10687     12.41703         0.246413     -0.223076     -0.385254
     11.95813     10.13457     11.43525         0.379043     -0.423245      0.354438
      0.48616      5.20908     12.15946         0.006600     -0.002247     -0.414850
      9.03746     12.35610     12.99326        -0.013329     -0.128126     -0.068677
      7.36846      3.14125     10.85558        -0.358577      0.285220      0.063183
     12.59524      4.55716     15.29730        -0.133674     -0.077693     -0.004600
      0.27584      0.80804     12.93536         0.106285      0.062831     -0.035479
      9.63131      2.93032     11.45765         0.140834     -0.445187      0.000416
     13.40912      6.69708     11.33681         0.053851     -0.044179      0.042440
     10.60054      0.57791     14.79504        -0.509436      0.052359     -0.309672
     12.45597     12.13674     12.66068         0.069720     -0.109409      0.338198
     11.26964      6.63130     12.33616        -0.131127      0.302836     -0.064351
     10.80027     13.83523     12.74684        -0.084402     -0.157457      0.078973
      6.42248      9.65029     13.47298        -0.079366     -0.163300     -0.319458
     10.40434      5.08015     10.80269        -0.128712     -0.363500     -0.483906
      0.13866      5.21034     14.49295         0.015064      0.168493      0.257684
      6.93940     13.27744     13.12053         0.134969      0.206612      0.285941
     12.82095      1.99592     12.44724         0.186122      0.021311     -0.058241
      0.12442     12.97087     12.73509         0.010073      0.008756     -0.204875
      3.53232      5.22432     14.29691         0.269738      0.064769      0.353048
     11.10878      1.03061     11.14271         0.216673      0.041034     -0.016464
     10.08253      8.56906     11.57026         0.072860      0.292568      0.045032
      9.08132      5.49901     14.44285         0.057156      0.197572     -0.305807
      1.93901      3.85464     15.21635        -0.062808     -0.061470      0.077082
     11.63121      2.69571     14.32743        -0.074173      0.090882      0.065196
      9.43052      3.29228     13.78232        -0.276350      0.133350      0.293976
     14.00251      8.92882     11.45295        -0.569074      0.120072     -0.138702
      3.98513      7.49565     14.67101        -0.147788     -0.090272      0.462774
      6.25390      0.71970     14.11901         0.095917     -0.118221     -0.270411
      5.00698      2.95777     10.57402         0.040651     -0.342718     -0.203111
      1.74577     11.34291     13.19969        -0.300303      0.148266     -0.103406
      6.22730      7.98350     15.06651        -0.141125     -0.075939     -0.078228
      6.61085      6.91349     11.32104         0.076409     -0.170607     -0.523932
      5.11386     12.53741     11.92398         0.151741     -0.337779     -0.252579
      0.08967      7.60708     14.87407        -0.345317     -0.187858      0.003759
      1.48158     13.39595     10.84828        -0.302058     -0.002532      0.327649
     11.23665      6.32152     14.63001         0.098933      0.062644      0.797004
      3.58463     12.48053     14.08672         0.291693      0.192538      0.224961
      0.95336      1.47457     10.70027         0.187570     -0.396355      0.324083
 -----------------------------------------------------------------------------------
    total drift:                               -0.002359      0.005068      0.015626


--------------------------------------------------------------------------------------------------------



  FREE ENERGIE OF THE ION-ELECTRON SYSTEM (eV)
  ---------------------------------------------------
  free  energy   TOTEN  =      -582.18874960 eV

  energy  without entropy=     -582.04372382  energy(sigma->0) =     -582.11623671



--------------------------------------------------------------------------------------------------------


    POTLOK:  cpu time      3.1860: real time      3.1881


--------------------------------------------------------------------------------------------------------


     LOOP+:  cpu time   6359.6936: real time   6364.1329
    4ORBIT:  cpu time      0.0000: real time      0.0000



 total charge

# of ion       s       p       d       tot
------------------------------------------
    1        0.569   0.016   0.000   0.585
    2        0.817   0.769   0.000   1.587
    3        0.772   0.891   0.000   1.663
    4        0.759   0.949   0.000   1.708
    5        0.803   0.865   0.000   1.668
    6        0.775   0.863   0.000   1.638
    7        0.762   0.892   0.000   1.654
    8        0.784   0.863   0.000   1.647
    9        0.760   0.919   0.000   1.680
   10        0.765   0.886   0.000   1.651
   11        0.771   0.907   0.000   1.678
   12        0.768   0.865   0.000   1.633
   13        0.837   0.816   0.000   1.653
   14        0.767   0.953   0.000   1.720
   15        0.819   0.796   0.000   1.615
   16        0.761   0.933   0.000   1.693
   17        0.762   0.874   0.000   1.636
   18        0.788   0.843   0.000   1.631
   19        0.845   0.788   0.000   1.632
   20        0.757   0.906   0.000   1.663
   21        0.797   0.898   0.000   1.695
   22        0.775   0.878   0.000   1.652
   23        0.761   0.882   0.000   1.642
   24        0.772   0.911   0.000   1.683
   25        0.749   0.919   0.000   1.668
   26        0.773   0.859   0.000   1.632
   27        0.766   0.913   0.000   1.678
   28        0.750   0.936   0.000   1.686
   29        0.814   0.825   0.000   1.639
   30        0.787   0.888   0.000   1.676
   31        0.761   0.896   0.000   1.657
   32        0.775   0.880   0.000   1.655
   33        0.764   0.936   0.000   1.699
   34        0.813   0.800   0.000   1.613
   35        0.761   0.887   0.000   1.648
   36        0.775   0.901   0.000   1.676
   37        0.756   0.901   0.000   1.657
   38        0.765   0.937   0.000   1.701
   39        0.764   0.900   0.000   1.664
   40        0.758   0.911   0.000   1.668
   41        0.758   0.967   0.000   1.725
   42        0.760   0.925   0.000   1.685
   43        0.751   0.938   0.000   1.689
   44        0.759   0.960   0.000   1.719
   45        0.815   0.823   0.000   1.638
   46        0.756   0.868   0.000   1.623
   47        0.789   0.881   0.000   1.670
   48        0.803   0.861   0.000   1.664
   49        0.761   0.937   0.000   1.697
   50        0.764   0.921   0.000   1.684
   51        0.757   0.928   0.000   1.684
   52        0.766   0.926   0.000   1.693
   53        0.755   0.900   0.000   1.655
   54        0.792   0.855   0.000   1.647
   55        0.762   0.901   0.000   1.662
   56        0.811   0.873   0.000   1.684
   57        0.770   0.838   0.000   1.609
   58        0.772   0.908   0.000   1.680
   59        0.789   0.854   0.000   1.644
   60        0.797   0.821   0.000   1.619
   61        0.758   0.929   0.000   1.687
   62        0.772   0.873   0.000   1.645
   63        0.801   0.818   0.000   1.620
--------------------------------------------------
tot         48.693  54.952   0.000 103.645


 total amount of memory used by VASP MPI-rank0   349210. kBytes
=======================================================================

   base                                    :      30000. kBytes
   nonl-proj                               :      64390. kBytes
   fftplans                                :      98000. kBytes
   grid                                    :      75605. kBytes
   one-center                              :         12. kBytes
   wavefun                                 :      81203. kBytes

  
  
 General timing and accounting informations for this job:
 ========================================================
  
                  Total CPU time used (sec):     6499.207
                            User time (sec):     5737.830
                          System time (sec):      761.377
                         Elapsed time (sec):     6521.312
  
                   Maximum memory used (kb):      598552.
                   Average memory used (kb):          N/A
  
                          Minor page faults:     10495539
                          Major page faults:         1173
                 Voluntary context switches:         3003
