ITEM: TIMESTEP
0
ITEM: NUMBER OF ATOMS
1000
ITEM: BOX BOUNDS pp pp pp
0.0000000000000000e+00 2.1158707884739954e+01
0.0000000000000000e+00 2.1158707884739954e+01
0.0000000000000000e+00 2.1158707884739954e+01
ITEM: ATOMS id element x y z fx fy fz c_PEa
1 H 14.84 2.48278 14.1851 -0.750918 0.280576 1.10982 0.534037
2 H 2.19782 20.106 12.8143 0.434741 -0.465407 0.00122175 0.241255
3 H 18.1541 14.5845 16.8807 -1.03692 -0.758823 -0.189724 0.392125
4 H 20.5637 6.39779 10.6886 0.804682 0.29287 -0.275556 0.0219293
5 H 6.84634 13.3821 1.97693 -0.0695651 0.66417 -0.183455 0.601084
6 H 2.77075 18.2989 6.79632 0.00950221 -1.58199 0.97702 0.114442
7 H 9.02829 16.901 1.82887 -2.81184 -0.319199 -1.29681 0.196005
8 H 9.67837 6.14549 7.26197 0.400396 -1.20994 0.876948 -0.0575735
9 H 5.99033 10.8124 21.0165 0.595863 -0.745508 0.817485 0.0814555
10 H 18.7314 20.4907 3.9013 -0.582943 -0.243366 -0.133319 -0.0478469
11 H 6.80609 5.43115 20.3346 0.124267 0.925458 0.59856 0.121313
12 H 19.3919 15.7021 4.08745 0.317237 -0.451556 1.37522 0.177032
13 H 20.8342 7.58409 6.53922 0.564913 -0.127997 -0.26644 0.145155
14 H 15.159 12.4696 3.82047 -0.241791 0.356942 0.161683 0.464702
15 H 15.437 8.00527 5.87726 -1.04642 -1.21046 0.614787 0.540936
16 H 10.3238 7.83379 6.14973 -1.1961 -1.11072 0.0322558 0.731102
17 H 4.92447 18.2811 17.9632 -0.929085 -1.01206 -0.0583293 0.932094
18 H 14.6013 7.59068 13.6332 -0.0492647 0.356158 0.136797 0.494379
19 H 0.497435 11.6883 15.2904 -0.037352 -0.164796 2.16814 1.9695
20 H 13.2164 11.3941 18.994 -0.148811 0.749853 -0.275294 0.424886
21 H 6.79937 3.99121 6.22892 -0.59121 0.131247 0.158873 0.0228307
22 H 4.21077 0.281874 2.0015 -1.32077 0.373054 -0.0104439 0.918715
23 H 7.07842 0.717565 8.5391 0.973603 -0.470418 -1.20012 3.05692
24 H 19.9256 15.641 17.4991 0.535225 -0.16364 1.25334 -0.215844
25 H 5.32361 0.633213 16.5453 -0.445053 1.54463 -0.101481 -0.00787913
26 H 4.36547 7.63105 16.0093 1.15215 -0.555298 -0.447613 -0.225152
27 H 6.7949 5.30493 14.136 -0.816789 -0.224773 0.268268 2.34491
28 H 12.291 5.83934 3.35282 0.0809295 -0.184289 -0.250541 -0.391409
29 H 9.51787 7.99709 9.37521 0.136159 0.608751 0.360925 0.401101
30 H 9.3654 11.0878 19.7293 0.530612 -0.158752 0.22538 0.549575
31 H 0.102376 3.36204 16.3362 0.193481 0.169725 -0.945476 -0.169193
32 H 20.3928 5.89043 0.640331 0.660367 -0.359351 0.562159 -0.164056
33 H 20.6455 1.4542 12.0933 0.0314403 -0.57191 0.585174 -0.033049
34 H 7.78141 14.2562 3.90429 -0.348745 -0.0393059 0.510726 0.243035
35 H 4.58038 6.64121 20.0156 0.182327 0.732856 0.665087 -0.539639
36 H 0.509039 9.26599 11.156 -0.470328 0.461001 -0.456734 0.39205
37 H 18.6136 14.0616 15.1783 0.548882 0.229726 -0.644147 0.290434
38 H 14.8067 11.9111 16.1171 -1.52084 0.501958 -0.12999 1.53577
39 H 6.68289 8.84364 6.02821 0.735124 -0.68855 0.176205 0.509204
40 H 4.15141 1.92825 12.3827 -1.10871 -0.088016 0.779633 -0.386308
41 H 2.07735 3.69558 10.2307 -0.504959 0.692911 -0.80488 -0.3528
42 H 15.518 7.42416 3.38524 0.130264 0.192721 0.295086 -0.242471
43 H 11.3518 6.05394 8.63083 0.411429 0.00600029 0.106861 -0.0869545
44 H 18.2771 7.8745 5.61269 -0.631351 -1.50776 0.984601 0.188707
45 H 0.910259 3.15156 20.5859 0.757974 -1.0656 -1.52 -0.398251
46 H 13.5237 7.734 18.9017 0.579249 0.15509 -0.106596 0.367129
47 H 15.4434 14.7861 5.10188 -0.269267 0.508029 -0.46663 1.37811
48 H 6.66758 7.6256 0.106836 0.902186 -0.282231 -1.24163 -0.378077
49 H 12.6284 5.01644 13.7726 -0.41267 -0.660691 -0.00410623 0.534443
50 H 0.552091 18.0671 19.7781 -0.559533 0.051657 -0.147259 0.0506232
51 H 0.515494 10.2259 5.54643 0.704071 0.255423 1.02968 0.74696
52 H 11.2819 20.0768 11.8639 0.366766 0.164651 0.0160348 2.30451
53 H 4.91655 7.48942 17.9169 -1.53075 0.275671 0.559182 0.150838
54 H 0.410634 17.5675 7.55491 0.822149 0.534133 1.22717 -0.179664
55 H 21.0048 12.9924 12.2087 -0.548954 1.16478 -0.860255 0.726017
56 H 4.60733 18.6109 8.03416 -0.344616 -0.854175 0.251133 0.350683
57 H 13.9846 13.9907 19.466 -0.395548 0.0198507 0.362602 0.0817188
58 H 8.72489 7.19827 3.22032 -0.400813 0.123488 -0.226762 -0.191601
59 H 4.92316 5.66202 13.7337 0.0447278 0.778163 0.26256 0.904526
60 H 14.3535 1.48114 9.92368 0.371988 -0.903549 -0.629707 0.0749278
61 H 11.5247 12.4916 5.19401 -1.32277 -0.805778 -0.47326 1.06883
62 H 12.7688 5.76145 6.30127 0.339822 -1.80017 1.07468 -0.0499312
63 H 19.0359 10.947 8.91188 -1.434 0.117832 0.155045 -0.130591
64 H 17.0684 17.108 4.08572 -0.2902 -0.0420621 0.951507 -0.0506773
65 H 4.34713 3.31595 3.95499 -0.691012 0.241879 -0.815928 0.192755
66 H 10.6553 2.44016 6.93813 -0.209492 0.0866265 -1.11792 0.759708
67 H 13.6215 16.047 4.57798 0.560467 -1.0189 -0.57446 0.224028
68 H 13.6443 18.3371 13.7362 0.341405 -0.325785 -0.314617 0.103083
69 H 12.9277 10.1619 14.489 0.675957 -0.00138456 -0.519025 0.137662
70 H 2.1936 4.1583 19.5433 0.140804 0.855328 0.502785 -0.131739
71 H 13.3807 14.2386 17.1617 1.36816 -0.469348 -0.244185 0.818228
72 H 11.9281 4.77525 1.03736 -0.154336 -1.1369 -1.32058 -0.0569242
73 H 7.58786 14.9058 16.006 -0.822335 -1.3624 0.277955 0.80976
74 H 2.33263 2.2272 2.45307 1.00771 0.184634 0.0183402 0.2856
75 H 12.8898 0.250788 20.2145 0.366706 -0.0321894 -0.592136 -0.0425394
76 H 0.575759 13.3917 7.12457 0.000132698 0.0351101 0.786858 0.508089
77 H 15.5786 5.44639 4.90767 0.280098 0.229936 -0.228874 -0.0781711
78 H 4.5826 5.83948 0.633087 -0.695651 -0.582754 -0.0614106 0.301402
79 H 12.2529 14.9471 12.9555 -0.0401275 -1.02507 -0.16005 1.21338
80 H 14.014 3.76037 1.30073 -0.45189 0.158586 -0.597247 -0.333066
81 H 12.9143 1.69112 16.7743 0.243499 -0.538535 -0.832402 0.458002
82 H 18.1669 12.5433 6.62262 -0.450981 0.836398 0.349164 0.341829
83 H 15.9967 12.9168 14.9167 -1.28697 0.597541 -0.890292 1.01314
84 H 20.1517 4.3841 19.9016 0.496373 0.792764 -1.43707 -0.0181868
85 H 4.65365 12.641 12.3081 -0.0988746 0.282361 -1.20152 0.525967
86 H 9.01552 4.56342 18.7784 0.413166 0.923356 -1.14075 0.172226
87 H 20.2211 15.4331 12.5893 0.224363 -0.631126 -0.989516 0.326227
88 H 6.61913 14.3427 11.1619 -0.821241 -1.70796 -1.00852 1.28415
89 H 18.3032 9.65958 10.2779 0.0333286 0.05538 0.583597 0.492017
90 H 15.2948 7.45069 9.00625 -0.603657 0.312519 0.220825 0.256121
91 H 14.0219 17.6497 16.5989 -0.82395 0.414935 0.220606 0.176028
92 H 9.41284 9.10837 19.8004 0.127529 -0.619581 0.435223 0.648891
93 H 7.2081 18.9328 0.765833 0.397162 0.50718 0.243529 0.335493
94 H 11.7177 12.8614 15.5187 0.712835 -0.526939 -1.60839 0.550304
95 H 13.849 0.837705 12.2433 0.767848 -0.803099 -0.273287 0.660322
96 H 14.9301 10.4431 12.2236 -0.258561 0.586862 0.581663 0.210035
97 H 14.6776 18.7301 3.62353 -0.176511 0.278299 -0.552234 0.279719
98 H 9.73246 7.56928 11.2844 0.664308 -0.232704 0.235524 0.0288461
99 H 13.6291 1.63359 18.4922 0.118936 0.807557 1.22471 -0.184106
100 H 2.79569 9.53653 9.71771 0.0346026 0.0681999 -0.280029 1.01466
101 H 20.0426 15.7402 6.2186 0.260122 -0.758428 -0.0626718 -0.0224242
102 H 14.2484 4.98214 8.43057 -0.0554202 0.644003 0.18581 0.0280474
103 H 13.6933 10.7755 10.8664 -0.156561 0.147757 -0.175597 0.262211
104 H 5.40903 10.5506 3.55325 0.801268 0.832864 0.534592 -0.0466965
105 H 19.4553 2.89494 14.3915 0.209899 -0.442543 -0.237145 -0.216696
106 H 2.23108 9.54716 13.9219 -0.251591 0.691429 -0.71146 -0.620801
107 H 17.5784 9.52781 7.40676 0.526477 0.0781087 2.26538 1.58757
108 H 9.0058 13.4188 10.4905 -0.102253 0.895033 -0.52569 1.30411
109 H 17.4235 16.1322 10.8841 -0.473251 -0.209121 -0.936502 -0.546279
110 H 0.322779 7.52561 3.49418 -7.02015 3.90436 5.01398 -0.037545
111 H 19.9173 18.8672 12.494 0.0560828 0.488464 -0.301235 0.324447
112 H 15.3324 16.8179 15.5446 0.848414 -1.00821 0.716867 0.122342
113 H 5.90513 0.955177 19.5212 1.11074 -0.0225655 -0.350385 0.212277
114 H 4.46748 0.907915 3.78935 -0.725807 0.33202 0.00298002 0.320072
115 H 5.1446 11.2695 14.7502 0.150854 0.11451 0.685402 0.535538
116 H 18.1708 16.5043 16.8635 -4.63093 2.92914 7.27792 0.0808958
117 H 16.0215 20.8575 10.0013 1.82248 0.147721 -0.833539 -0.437813
118 H 14.7042 3.37464 20.6282 0.623641 -0.269756 -1.35737 -0.480671
119 H 20.7736 17.352 17.2166 1.24453 -0.366829 0.20643 0.134451
120 H 8.79274 4.76685 9.32367 -0.429942 0.804611 0.350767 -0.0835038
121 H 19.3607 13.4692 9.4836 -0.0862107 -0.122219 0.813884 1.18621
122 H 11.4645 2.83978 13.0943 -0.295722 0.592706 0.170278 1.60791
123 H 3.87014 18.4413 9.86574 0.634459 -1.38868 0.271463 0.842886
124 H 0.370375 8.67918 13.1052 -0.624863 -0.239094 -0.331789 -0.121554
125 H 19.2211 5.23986 17.3778 -1.37221 -0.736643 0.922808 -0.0967113
126 H 18.1989 6.13298 13.6617 -0.853519 1.44708 1.09419 0.188051
127 H 3.34793 18.5463 14.9479 -0.477209 0.321243 0.909469 0.490551
128 H 6.29526 3.14773 15.0629 -0.701483 -0.158124 0.156785 -0.120629
129 H 10.6286 21.0622 5.05033 -0.374173 -0.140834 0.119893 0.264173
130 H 8.78282 15.7648 3.79901 0.540681 0.444462 1.03961 0.467402
131 H 14.0432 3.82745 18.1366 0.253376 -0.541288 0.0926029 0.274124
132 H 20.0802 18.9683 16.3324 -0.0709976 2.10218 1.20823 0.00654851
133 H 13.377 6.47986 16.6693 0.408077 1.32091 0.246513 1.17143
134 H 6.16028 16.3384 11.1227 0.0865715 -0.265532 -0.832637 2.55033
135 H 8.66729 9.50858 10.9329 -0.3684 0.211546 0.148143 -0.0213184
136 H 7.33635 17.8529 8.27279 0.353302 0.194047 -2.05709 0.846404
137 H 5.27195 4.58534 19.698 -1.23046 -0.646283 0.62912 0.286724
138 H 1.5777 1.12081 12.738 -1.43996 1.3522 1.77231 -0.363169
139 H 18.3806 12.9646 11.749 -0.239773 -0.380797 -0.354172 0.685657
140 H 10.2641 6.11713 3.2482 -0.275081 -1.72605 -0.152576 0.528947
141 H 16.5282 2.11506 10.8085 0.352071 1.0807 -0.00251229 -0.0510814
142 H 7.99732 16.6812 17.8215 -1.52681 -5.55973 2.96523 0.599765
143 H 1.06621 20.0953 1.16544 -0.312871 -0.179797 0.0323328 0.777957
144 H 17.1408 18.4717 8.68778 0.619158 -0.456741 -0.720506 -0.224972
145 H 15.5485 2.25715 8.45687 -0.913324 -0.835412 0.0668986 -0.117541
146 H 8.40425 18.8212 20.446 1.09728 0.407098 0.946283 0.178771
147 H 1.62033 16.2437 5.84297 -0.259824 -0.934842 1.15096 0.148715
148 H 9.43203 11.7143 7.49363 -0.0175797 0.0335274 -0.209018 0.516683
149 H 11.0773 14.2977 8.24797 -0.145508 0.300396 -0.2822 0.465408
150 H 18.5115 3.55427 6.34471 -0.149599 0.657962 -0.529912 -0.259407
151 H 15.1265 8.89984 18.1943 -1.07917 -0.425403 0.704122 1.07968
152 H 12.4227 20.4628 13.2253 0.314776 -0.303347 -0.0594186 0.394817
153 H 5.87601 19.988 13.3531 -0.489313 1.86672 -0.386802 0.607653
154 H 18.7949 0.591587 17.9689 -0.241456 0.424332 0.0276277 -0.0680886
155 H 18.0409 1.80508 15.4048 0.409079 -0.0930242 1.13369 0.120707
156 H 13.1405 8.08338 20.658 1.48694 -0.13561 -0.502058 -0.20284
157 H 19.555 19.3156 1.87255 0.773875 -0.126543 0.151608 -0.22101
158 H 15.4037 12.3493 9.39341 -1.13904 -0.183889 -0.205103 0.0459594
159 H 0.275895 8.67267 18.0165 -1.29471 -0.0152784 -0.0638311 -0.105937
160 H 11.638 18.4504 18.6571 0.880306 -0.0151034 -0.498564 0.169705
161 H 19.1246 15.1663 1.29064 -1.1855 -0.22012 -0.350739 0.308575
162 H 16.1823 20.8534 12.7991 -0.448388 -0.643381 0.114227 -0.529782
163 H 2.55311 7.80859 15.4966 -0.96696 0.189662 -0.321461 0.00439332
164 H 3.69936 10.0067 18.1772 -0.534465 -0.857476 -0.379203 -0.183622
165 H 10.789 0.431806 0.182883 -0.215746 1.16386 0.197228 -0.451138
166 H 9.80371 16.573 12.8396 2.03078 -1.80639 -0.716713 1.4507
167 H 0.0428623 0.530373 5.76258 -0.41197 1.04395 0.76953 0.286537
168 H 10.9561 1.07918 18.6774 0.370982 0.707302 0.113736 0.0247384
169 H 13.5307 3.34927 6.72961 -0.408167 -0.586126 0.0452642 -0.516373
170 H 0.862276 16.3219 12.0502 -0.215264 1.00505 -0.13771 0.128037
171 H 0.528559 3.54222 5.29824 0.503414 -0.490838 0.625022 0.211437
172 H 2.39434 14.5095 15.6769 0.26304 -0.170088 0.225069 0.262613
173 H 8.39066 8.51289 5.17644 0.586461 -0.910138 0.0623156 0.164807
174 H 12.5553 1.91666 10.0307 -0.267568 -0.703001 0.380337 0.176864
175 H 2.831 14.4643 13.7304 0.363437 0.237704 -0.155194 1.17635
176 H 19.1297 4.78466 7.7099 1.31009 -1.60447 0.459307 -0.837981
177 H 9.38164 0.202308 8.57101 -0.364735 -0.695533 -0.752253 1.11813
178 H 17.1621 5.36797 6.67578 0.525998 -0.0128956 -1.84204 -0.415972
179 H 15.7861 1.79054 0.89479 2.43987 -3.67798 3.27578 -0.212955
180 H 3.26407 4.2993 1.78442 0.417143 -0.813687 -0.146957 -0.157249
181 H 8.59429 1.87801 13.771 -0.0128174 0.405904 0.477733 0.694032
182 H 20.8368 14.9745 0.716199 -0.981194 0.0976335 -1.74593 -0.162717
183 H 12.5737 4.78893 9.5092 -0.889021 -0.252919 -0.25249 0.113546
184 H 0.656058 3.1838 11.9157 -1.03714 0.508047 -0.0134504 -0.38041
185 H 3.60343 15.2019 18.6272 -0.417983 0.269564 0.102265 0.461099
186 H 19.3365 4.78339 1.62696 -0.734722 0.219224 -0.100599 0.438669
187 H 20.1417 20.3702 18.7405 -0.0743448 1.01493 0.68739 -0.185374
188 H 4.74466 6.01685 3.28549 1.20506 -0.265081 -0.766415 -0.223701
189 H 20.3075 10.6429 10.3168 0.105552 -0.706813 -0.952691 0.867604
190 H 10.5538 19.5826 6.15462 -0.0178464 0.268254 0.676073 -0.405572
191 H 18.4928 1.15441 3.98816 -1.67172 0.198153 0.0777358 0.0349668
192 H 18.0187 4.88305 19.9298 -0.0914415 -0.728861 -0.396712 -0.234453
193 H 18.9797 6.78212 18.4573 0.171452 -0.916276 0.400027 0.579729
194 H 1.89806 12.6181 3.74573 -0.56212 0.422194 -0.914743 -0.145671
195 H 17.523 18.5383 1.33989 -0.614414 0.708586 -0.7446 -0.443289
196 H 4.10472 9.32334 3.98669 -0.375134 -0.580793 0.144908 0.164525
197 H 20.8624 16.9875 15.0043 0.763669 -0.795713 -1.70093 0.000957952
198 H 11.1089 6.70096 1.59132 -0.671376 0.429433 0.372405 0.294713
199 H 15.7284 13.7756 8.11467 0.432745 -0.00219498 0.316006 0.223608
200 H 11.3348 19.3175 4.48033 0.364534 -0.782559 -0.46746 -0.635755
201 H 7.27943 5.67068 1.85018 -0.0468969 0.398824 -0.174142 0.617288
202 H 11.5655 10.9096 13.4683 0.082067 -0.416718 0.374675 0.480355
203 H 17.2546 19.8907 11.219 -0.142374 0.913154 0.663225 -0.21667
204 H 2.45528 19.8977 3.16331 -1.49963 3.28938 0.396479 1.43873
205 H 11.7925 5.63176 11.4288 -0.188999 -0.918375 0.743774 0.218613
206 H 6.52653 13.4077 15.5044 0.00658076 -1.29654 -0.19649 0.403354
207 H 6.52115 1.47162 11.5235 1.02072 1.18837 0.0525571 0.661993
208 H 13.6977 16.0314 20.7055 0.312576 -0.308783 0.273042 0.0165771
209 H 11.4787 7.86167 9.58872 0.591496 1.50686 -0.977255 0.443324
210 H 1.41124 6.31473 15.1354 -0.58604 -0.0916836 0.942942 -0.0417699
211 H 1.67746 1.63335 0.0962913 -0.759129 0.465566 0.2584 -0.392784
212 H 20.4919 8.84979 7.89108 0.905762 1.24662 1.082 0.0308498
213 H 3.28064 3.07792 14.4287 -1.70563 0.432046 0.273823 -0.00805296
214 H 19.2825 10.7983 3.06077 -1.18164 -0.480212 0.851942 -0.375379
215 H 14.5061 17.9535 11.958 -0.350261 -0.0748532 0.258249 -0.0255028
216 H 20.0293 18.6977 4.41897 -0.0889729 0.412509 0.620163 0.101933
217 H 9.79845 2.5695 4.09165 1.30117 -0.926419 -0.19313 0.308164
218 H 8.21163 17.4383 3.34634 1.0772 0.809192 0.129846 -0.395442
219 H 1.72888 6.09697 2.06496 1.14513 -0.370792 -1.60125 -0.629421
220 H 3.07736 13.6739 2.87409 0.831972 0.602971 0.0118338 0.295372
221 H 21.0517 6.7237 13.4255 -0.193652 -0.24458 0.133753 0.071675
222 H 4.50236 20.0266 15.0791 -0.855194 0.702374 -0.418645 0.595351
223 H 5.84195 19.5109 10.4296 -0.535367 -0.773486 -1.01529 2.17275
224 H 5.22064 10.87 7.57639 -0.0559135 0.569621 -0.33757 0.950694
225 H 12.7153 15.5402 7.2686 0.0209158 -0.209106 0.208032 0.6524
226 H 4.09267 18.7331 13.1382 0.0483491 -0.546703 -0.306572 0.753639
227 H 20.8278 5.59356 7.09702 0.866772 0.432468 0.656513 -0.164039
228 H 6.9638 6.4265 9.3555 -0.116382 -0.447385 0.324434 0.0302001
229 H 0.0787273 9.32599 0.0896928 -1.14996 -0.758102 -1.20477 -0.0327856
230 H 20.1288 5.27752 5.24756 -0.683659 0.303001 -0.999541 -0.543696
231 H 6.93747 5.59846 4.56399 -0.614074 -0.885151 -0.51353 -0.123055
232 H 3.50009 7.25483 6.80014 -0.691987 0.777565 -0.296139 0.516705
233 H 1.49716 17.581 14.9642 0.692816 -0.924828 -0.185533 -0.0785441
234 H 6.41944 15.0277 0.435474 0.179596 -0.216375 0.0634757 0.112629
235 H 14.8302 1.91742 5.44317 0.122173 0.431935 -0.318609 -0.670131
236 H 8.61965 12.7723 4.61916 0.00955691 -0.499826 -0.112844 0.758362
237 H 2.62264 17.0638 9.41462 -0.390149 0.490999 -0.670892 0.0676369
238 H 9.88182 10.1323 14.0557 0.19014 1.03991 -0.497407 1.18726
239 H 12.8096 7.96497 10.9701 -0.369266 0.929958 0.299868 0.214294
240 H 1.69276 7.65682 11.3826 -0.687036 -0.0645334 -0.506194 -0.0109014
241 H 0.662825 18.7674 18.0872 -0.268435 0.520079 -0.898391 -0.187578
242 H 18.7765 20.6651 10.5729 0.0143222 -0.216718 -1.1807 -0.290816
243 H 18.3751 15.271 7.86002 -0.225858 -0.448071 -0.327229 1.08566
244 H 4.8147 0.595066 6.00514 -1.8879 0.285382 -0.927822 3.18151
245 H 5.26221 2.52743 18.4301 0.940121 0.311531 -0.559234 -0.0445937
246 H 8.55409 4.90441 6.59474 -0.839009 -0.0758905 -0.256447 0.0683202
247 H 15.0812 5.45461 16.6486 -0.288641 0.372069 0.316727 0.631109
248 H 18.8902 11.6738 1.07864 -0.844072 0.452393 -0.737546 0.0297644
249 H 8.46507 0.295199 5.64 0.699763 1.27287 -1.10294 -0.00895337
250 H 7.54367 2.00023 6.78738 0.520885 -0.24371 1.74192 0.545246
251 H 18.9887 17.9411 14.5207 -0.175543 0.000115189 -2.01952 -0.272477
252 H 2.70309 11.73 0.164152 1.09969 0.392846 0.0133558 -0.329601
253 H 20.2721 10.2133 1.63387 0.912401 -0.379483 -0.622451 -0.0971066
254 H 17.9508 3.42198 18.8642 0.566134 0.172945 0.0322431 -0.301111
255 H 7.16985 3.95877 18.569 -0.332639 -0.588296 2.11645 0.0814768
256 H 8.33983 9.6286 8.45371 -0.135582 -0.591602 0.161244 -0.047749
257 H 16.3535 0.507612 19.7425 -0.447764 -0.322641 -0.0996939 0.1184
258 H 6.31246 3.52395 10.9482 -0.712408 -0.201867 0.181086 0.374497
259 H 1.205 7.16393 20.1661 0.267588 -0.251326 -0.322229 -0.456258
260 H 5.95274 16.966 16.5852 -0.816949 -0.96258 0.951837 0.632243
261 H 0.583099 4.17875 8.23449 -1.48376 -0.669247 0.233633 -0.262034
262 H 4.77716 10.3733 12.7997 0.0369257 -0.0396623 -0.0185974 0.241963
263 H 11.2138 9.5134 2.43099 -0.139817 2.25298 -1.1724 0.816332
264 H 14.2791 4.65449 3.51996 -0.214675 0.0476233 -0.123312 -0.531615
265 H 10.632 4.6618 5.40413 0.503961 0.638766 -0.560952 0.120785
266 H 19.2055 7.27018 0.714851 0.0771632 0.309667 -0.978964 -0.0786932
267 H 0.608289 17.948 10.3932 -0.145595 -0.307251 -0.484234 0.150658
268 H 5.51906 16.8168 5.23158 0.844188 -1.64365 1.02435 0.188305
269 H 3.41735 12.3225 13.7037 -0.763203 0.220752 0.0592022 0.684922
270 H 8.38856 14.9236 19.3519 -0.270596 -0.203227 0.0214707 0.157504
271 H 8.06756 1.5802 19.8902 -0.754443 0.408227 0.143019 -0.0765242
272 H 3.3895 11.0161 3.67747 -0.235949 -0.48213 0.600477 -0.0529702
273 H 12.097 0.565227 3.04842 -0.0859245 0.489403 0.67807 0.011219
274 H 17.1325 12.336 0.180871 -0.0752925 -0.4495 -0.0203546 0.456113
275 H 6.02406 13.7928 7.30846 0.926464 -1.35755 -0.2459 1.59586
276 H 11.737 11.3043 16.6273 1.19229 0.286086 -0.258475 0.778544
277 H 17.7599 6.25419 16.5301 -0.285991 -0.777684 -0.241851 0.283633
278 H 19.7299 12.9224 2.39011 -0.689278 0.161067 0.321743 -0.191419
279 H 15.3038 17.6453 8.75235 -0.160846 -0.0155424 0.154359 0.352002
280 H 9.02074 19.279 1.78929 0.749532 -0.385053 0.154552 0.0337981
281 H 3.57097 11.2715 16.7243 0.32999 -0.0267449 -0.564839 -0.294367
282 H 10.4087 13.7982 13.5967 -0.175953 -0.248123 0.0391958 0.960424
283 H 10.3604 7.47246 0.0418946 -0.377776 -0.0767562 -0.550631 0.312218
284 H 7.14266 20.1414 20.3989 0.190591 1.08751 0.890424 0.233915
285 H 4.79909 2.80244 8.69485 -0.672356 0.609342 0.42473 0.653002
286 H 1.6675 1.41352 14.9604 0.328784 0.0103918 -0.0725503 -0.25403
287 H 12.5363 0.125359 8.54399 0.875907 -0.899161 0.121553 0.0951927
288 H 6.65569 7.03317 11.2614 1.34653 -0.624469 -0.383502 1.37722
289 H 15.9867 7.14938 16.6896 -1.41438 -1.71568 -1.43201 0.528085
290 H 17.4189 5.4184 0.861626 -0.822312 -0.133411 -1.23125 -0.205062
291 H 19.6348 7.42592 15.4953 0.774156 -0.6455 -1.70075 0.718963
292 H 17.444 21.0667 16.025 -0.130589 -0.29699 0.199184 -0.067793
293 H 10.6596 15.8444 18.6915 0.152528 -0.0583954 -0.530553 0.339247
294 H 2.75028 15.4654 2.72103 0.381624 -1.37717 0.106136 0.329605
295 H 14.6245 9.78625 3.16549 1.43559 0.490782 -0.342154 0.680257
296 H 10.4119 14.5645 4.3677 0.304398 -0.627892 1.1575 0.0880602
297 H 18.9915 0.898597 0.198926 0.259778 -0.153146 -0.0790446 0.0410829
298 H 0.451823 13.6363 15.7338 -0.655752 0.215851 -0.481731 -0.0219803
299 H 20.2027 13.2692 20.9609 -0.597091 -0.0864273 -0.7839 -0.19519
300 H 5.33387 16.6405 14.8437 -4.31246 0.057228 4.11826 1.04502
301 H 15.6854 4.61587 18.3604 -0.100342 -1.1146 -0.589093 0.56136
302 H 4.80203 17.9667 1.08757 -0.205532 -0.495038 -1.05297 1.36238
303 H 12.8405 12.8377 2.66426 0.510563 0.0505243 0.795527 0.232181
304 H 18.7862 17.4099 3.33081 0.278233 0.115668 -0.882448 0.252841
305 H 8.76711 0.771673 12.0333 0.253607 0.474896 0.120214 0.489544
306 H 18.4873 4.5637 15.5648 0.666278 0.415057 0.643039 0.0800612
307 H 0.65853 17.1229 2.92416 -4.27401 -1.91865 -0.132967 -0.0840353
308 H 11.095 0.461943 16.2777 0.792784 0.508449 -0.0654399 1.09121
309 H 16.7127 18.9254 3.05029 0.0894089 0.763796 0.547604 -0.0919744
310 H 3.77969 16.4839 12.5007 -2.83469 0.164407 0.135866 0.397763
311 H 12.0467 15.7935 2.85393 -1.05427 -0.976052 -0.22524 0.562418
312 H 15.4762 20.5368 2.28255 0.76421 0.970527 -0.823831 -0.476274
313 H 10.8307 8.2969 18.4962 -0.0215965 -0.401787 0.275656 1.18021
314 H 11.6598 15.9836 20.434 -0.222634 0.274736 0.0294352 0.0654737
315 H 8.57265 12.1577 17.9831 0.397305 -0.0981501 -0.478185 1.21532
316 H 9.0373 18.1674 12.2507 3.66021 1.90269 -3.55724 3.43066
317 H 9.67075 3.70004 20.2621 0.598644 -1.00616 1.26874 0.00578818
318 H 5.80154 8.74997 18.8639 0.410762 -0.517351 0.172619 0.240521
319 H 1.42812 13.3521 1.19419 0.726437 0.672433 0.0225675 -0.0395779
320 H 9.61574 18.5919 18.5173 1.22247 0.722432 2.32121 -0.355821
321 H 6.2159 5.45019 7.93773 -0.566664 -0.851063 0.0412373 0.859679
322 H 18.6517 19.773 14.4363 0.290578 0.339436 0.306205 -0.0965533
323 H 11.0122 7.83394 14.7441 1.24053 -0.000753496 0.156207 1.4461
324 H 10.2729 20.5085 2.93364 -0.349469 -0.793738 -0.122907 0.010812
325 H 13.2338 13.6486 9.65765 0.97298 1.39017 -1.00767 0.266841
326 H 9.19846 11.1768 3.64833 0.534455 1.24501 1.25426 0.937575
327 H 8.20301 11.5841 15.082 0.479389 0.926294 -0.318608 0.761652
328 H 16.4985 15.8333 1.85422 0.36137 -0.829183 0.290884 -0.0539861
329 H 7.53483 9.99531 3.64802 0.243733 0.217169 -1.12297 0.275934
330 H 0.27526 20.2245 12.7606 0.192388 -0.0499154 0.709205 0.173814
331 H 17.1406 2.67074 20.3735 0.826064 0.64179 -0.615182 -0.26756
332 H 19.3684 13.0062 4.2464 -0.0412265 0.194983 0.590134 -0.103846
333 H 13.2217 5.46066 20.6392 -0.701419 0.264747 -0.336635 0.0823453
334 H 0.745827 13.8796 9.97217 -0.994265 -0.115083 0.28486 0.653213
335 H 12.9766 17.5695 8.67209 0.0958123 -0.262989 -1.23108 -0.0414103
336 H 19.3115 18.0195 10.6675 -0.728382 0.0532305 -0.243674 -0.453067
337 H 13.4922 10.4401 20.5667 0.205973 -0.32236 0.520664 0.260095
338 H 11.8585 1.37446 5.82425 1.97748 -0.690188 -1.15269 -0.0535104
339 H 8.56118 11.4091 12.7868 0.644867 1.08943 0.23225 0.383889
340 H 3.07046 7.62204 12.9646 -0.224175 1.23209 -0.587149 -0.00887411
341 H 4.76601 11.1051 10.3756 -0.605642 0.184999 0.928804 0.759302
342 H 17.1145 11.0648 2.49301 -0.519647 0.886997 -0.719032 -0.210097
343 H 19.0831 6.49095 7.07042 -0.756937 0.0125306 0.645437 -0.0483887
344 H 8.56574 5.57993 20.9756 -0.21678 1.84398 0.619226 0.54786
345 H 13.8998 20.8756 3.33637 -0.131152 -1.0287 -0.932509 0.0228749
346 H 16.3562 14.7717 14.2362 0.085529 -0.805102 -1.02175 0.0605154
347 H 9.85949 4.98473 0.969407 -0.492164 0.00985503 -0.105227 0.547767
348 H 16.899 8.87499 20.0402 -0.333153 0.0207808 1.67638 1.89544
349 H 4.00177 7.32551 2.24211 -0.0781093 -0.139644 -0.42361 -0.393235
350 H 16.6276 7.11234 1.52619 -0.119125 -0.3002 -0.866197 -0.213724
351 H 5.82052 12.4109 9.64829 0.408681 0.45541 -0.592897 1.02334
352 H 16.9751 12.2155 18.7076 -0.828257 0.584965 1.18055 1.09505
353 H 10.6025 18.6139 16.0257 4.86918 0.864435 0.0664145 2.60999
354 H 17.7398 2.62248 8.90872 0.677393 -0.741825 -1.38967 -0.280305
355 H 1.13795 8.21267 1.32612 2.36241 0.338125 -1.74439 -0.580854
356 H 16.9146 2.98829 5.22235 -0.175274 0.626867 0.0843754 -0.288063
357 H 1.95343 9.48487 19.6969 0.369204 0.253214 -1.29775 -0.276537
358 H 9.77785 4.39499 16.6521 -0.0904888 -0.0969195 -0.883386 0.608805
359 H 1.35424 9.20198 16.5044 -0.994647 -0.343123 -0.372919 -0.38425
360 H 1.38176 16.3892 0.69603 0.495132 0.878548 0.360799 -0.0411217
361 H 8.80598 0.221491 1.82896 -0.284021 0.81432 -0.448794 -0.117294
362 H 5.29313 2.9536 0.342833 0.511114 0.198724 0.7202 0.650153
363 H 2.74543 4.39765 16.7023 -0.511376 0.198085 0.260353 0.108832
364 H 7.64507 11.8539 8.27504 -0.641756 0.46907 -0.907574 0.413405
365 H 16.2934 0.475785 7.60029 -0.205539 -0.263772 0.59247 0.00295463
366 H 15.3246 19.371 11.0534 -0.53511 -0.147006 0.521331 -0.0351347
367 H 6.1569 13.1384 21.0763 -0.893155 0.292904 0.703428 0.214999
368 H 3.68112 5.77458 11.7493 0.540514 0.0899529 -0.112761 -0.124617
369 H 11.5529 10.3812 8.43722 -0.584443 0.12263 1.38344 0.796786
370 H 13.7808 18.315 0.411194 0.194006 -0.048634 -1.36087 -0.0845041
371 H 11.917 8.00889 16.8684 0.340614 0.429827 -0.203331 0.919111
372 H 12.7114 18.8508 9.92529 0.159491 0.352372 0.598846 0.426131
373 H 17.1903 18.1247 13.4125 1.66159 -0.692462 -1.29294 -1.18718
374 H 16.2134 7.16033 12.827 0.198354 -0.0801154 -0.462388 0.440141
375 H 10.6303 16.0397 9.00251 0.11898 -0.605208 0.895671 0.354734
376 H 7.96532 17.2973 0.32329 0.780202 0.27161 0.233729 0.318641
377 H 1.34849 5.83179 4.47011 0.67794 -0.56932 0.625369 -0.395505
378 H 11.4702 12.1732 21.0323 0.287533 -1.02209 -1.20726 0.901402
379 H 18.105 0.690252 13.9045 -0.227671 -0.0435257 -0.423038 -0.0849691
380 H 16.249 3.3966 6.88458 -0.205571 -0.0566826 -0.369482 -0.24693
381 H 4.78515 14.7463 11.9 -2.2018 -0.703397 -1.87408 1.10543
382 H 19.2538 19.9517 8.13056 0.174575 -0.278025 0.461385 -0.0796728
383 H 2.26357 2.49519 4.70664 0.619425 -0.0617157 0.156332 0.226876
384 H 19.7815 9.63497 15.7144 1.91585 -0.811902 -0.439351 1.39614
385 H 20.9516 20.3884 8.62327 0.989267 0.440548 -0.359896 -0.288093
386 H 3.95894 7.29862 4.44559 1.1102 0.816087 1.38113 -0.141789
387 H 17.9349 16.6689 0.91299 -0.129007 0.717011 0.680206 -0.00997985
388 H 5.85122 1.29928 13.3496 -0.240184 0.392294 0.0953266 0.244184
389 H 10.7437 20.4262 18.5862 -0.0765034 -0.373309 -0.147802 0.202212
390 H 16.1681 5.02413 15.0006 -0.13346 0.760958 -0.896494 0.701016
391 H 2.1877 13.2067 19.8457 -0.603272 -0.354206 -0.509897 0.0602599
392 H 14.139 0.0700802 0.426108 0.0667758 -1.56416 -1.09108 0.0414671
393 H 15.2694 5.06048 12.6866 -0.635064 0.536507 1.84721 0.126458
394 H 1.3421 21.0455 19.027 -0.704886 0.132819 -0.512008 0.252466
395 H 7.34893 0.36618 3.70598 1.03752 -0.47222 0.882598 0.795566
396 H 11.0493 13.8857 18.4319 0.756868 0.205767 1.06209 1.86908
397 H 2.32325 3.84329 12.3527 0.725423 0.367202 -0.555903 0.232087
398 H 1.45179 4.80991 0.181328 0.0898693 -0.40452 0.388632 0.0602957
399 H 14.5076 14.7104 14.3631 -0.222902 -0.268416 -0.436788 0.0513233
400 H 7.84165 21.0261 13.3018 0.401094 0.849512 -0.279318 0.717476
401 H 8.00284 12.0763 0.403196 -0.282871 -0.548983 -0.0673421 0.0615142
402 H 20.4076 6.60749 8.64264 1.03635 0.274255 -0.0179016 0.0972777
403 H 16.6694 11.3298 6.93463 -0.503771 -0.0424659 0.607958 0.672655
404 H 11.1298 18.8017 20.5066 -0.293877 0.416053 0.342336 -0.367852
405 H 20.6935 10.9558 4.17559 0.790976 0.78143 -0.264466 0.0747447
406 H 15.9911 14.7692 20.5996 -4.31648e-07 0.0369485 -1.12015 0.608852
407 H 3.79962 4.50771 8.80192 -0.238628 -0.090452 0.137717 0.246182
408 H 6.28825 17.7366 19.9013 -0.357157 0.0703056 -0.152243 0.536755
409 H 0.851463 14.5045 12.5449 0.203472 0.216107 0.379311 0.346099
410 H 9.12195 16.9702 19.5425 0.353308 0.279035 0.586002 0.2435
411 H 1.80699 5.85132 9.29038 0.166939 0.652584 0.393071 0.119127
412 H 13.7368 5.14211 11.0096 0.327988 -0.657305 0.23694 -0.111719
413 H 6.28959 0.380285 1.28267 0.1509 1.21735 -0.814645 0.412936
414 H 3.07145 5.2868 13.5262 0.408422 0.158833 1.16299 0.00412521
415 H 6.02142 14.3221 5.45312 -0.569902 0.0353463 -0.373194 0.470221
416 H 3.57659 20.3448 4.95329 -1.54093 0.607907 0.336596 0.543087
417 H 3.66298 1.02898 15.1985 -0.341767 -0.713029 -0.702915 0.0736009
418 H 7.48233 9.54705 18.9907 -0.0862116 -0.379584 1.08701 0.423203
419 H 18.9385 1.62027 10.3959 0.331714 0.939746 0.372747 -0.500905
420 H 3.84014 8.8139 20.1416 0.2161 -1.17876 -1.12289 -0.586988
421 H 6.84535 2.45213 9.24488 0.551461 0.203152 0.0577754 0.556069
422 H 2.87094 6.49563 16.8784 0.322788 -0.412986 0.365966 0.0230361
423 H 12.3288 0.318473 1.24157 4.49962e-05 -0.48258 0.259313 0.0666162
424 H 0.0892622 1.54438 9.54086 -0.682416 1.1187 -0.172727 -0.24079
425 H 16.1151 8.68824 11.0837 -0.63397 -0.247295 0.192899 0.00436452
426 H 9.76791 2.72222 2.16228 0.343838 -0.371562 -0.00689406 0.0738236
427 H 13.9174 12.0065 6.59506 0.245647 0.57473 -0.0204727 0.584804
428 H 17.2241 18.4523 19.742 -1.40382 1.76817 0.642768 0.935788
429 H 0.762806 14.397 20.2644 -0.210559 -0.525382 -0.158306 0.423109
430 H 18.9877 7.90952 8.97854 0.400952 0.606698 0.826301 -0.0229852
431 H 2.59251 18.4074 18.5509 0.239473 0.172915 -0.240318 0.818856
432 H 2.39723 8.59533 3.41259 -0.545113 1.94805 -0.303017 -0.191752
433 H 3.01319 19.633 1.00174 0.648381 1.61354 0.185647 1.07263
434 H 20.2664 17.5344 5.84468 -0.0992691 0.761872 0.381552 -0.0384098
435 H 5.532 18.5419 15.04 -5.09956 0.634313 -0.245268 1.08791
436 H 16.9944 11.017 11.356 -0.364374 0.715304 0.348574 0.481722
437 H 7.23789 8.34802 10.0758 0.388481 0.579097 -0.95956 0.32035
438 H 6.17547 11.5144 16.3579 -0.416394 -0.561325 -0.326463 0.513217
439 H 5.85232 18.9252 6.19466 -0.174207 -0.589755 0.874198 -0.0418866
440 H 5.70274 5.89199 18.2676 -1.80243 -0.576618 -0.118421 0.0612582
441 H 0.414855 2.3042 7.59727 -0.737057 0.502945 -0.641864 -0.721895
442 H 9.50219 14.9366 2.19671 -0.0343736 0.331767 -0.268257 0.0400092
443 H 9.40169 6.25815 15.4667 -0.247149 0.0830465 -0.136682 1.44712