ITEM: TIMESTEP
0
ITEM: NUMBER OF ATOMS
1000
ITEM: BOX BOUNDS pp pp pp
0.0000000000000000e+00 2.1158707884739954e+01
0.0000000000000000e+00 2.1158707884739954e+01
0.0000000000000000e+00 2.1158707884739954e+01
ITEM: ATOMS id element x y z fx fy fz c_PEa
1 H 2.50588 5.03219 16.2052 -0.173803 -0.0182209 -0.497689 -0.191676
2 H 8.99901 1.70747 13.5073 -0.848719 0.910047 0.724704 -0.533277
3 H 8.26767 0.0187179 7.1411 -0.126556 0.32168 -0.447864 0.257318
4 H 18.1606 0.252806 6.53921 -4.0805 -0.403998 1.12861 0.684143
5 H 3.74644 16.7868 15.1758 -0.275162 -0.302209 -0.873443 0.312329
6 H 9.26784 19.3258 10.1763 0.318835 -1.21816 -0.56313 -0.102859
7 H 13.78 9.29248 5.02131 -0.729648 -0.619581 0.287778 -0.36416
8 H 0.748624 18.1025 0.279665 -1.70317 -0.217775 0.31811 -0.382029
9 H 10.4561 17.624 19.1661 -1.20555 -0.405439 -1.70985 -0.366229
10 H 4.34371 11.5675 17.2209 0.177555 0.334573 0.0062573 -0.359032
11 H 7.80183 20.0892 18.5337 -0.854509 -0.644063 -0.245199 -0.705808
12 H 13.8983 6.37991 6.31516 0.683697 0.365867 1.20221 0.0229502
13 H 5.01132 15.8593 13.7288 0.0428484 0.744793 0.235436 -0.30966
14 H 20.6494 16.538 8.37796 1.16481 0.660898 -0.824842 1.60096
15 H 11.4016 9.42347 11.53 -0.542593 0.122879 0.00525184 0.434782
16 H 14.8725 5.03377 9.87683 0.259416 -0.157938 0.24663 -0.281131
17 H 16.7503 0.55589 8.12373 0.760409 -0.42066 0.184214 0.750102
18 H 15.0226 16.7056 20.4266 0.672607 -0.141882 1.53707 -0.44532
19 H 13.844 4.63386 19.0009 -0.672661 1.78551 0.970274 0.119873
20 H 3.44119 17.4607 4.77882 0.284912 0.0862102 0.321956 0.493041
21 H 7.21826 15.8175 6.3038 -1.67162 1.46948 -0.0549314 0.683349
22 H 1.55389 13.7347 2.56606 -0.376377 0.97374 -0.0462739 0.690553
23 H 20.5522 20.4851 16.3298 0.0883761 -0.465556 -0.750961 -0.297759
24 H 20.2985 10.4969 10.508 -0.0709472 0.581757 1.69979 2.45618
25 H 16.6088 13.7344 0.597628 -0.39514 0.650277 -0.274315 -0.132057
26 H 4.98918 8.19911 8.91269 0.231707 -0.649263 0.612379 0.373384
27 H 20.5433 8.4805 19.6406 7.58025e-05 -0.422159 0.0728644 -0.0442256
28 H 16.3795 11.0653 19.42 -0.424203 -0.462842 0.190218 0.362695
29 H 3.21618 14.3598 19.151 -0.212271 -1.8989 -0.911405 0.129386
30 H 6.3339 4.89185 9.67648 -0.410428 -0.505685 -0.966301 2.14257
31 H 5.47571 9.05592 3.28396 -0.0218521 0.702014 0.701053 0.498683
32 H 0.495581 8.41951 0.716758 0.1793 0.645359 -0.0214412 -0.102133
33 H 14.4214 16.0706 10.0434 -0.497325 -1.12004 3.40098 0.582462
34 H 6.53621 5.04468 13.4112 -0.745653 1.03832 0.484408 -0.376418
35 H 15.0428 10.2716 10.6773 -0.107525 -0.455255 0.213112 0.491599
36 H 11.9505 13.2228 17.2522 1.19809 -0.286898 -0.347109 0.865612
37 H 15.8005 8.16369 11.0514 -0.874946 -0.407987 -0.837354 0.536249
38 H 2.33264 5.71526 19.9655 0.182224 0.25782 0.221781 0.74797
39 H 4.83945 16.6203 1.94332 -1.16013 -1.28244 0.37987 -0.558224
40 H 18.7099 17.3364 13.3676 0.434934 -1.41771 0.436011 0.0688768
41 H 6.50947 2.53205 21.0355 -0.438085 -1.02679 -0.0673349 0.493103
42 H 8.37039 20.1941 11.6797 -1.17687 1.48036 -0.219821 -0.277645
43 H 11.2839 12.1728 7.1214 1.0828 -0.230707 -1.22563 -0.545227
44 H 16.8043 17.8417 17.6021 1.9203 -0.891836 1.54849 -0.338477
45 H 8.29272 19.6819 21.1028 2.53197 -0.156932 -0.381995 0.218488
46 H 13.9721 12.5067 4.60204 -0.872359 -0.0258304 -0.165922 -0.112164
47 H 15.4142 11.9935 6.78857 -1.43063 -0.856004 0.733977 0.0650324
48 H 5.40255 2.65927 4.46758 1.28404 -0.102255 0.0635009 0.19244
49 H 5.26514 1.57999 12.3128 -0.1079 0.0590301 0.698132 -0.231189
50 H 20.7942 9.22882 14.2472 -0.892074 0.0840648 -0.564899 -0.107654
51 H 4.21362 15.8303 4.65802 -0.177852 -0.131674 -0.411592 -0.0432156
52 H 16.0504 11.31 12.8456 -0.651137 -0.665689 0.0287798 0.694028
53 H 14.5312 3.17695 20.5329 0.468956 1.50767 2.03229 -0.451642
54 H 14.6318 19.3935 15.4431 -1.11709 1.23735 0.478761 -0.0505561
55 H 2.83904 21.0956 11.1296 0.0846011 -0.707403 -0.191751 -0.217269
56 H 4.58635 8.0464 0.387631 -0.197526 -0.392703 -0.438076 1.03206
57 H 2.86782 10.4945 9.87563 2.39894 2.25232 1.29993 1.18078
58 H 8.91011 10.5732 11.5004 0.304637 0.447493 0.850401 -0.0833797
59 H 12.8506 13.4212 14.2044 -0.0886564 -0.357971 0.74387 0.93092
60 H 13.4024 14.1958 3.02878 -1.36975 -0.800979 0.364967 0.043587
61 H 14.7472 3.16 1.70895 0.457651 0.842087 -0.793078 0.409478
62 H 11.658 21.0818 3.73231 -0.0945016 -0.213227 -1.41033 0.459122
63 H 3.62293 10.2563 19.5752 -1.08714 -1.35204 -0.0937559 -0.0877899
64 H 17.3337 12.7804 2.32408 1.18209 0.195326 -3.65141 0.300127
65 H 6.15474 18.4398 14.1585 -1.70676 -0.774127 -0.209632 -0.359158
66 H 9.73212 3.26583 12.6101 0.417491 1.27534 1.22344 -0.101907
67 H 20.9584 14.8942 19.0489 0.731353 -0.809671 0.822695 1.18991
68 H 14.3374 13.3503 1.6632 -1.47204 -0.0570741 -0.0560556 0.28864
69 H 1.48876 20.678 17.6011 -0.910421 -0.498136 -0.691463 1.18945
70 H 8.61489 18.7983 6.37391 -1.1456 0.50728 -0.640986 1.27146
71 H 16.6117 2.24666 17.3718 1.61915 0.316739 -0.111574 -0.391148
72 H 6.00717 13.1207 4.80299 -0.576841 0.397883 -0.911897 1.88717
73 H 7.50917 16.3217 4.12154 -0.463452 0.619417 0.0207588 0.935976
74 H 16.6064 15.2884 18.9346 -0.802397 -0.0517263 -0.11106 0.0987854
75 H 6.64689 10.5409 18.0969 0.468891 -0.923239 -1.36906 -0.286773
76 H 2.11999 1.48623 13.8766 0.168853 -0.578795 0.3358 -0.108864
77 H 13.8364 20.0674 8.28122 0.377988 4.07416 -1.1201 0.0531294
78 H 1.28207 18.0306 13.2883 0.275539 -0.538083 0.323191 -0.0283818
79 H 1.36249 2.608 12.2038 1.37843 0.791799 -0.238401 -0.0415727
80 H 6.61209 0.127813 8.85227 -1.74799 0.32429 -0.649163 -0.189701
81 H 12.4752 15.4396 0.972372 -0.316691 0.527017 1.69032 0.473302
82 H 16.6811 14.9877 10.8245 -1.02473 -0.8858 0.518541 0.467458
83 H 1.75907 2.30746 8.13308 0.122782 0.872024 0.714501 0.674687
84 H 17.5368 20.4605 10.2757 0.235328 1.12122 -0.449851 0.803944
85 H 15.4104 8.55805 13.6105 -0.317085 -0.291729 0.0886311 0.166521
86 H 9.95905 6.26955 12.3111 1.49642 0.216743 0.885964 -0.0801821
87 H 10.4033 20.4022 13.1704 -0.160343 -0.162911 0.0363522 -0.537455
88 H 14.7418 7.17937 17.7894 -0.705942 0.520393 -0.61354 0.0735919
89 H 12.5142 1.4946 4.84415 -0.320277 0.529803 0.145196 0.636544
90 H 20.9166 5.92216 1.38669 0.624641 -0.955532 0.170019 0.0025251
91 H 1.04665 18.1893 10.6912 0.405113 0.0326168 0.398049 0.292084
92 H 7.26332 0.995398 18.1934 -0.952629 1.15179 0.109996 0.0874336
93 H 6.90962 2.11557 7.52588 -0.314873 0.270198 -0.69242 0.412091
94 H 13.6645 2.08259 15.412 -0.469308 -0.49436 -0.466651 -0.289838
95 H 12.8385 19.5565 11.2409 -1.35939 -0.595883 0.248029 0.0150273
96 H 17.5921 4.98671 5.67764 -1.44591 1.36047 1.1322 -0.122908
97 H 19.7146 13.2095 8.46498 0.0210868 -1.83648 -0.454543 1.11212
98 H 12.437 2.07236 8.98657 -0.0565893 0.392891 -0.584686 0.345826
99 H 2.46809 17.4298 2.64274 -0.273828 0.804619 0.797199 -0.616652
100 H 14.0994 11.6829 14.7304 0.735829 0.0197437 0.674302 0.538694
101 H 17.5075 16.6007 11.3013 0.523159 -0.87424 0.74788 1.34584
102 H 6.97103 16.706 13.01 0.157535 0.157053 0.218643 -0.039135
103 H 11.3554 14.2948 7.35327 0.961728 -0.995347 1.05559 0.0947883
104 H 16.0041 12.9763 18.9339 -0.450104 -0.0189419 0.0936839 0.0225501
105 H 13.7418 20.3331 12.8604 0.654558 0.519987 -0.0187555 -0.00677285
106 H 0.0309545 6.49042 5.08958 1.65389 -1.35123 0.158248 0.212976
107 H 17.1636 8.68907 9.61808 -1.90484 -0.644789 0.0603693 0.459787
108 H 1.19483 10.1838 13.1132 -0.263688 0.453535 -0.829225 0.396401
109 H 0.107548 17.6649 19.2322 0.132257 0.926184 0.177343 -0.140503
110 H 0.593379 7.89713 13.4006 -0.230752 0.723946 -1.43476 0.147462
111 H 11.7317 8.87449 3.09123 -0.285493 0.932022 -0.404017 -0.109431
112 H 6.36832 5.3926 18.1108 -0.232379 -0.654998 -0.471488 0.814122
113 H 8.33046 13.8653 10.8635 0.912674 -0.517962 -1.42609 0.197509
114 H 8.41428 11.0554 6.17269 0.816159 -1.58165 0.367229 0.848739
115 H 14.3258 17.8317 2.08473 -0.400243 -0.768785 0.703548 -0.306877
116 H 5.75874 16.8675 15.6057 0.0921339 -0.454613 0.923668 0.28521
117 H 20.2437 16.9034 4.17372 -0.256956 -0.560886 0.543694 0.381831
118 H 13.9447 16.7747 12.1066 -0.492572 -0.715118 0.143726 1.02812
119 H 11.572 10.5043 14.5626 -0.605957 -0.184438 -0.864253 0.786722
120 H 16.9615 3.81147 2.23093 0.397602 0.298181 -0.159681 -0.350496
121 H 8.0072 6.00536 12.6627 0.176138 0.0959918 -0.147746 -0.0699176
122 H 15.08 5.99806 15.9131 0.794008 -0.736587 -0.439534 -0.161638
123 H 7.9982 1.80241 15.8473 0.275299 -0.152732 0.201083 -0.0653592
124 H 3.00447 4.30042 10.6627 -0.593155 0.219429 0.150916 0.00174294
125 H 20.3 3.892 10.7062 0.79723 0.351897 -1.03739 -0.074076
126 H 17.1516 11.2853 6.71831 -0.0600056 -0.725892 0.0252017 0.838788
127 H 8.61694 12.4569 2.51881 0.328255 0.286757 -1.03422 1.40651
128 H 9.81246 11.5467 5.07672 0.679404 0.574414 -0.299006 -0.0814744
129 H 16.7693 11.0928 0.412453 1.16542 0.0721633 -0.379406 0.394373
130 H 13.8254 1.63399 10.8773 1.25505 0.250548 -1.06973 -0.221911
131 H 5.04599 19.8838 8.12753 -0.155743 1.46573 0.250449 1.79711
132 H 14.2271 8.65861 7.19936 0.198487 -0.144647 -0.420148 -0.198323
133 H 12.1941 7.71195 17.2852 0.790548 -0.374846 -0.141061 0.31903
134 H 15.4368 19.75 13.8585 0.463123 -1.00506 0.163642 0.462194
135 H 15.1963 11.0336 3.82503 -0.650411 -1.85731 0.406081 0.183179
136 H 12.8018 18.4936 8.20883 -0.650807 -0.00864396 0.294661 0.935693
137 H 7.03205 13.4481 18.4782 -0.624588 0.324344 0.00766402 -0.164219
138 H 5.13716 6.66279 19.9702 0.797496 -0.836683 -0.216731 0.450671
139 H 17.2007 13.1031 17.2755 0.024234 -0.452251 -0.188005 0.418866
140 H 1.4325 5.41139 12.3315 -0.812898 -0.562799 1.02267 -0.014136
141 H 7.77638 2.13956 19.6764 -0.687073 1.33855 -0.150389 0.798681
142 H 4.9444 12.4969 14.2737 0.166946 -0.0172005 0.763297 0.562215
143 H 8.25756 2.25892 4.10018 -0.980676 0.0212451 -0.284306 0.095799
144 H 3.23496 3.0966 15.4685 -0.269766 0.224262 -0.325329 0.258618
145 H 17.407 6.68595 0.352835 -0.723798 0.0520596 -0.465603 -0.254226
146 H 7.92047 17.5747 20.4408 -0.834808 -0.129527 -0.768159 -0.296363
147 H 0.566632 9.2537 3.2367 -0.0486708 -0.833645 0.0697929 0.819372
148 H 0.64225 17.6501 3.59509 -0.0662293 0.218362 -0.941018 -0.200522
149 H 15.597 9.35109 15.5933 0.456464 0.454931 -0.0590014 0.0815879
150 H 20.2879 16.856 14.7199 -0.3143 0.797244 0.263291 0.030563
151 H 14.9393 18.7756 7.41324 0.901362 3.77237 -1.6509 0.968505
152 H 11.0047 2.89484 10.0628 -0.109669 -0.165944 -0.433922 -0.0227849
153 H 19.5982 0.826409 3.42909 -0.591504 0.536105 -1.21796 -0.166772
154 H 5.24806 0.65339 2.09732 -0.856511 0.199907 0.52954 -0.161053
155 H 15.1294 16.048 4.54263 -0.123496 0.273004 -0.23156 0.397163
156 H 7.16046 20.6643 13.3647 -0.250991 0.53192 -0.0983392 -0.0804355
157 H 8.22188 9.50596 19.0593 -0.118247 -1.31881 0.177876 0.807082
158 H 2.83415 19.0277 5.58372 0.256876 -0.126507 0.333243 0.722576
159 H 2.68951 1.04863 2.45452 -0.501504 0.0713726 -0.296387 0.0997576
160 H 12.615 5.76084 10.672 -0.326158 -0.419521 -1.73305 0.426213
161 H 5.20814 4.55653 5.24106 -0.23981 1.07065 0.0165301 -0.148048
162 H 11.1624 8.35204 21.0083 0.924132 0.177846 -0.0315608 0.753945
163 H 19.1437 2.86871 9.56232 0.244758 -0.393028 -0.861161 0.189705
164 H 9.73486 17.5603 9.1783 -0.864337 -0.454524 0.0727045 0.808148
165 H 17.4794 17.3735 9.54206 -0.720263 -0.225121 1.71042 2.42601
166 H 14.9769 9.45546 17.7437 -0.252705 -0.466783 -0.141737 0.392961
167 H 2.1598 19.4558 18.9657 -1.07296 0.896623 -0.129875 -0.0418388
168 H 2.99758 18.2709 9.58008 -1.05437 -0.484547 0.68282 1.60798
169 H 6.17247 17.6267 11.5252 0.262628 -0.00938537 -0.524413 -0.244975
170 H 9.80318 17.2578 1.90803 0.366343 0.710739 -0.327707 0.0519361
171 H 8.82002 7.45758 8.18995 -0.0400498 0.220885 -0.645137 0.0852594
172 H 2.71605 13.4098 0.0537949 0.173581 0.119622 0.610793 0.142115
173 H 19.5049 12.1003 13.9855 -0.195504 0.35963 -1.5464 -0.27146
174 H 15.2549 14.2793 3.48111 -1.89095 1.18164 -0.920216 -0.136061
175 H 4.94268 8.10242 11.981 -0.744341 0.507961 -0.711503 0.055311
176 H 16.1925 16.3365 2.20248 -0.843176 0.128079 -1.01693 0.464221
177 H 20.2592 11.1175 19.3636 -0.431717 -0.34485 0.148393 0.0895149
178 H 4.98765 11.9611 9.29615 -0.536594 -1.08989 -0.180558 0.498707
179 H 17.1946 5.92041 16.7585 -0.968964 -0.351636 0.122753 0.088416
180 H 10.9859 19.6999 5.17761 0.463396 0.105873 -0.930927 0.886824
181 H 8.51498 15.8929 17.9093 -0.26085 -0.390003 1.36187 -0.373366
182 H 18.9797 20.4369 17.4407 -1.70121 0.887622 -0.0406897 -0.487805
183 H 6.894 19.9282 3.79752 0.330266 -1.3156 -0.685954 -0.063922
184 H 9.38598 7.17445 16.6423 -0.631206 -1.30883 0.0303221 0.174776
185 H 2.85527 14.1179 11.9397 0.788049 -0.299225 0.43137 0.946751
186 H 16.9608 8.06008 19.4761 0.0986909 0.0210682 0.421115 0.281165
187 H 11.0034 4.48612 11.3684 -0.393017 0.608405 -0.248256 -0.0883593
188 H 2.10904 7.12327 12.4962 0.696704 -0.320025 0.205043 -0.213183
189 H 9.57093 12.0481 8.49275 0.273631 0.174529 -0.191821 0.225516
190 H 19.3551 15.1094 4.80948 1.73208 0.336487 0.568416 0.45457
191 H 10.1685 12.9861 17.1248 -0.147485 0.584813 -1.22496 -0.118109
192 H 6.78123 21.0356 5.22607 0.0725119 0.0768867 -0.0676998 0.327183
193 H 2.48051 5.61085 4.44804 -0.756404 -0.505822 2.17365 0.399054
194 H 13.7958 18.6141 20.864 -0.00296255 -0.572248 -0.691293 0.12495
195 H 3.09579 7.22655 17.3642 0.391214 0.558618 -0.277515 0.313236
196 H 18.6801 17.9548 4.86104 -1.02506 -0.152903 0.0239468 0.122436
197 H 4.79675 19.6997 1.65715 -1.28756 0.218859 1.28423 -0.537876
198 H 18.8835 13.415 15.9642 -0.328088 0.443497 -0.349476 0.392117
199 H 12.6937 20.7487 16.2178 1.97086 0.234784 -1.89268 0.229432
200 H 8.23972 4.34366 5.67581 -0.739492 -0.888701 0.0563489 0.0930866
201 H 18.1137 16.5839 6.10333 -0.10939 1.0523 1.07668 1.18342
202 H 2.20952 16.5638 16.3777 -0.705541 -0.304331 -0.456015 -0.00608455
203 H 19.1523 5.90457 15.8701 -0.321071 -0.564002 0.728952 -0.0744246
204 H 6.95084 8.9882 5.29287 0.31209 -0.718247 -0.673564 0.630315
205 H 11.1272 5.62424 18.5551 -0.494481 0.298837 -0.188769 -0.0794458
206 H 11.1911 11.7169 9.68211 0.714098 0.130653 0.397034 -0.0654265
207 H 14.3718 5.81554 11.4308 0.30351 0.957191 1.23448 0.401906
208 H 0.263455 6.2019 14.3782 1.08468 -0.602521 -0.59863 -0.0586885
209 H 2.15059 8.20208 14.621 1.9183 0.0438208 -0.793529 -0.231158
210 H 4.27516 20.114 15.3528 0.481208 -0.040456 0.512087 0.826288
211 H 1.74977 3.80287 13.8478 -0.0064896 0.640238 1.51244 -0.278528
212 H 5.62263 19.5915 21.1548 -1.73443 -0.441294 -6.52216 -0.266378
213 H 19.9397 12.842 2.93672 -0.4614 1.03392 0.45316 0.393409
214 H 7.16558 10.938 20.205 2.158 3.97792 0.053147 0.373086
215 H 15.8284 2.77484 15.3121 -0.733519 1.35846 -0.635601 0.159113
216 H 19.0818 0.585579 1.39858 0.0270471 -0.850797 -0.244078 0.166703
217 H 16.5109 21.139 1.94423 0.858363 0.165933 0.241748 0.149886
218 H 6.0892 15.2952 7.8347 -0.994753 -0.274499 0.522685 0.0554668
219 H 0.621424 13.6631 0.135488 -0.31048 0.171976 0.571363 0.248525
220 H 11.9609 7.31018 15.4695 0.99958 -0.140019 -0.729503 -0.129606
221 H 8.67794 16.308 7.95879 -0.408776 -0.739359 0.971702 0.21613
222 H 19.2783 1.4165 10.9285 0.023229 0.592305 0.686989 -0.118622
223 H 3.24281 11.2246 5.75941 0.126473 1.03182 -0.884014 1.55295
224 H 8.29996 18.4858 1.64696 0.97125 -0.238086 0.905974 -0.258728
225 H 11.8498 8.34221 6.33495 -0.111457 -0.10716 0.283542 0.199401
226 H 14.5221 10.1523 13.575 -0.45055 0.0585231 -0.0867343 0.496379
227 H 11.9391 16.1824 13.7307 -0.154386 -0.0274212 -0.656033 0.712443
228 H 9.79629 10.5948 3.31729 -0.438134 -0.197818 0.0166721 0.341575
229 H 19.4962 0.242063 14.129 1.1028 0.126383 0.418932 -0.242128
230 H 20.8596 8.09781 16.7535 0.116511 0.53856 1.0792 0.162887
231 H 8.72668 2.19748 7.80255 0.061418 0.0223319 0.726834 -0.131122
232 H 4.17676 5.04339 20.5121 -0.0123745 0.0370869 0.61482 0.158436
233 H 4.29012 10.342 14.3144 -0.0648017 -0.161525 -0.674389 0.20802
234 H 14.5657 2.72077 18.1156 -3.21718 0.497993 -2.9895 -0.394456
235 H 1.89877 20.4095 7.67488 0.147768 -0.664503 0.44302 2.12609
236 H 13.9687 4.83457 16.8145 -0.253967 -0.410945 -0.304135 -0.446306
237 H 20.4611 15.3203 3.09129 -0.392142 -0.495975 -0.929359 0.15013
238 H 6.15386 12.9692 15.9644 -0.33091 0.535452 -0.618824 -0.0501458
239 H 14.0333 19.7113 1.41246 -0.378187 0.788363 -0.0882472 -0.193011
240 H 15.9598 15.1101 15.2078 0.753948 -0.100143 -0.313553 0.392148
241 H 5.98729 17.5748 5.11498 0.461455 0.0790693 -0.532144 0.475584
242 H 15.958 14.9683 13.3737 -0.268614 -0.278756 -0.0836248 1.46438
243 H 4.34456 6.88769 5.09589 -0.653325 -0.99828 1.32513 0.524522
244 H 15.1211 3.43933 11.1736 0.0225065 0.446211 -0.183331 -0.0270418
245 H 10.2197 15.0659 16.4783 -0.477383 -0.783302 0.203814 0.170995
246 H 12.0626 5.75577 6.33426 0.190808 0.140846 -0.273314 0.334695
247 H 0.634993 11.4032 6.9682 -0.494981 1.01222 0.383295 2.0631
248 H 4.50387 18.7838 18.7413 -0.687465 0.0883119 0.151297 0.486936
249 H 2.30224 14.5618 16.0991 0.518368 -0.568641 0.144315 0.496662
250 H 9.1403 1.52022 11.1535 -1.32941 -1.01981 0.222102 -0.495906
251 H 10.8243 8.29527 14.3666 0.718359 -0.139901 -0.547009 0.280578
252 H 12.3902 0.313242 10.3244 -1.93546 -0.429815 1.28522 -0.709202
253 H 9.8147 19.4276 18.4091 -1.26897 -0.88665 -2.2505 -0.0601673
254 H 8.08244 4.41877 3.80996 -0.707703 0.844696 -0.41634 -0.0897907
255 H 5.53359 6.44664 1.70582 -0.481067 0.00989512 0.270128 0.321349
256 H 8.59808 14.2226 13.8975 0.425521 -1.01869 -0.484603 0.315322
257 H 11.308 19.1968 15.9727 -0.716377 -0.184923 -0.23733 -0.0352856
258 H 9.84542 20.8152 9.11657 0.912033 0.390718 -0.323651 0.16945
259 H 17.3983 1.36681 12.9113 0.702178 0.115499 0.0995625 0.491378
260 H 16.8824 20.0758 15.6372 -0.0212896 0.913311 0.661192 0.100852
261 H 15.8713 19.73 17.4889 -0.24563 1.01812 0.652932 -0.182994
262 H 11.189 17.9739 3.93319 0.0625119 0.263089 0.0963275 -0.211039
263 H 12.2084 4.72209 2.50499 0.555762 0.3708 0.391075 1.15383
264 H 18.6833 11.9165 5.25698 1.60903 -0.56047 0.296939 1.5668
265 H 6.9855 10.3726 1.86235 0.786957 -0.604876 0.474211 0.276185
266 H 8.33058 5.47097 19.0596 0.710609 -0.324867 -0.527098 1.67079
267 H 5.50759 3.77515 19.9177 1.07817 0.310307 -0.258893 -0.343025
268 H 18.0592 9.82572 1.50224 -1.14711 0.048687 0.165527 1.47097
269 H 3.89486 15.1548 8.17676 -0.688271 -0.0810617 0.623003 -0.047478
270 H 17.1987 0.400233 3.83388 0.148048 0.556626 -0.0925591 0.632422
271 H 16.5853 15.3255 7.96874 2.53617 -4.84047 1.97948 1.34532
272 H 5.15173 12.8433 2.68442 1.1872 3.34028 2.5916 2.80882
273 H 15.2107 11.194 1.31256 -2.11598 -4.13105 0.385747 -0.019222
274 H 14.1512 1.06131 13.4479 -1.80173 0.1639 0.413635 0.715934
275 H 3.94564 0.592624 8.70357 -0.0881007 -0.178846 0.67361 0.88231
276 H 15.1679 14.1077 8.47915 0.663626 -1.0074 0.892547 0.274025
277 H 11.4015 6.77488 20.1683 -0.94558 0.0876426 -0.931956 0.420372
278 H 17.0646 7.89859 1.88304 -0.45012 -0.0310927 -0.612222 0.565477
279 H 16.3531 17.9712 14.9057 1.10035 0.0746831 -0.551202 0.201635
280 H 16.5561 16.4698 16.2659 -0.543079 -0.405546 0.830079 -0.031984
281 H 11.6628 14.5933 9.22811 -0.00623481 -1.1716 -0.093482 0.0655572
282 H 19.0113 14.6014 1.35921 1.41153 -0.157425 -0.00639906 0.0848846
283 H 0.691775 5.44423 8.6429 0.280916 -2.01156 1.63543 0.842121
284 H 15.8825 20.4616 4.97077 0.427734 -0.945219 0.00612494 0.62598
285 H 13.275 3.34811 12.0315 0.168286 0.787828 -0.637872 -0.479295
286 H 7.33364 6.68838 1.20972 0.117501 0.0760918 0.90295 -0.096444
287 H 6.09313 15.1484 16.721 0.368263 -0.384236 0.268927 -0.0392109
288 H 9.28838 21.1321 16.3719 -2.34724 1.30553 -0.246955 0.423486
289 H 14.5443 14.0422 18.0551 -0.629134 -0.787882 0.569831 0.0427413
290 H 0.0636644 19.5046 20.023 0.46805 0.162504 -0.602511 0.300244
291 H 13.5522 19.282 5.52799 0.825557 2.29995 -0.85515 0.63903
292 H 16.9463 18.5239 6.79226 1.09549 1.81516 -1.35491 0.573661
293 H 10.5691 5.49478 15.4844 0.239794 -0.626094 0.458518 -0.353595
294 H 1.00704 1.91818 3.78809 -0.836839 0.78488 -0.531409 0.492444
295 H 18.5203 3.28032 7.37188 -0.52268 0.739097 0.283934 0.23077
296 H 18.4545 11.6748 20.3017 -0.31824 0.339142 -0.249048 0.313003
297 H 5.92353 13.2433 20.8178 -0.0762028 0.889446 -1.25276 0.12233
298 H 2.87056 1.20101 15.6999 0.142214 -0.185529 0.368021 -0.00412037
299 H 17.9639 14.1952 12.0515 0.512901 0.951051 -0.670002 0.52291
300 H 13.7101 2.4837 7.41078 -0.158344 0.110119 -0.256959 0.138105
301 H 5.05184 0.666168 21.0036 0.581321 1.33138 -0.800777 0.039977
302 H 8.28738 1.27512 5.68461 -0.17963 0.242327 0.599252 0.566039
303 H 13.3488 14.1331 15.9016 -0.080077 -0.792597 0.364153 0.470036
304 H 1.96722 11.3897 17.0792 0.761328 -0.0545885 -0.908568 -0.0211774
305 H 13.9609 13.6658 7.1905 -0.33355 -0.600632 -0.0686785 0.346513
306 H 12.1439 0.694019 1.57134 -1.30488 -0.33937 -0.00759564 0.706736
307 H 14.1098 12.2382 11.1833 0.0728183 -0.0999952 0.35726 0.0797325
308 H 14.431 5.50328 1.79284 -0.185909 0.332756 0.48984 0.290101
309 H 10.3084 11.8002 12.8608 -0.255526 -0.212768 0.496131 0.106371
310 H 17.0826 4.13034 18.3673 0.119845 0.58049 0.00209234 -0.258386
311 H 5.22059 19.4167 12.6411 -1.39422 -0.50402 0.0807766 -0.454624
312 H 12.408 18.7186 1.30487 -0.344883 -0.811029 -0.472539 0.261018
313 H 18.5265 19.5741 0.543233 -0.275041 0.66548 0.38628 0.711984
314 H 20.0485 19.6913 7.71002 -0.611483 -0.702593 1.94252 1.59357
315 H 18.6211 19.9183 15.0978 0.447856 -1.57502 -0.70545 0.27143
316 H 6.91195 4.77362 0.538131 0.347992 -0.824547 0.762852 0.248616
317 H 21.0698 1.34278 9.44791 0.0798437 0.199153 0.528621 -0.00100202
318 H 20.319 10.3375 12.5666 -0.581279 1.14753 0.362517 1.14839
319 H 4.649 4.00565 16.168 -0.0192534 -0.000322329 1.36833 -0.334248
320 H 18.92 9.74709 19.3195 -0.646055 -0.0358642 0.861106 0.157439
321 H 15.2702 18.7495 19.0243 0.0145737 -0.316241 0.865035 -0.0801397
322 H 20.8914 7.82034 10.0304 -1.24608 -0.89595 0.668584 2.00309
323 H 20.7046 1.85688 4.8973 -0.211541 3.01762 -1.60264 0.533962
324 H 7.44967 3.96927 7.71267 0.244463 0.819916 0.216965 0.36241
325 H 2.23115 20.1058 1.76744 -0.497402 -0.630961 0.136002 -0.184123
326 H 7.40217 19.7569 9.69857 -0.351605 2.06102 0.694659 0.385638
327 H 14.3605 18.231 17.0016 -1.93132 -0.518762 0.00331867 -0.385804
328 H 11.6187 7.12323 8.36275 0.132563 -0.73559 0.549524 0.161202
329 H 18.4968 7.79026 16.0176 -0.462059 -0.125646 -0.526644 -0.144452
330 H 8.55596 5.38185 14.3947 0.369871 0.694501 0.412303 -0.0311935
331 H 17.8759 6.5327 12.4724 0.307031 0.131746 -1.46515 0.842404
332 H 18.6327 3.78075 13.8188 0.263863 0.272791 0.537248 0.798484
333 H 6.11581 20.7125 16.6658 -1.09543 0.0580911 -0.0965757 -0.143333
334 H 1.83705 6.80484 2.94295 -1.18796 0.345409 0.120385 -0.13525
335 H 15.2676 0.574671 6.71999 0.422301 -0.225573 -0.382953 0.658855
336 H 16.4438 4.32393 14.4086 0.340214 -0.0177308 0.768193 0.458541
337 H 5.05855 3.88559 13.4009 -0.520121 -0.361911 0.7775 0.21802
338 H 7.84938 13.4088 16.8534 0.999563 -0.675151 -0.986861 -0.11809
339 H 1.64375 7.87637 16.4584 -0.788747 -0.282396 1.45853 0.237155
340 H 16.12 13.0852 14.9317 0.123922 0.0449308 1.16089 1.14118
341 H 11.0629 20.5455 17.5336 -9.5 -1.93174 0.0696717 -0.221429
342 H 3.78887 16.337 12.0055 0.539441 0.0479171 -0.3818 0.204529
343 H 3.97978 3.00472 5.82569 0.0320834 0.284047 0.151389 0.35345
344 H 17.4663 18.3644 20.0879 -0.350088 0.230626 0.373669 0.0962771
345 H 4.21718 13.7924 9.39921 0.92314 -0.245523 -0.0234468 1.09955
346 H 11.1233 2.92571 0.1771 -0.517751 -0.30738 -0.427032 0.174616
347 H 17.6197 13.6633 20.1221 0.049567 0.138787 -0.246786 0.634532
348 H 1.44177 12.0533 13.332 -0.301158 0.804983 0.000828408 -0.099346
349 H 18.7989 3.49402 19.077 0.350801 0.00156852 -0.0263374 0.0803949
350 H 16.3727 6.18548 2.92098 -0.204728 0.245016 -0.638293 0.39027
351 H 2.70954 2.1636 20.0448 -0.583886 -0.241911 0.530287 0.48238
352 H 10.5168 13.6143 13.1942 0.781978 0.308512 -0.527422 -0.044924
353 H 17.9002 4.66982 20.7608 0.875413 -0.226534 -0.340901 -0.123657
354 H 19.5246 6.61793 8.25386 0.424471 -3.69674 1.33117 1.68476
355 H 1.48266 8.80298 18.8798 -0.444859 0.561497 -0.512122 -0.207459
356 H 8.89287 3.7812 1.78838 -0.331358 0.038696 -0.987713 -0.0488777
357 H 15.5734 10.8355 8.5255 0.0703999 0.113327 0.652384 0.110512
358 H 2.40784 3.06343 4.84019 -0.733677 1.19078 0.237701 0.156948
359 H 12.13 10.5266 7.94182 -0.88445 0.417528 -0.0323522 0.00635942
360 H 16.1559 8.24102 6.53493 -0.506983 -0.0616191 -0.439332 0.107
361 H 3.50545 15.148 20.9195 0.433067 -0.335173 0.22011 0.134896
362 H 2.51224 4.00082 1.09074 0.934058 0.346759 -1.02105 0.12078
363 H 8.87968 7.35104 10.1062 -0.126587 -0.542387 -0.287038 -0.213847
364 H 7.7233 1.3796 9.57325 -0.126417 -0.173131 1.38577 -0.186678
365 H 19.363 1.93787 15.673 0.546304 -0.0777118 0.231645 -0.0150092
366 H 10.5182 8.06435 1.7382 1.07485 0.88738 0.0656907 -0.098897
367 H 14.1633 15.8665 17.9115 0.998798 -0.33827 0.375431 -0.118549
368 H 6.62508 9.43189 8.67182 -0.345689 0.0333973 0.555738 0.502946
369 H 7.99621 11.2739 7.94878 -0.0263398 -1.18613 0.315267 0.610367
370 H 8.22671 10.1555 0.496532 1.6226 -0.363025 0.833895 0.42989
371 H 18.1354 20.1069 8.24058 -0.12322 0.483992 -0.250651 0.633015
372 H 0.225232 13.7937 15.7408 0.333862 -0.801996 -0.618304 0.587036
373 H 11.7341 15.8607 11.5734 -0.443664 -1.04091 0.489131 -0.0311979
374 H 13.1699 9.55109 20.8501 1.07308 0.503 -0.696646 0.896639
375 H 20.2926 3.59453 20.7858 -0.607196 0.0456637 0.97131 0.214224
376 H 7.57368 8.6696 13.4708 0.0319919 -0.632044 0.182153 0.0191012
377 H 0.935858 17.4985 7.26901 0.886781 -0.415177 -0.186166 0.47401
378 H 18.918 8.9691 17.559 -0.595661 -0.263892 0.952148 0.138013
379 H 1.31342 1.22539 10.8627 0.625679 -0.865469 -1.36106 -0.318257
380 H 3.89662 2.2443 11.2375 -0.418028 0.823751 0.431674 -0.484483
381 H 1.15227 4.6933 6.21843 2.65408 1.10647 -0.454527 0.342257
382 H 18.9647 21.0546 12.2622 0.34412 -0.769337 -1.13492 -0.284821
383 H 15.4945 19.1239 3.64614 -0.397618 0.0269031 -0.294275 1.14223
384 H 16.3508 7.04956 4.50678 -0.648778 1.04789 -0.791148 -0.0449959
385 H 11.8211 11.2269 3.45183 0.89363 -0.072422 -0.10544 -0.402943
386 H 9.07183 19.0507 13 -0.111996 -0.944308 0.878497 -0.144132
387 H 7.95064 15.5491 11.8455 1.47068 0.795169 0.00660442 0.191563
388 H 13.479 7.34357 10.7652 0.0771689 0.247557 -0.00235556 0.020707
389 H 9.35845 19.6387 3.62463 -0.289251 -1.22423 0.29045 0.118963
390 H 13.188 17.745 14.8194 0.265398 -0.108475 -0.182667 0.219198
391 H 12.2487 10.3551 18.3418 1.91153 -0.177221 -0.171347 0.358474
392 H 17.7916 1.49029 18.7922 0.348423 -0.540435 0.566886 -0.0576953
393 H 19.9481 3.64497 4.29065 0.391113 -0.36698 -0.318736 0.0907158
394 H 1.82136 17.1589 18.1325 0.717869 -0.667419 0.641532 -0.131355
395 H 14.105 4.41268 3.24913 0.998046 0.160979 -0.46644 0.779379
396 H 12.9295 1.66178 19.8386 -0.576855 -0.534331 0.184831 -0.163525
397 H 9.51109 4.57306 7.54599 -0.145032 0.0628298 -0.408427 0.135739
398 H 5.70967 8.52394 13.7441 -0.625188 -0.574543 -0.0759811 0.236468
399 H 2.02011 12.275 3.63224 0.503214 -0.187403 0.318395 2.16256
400 H 11.717 19.1274 20.7773 -0.06394 -0.495934 -0.416791 -0.02497
401 H 20.409 18.7525 13.2704 0.274945 -0.210895 -0.907083 -0.159591
402 H 11.724 1.20889 16.3614 -0.136038 3.63189 -1.10404 -0.133403
403 H 3.6036 4.2899 3.9131 -0.153983 0.0602813 0.986737 0.254891
404 H 18.5904 12.9773 10.3477 0.135778 0.0157487 0.521968 0.934903
405 H 5.39728 2.7544 2.25443 -0.654265 0.482142 0.268799 0.102051
406 H 1.51471 16.7241 5.51416 -0.00531588 -0.56638 0.307904 0.354751
407 H 10.0595 11.0208 0.994619 0.177625 0.771631 -0.286912 0.354708
408 H 3.9404 7.32461 15.4188 0.731317 0.0104071 0.689737 -0.0378538
409 H 3.33512 10.0039 12.2016 0.806798 0.126059 0.721776 -0.0918286
410 H 1.28928 4.53627 10.124 0.138076 -0.454831 -0.540791 0.0862375
411 H 4.72873 9.24478 18.4968 -1.12759 -0.546033 -0.241783 0.335066
412 H 20.1707 13.7428 6.25328 0.62375 -1.11796 0.557254 1.06685
413 H 7.41782 18.8336 15.5899 0.196522 0.0466073 0.41327 -0.299283
414 H 20.0318 7.30188 13.6773 0.317311 -0.114221 -0.646658 0.0183194
415 H 14.7337 5.40896 13.5658 0.624572 -0.515515 -0.722133 0.250032
416 H 18.7036 17.2834 1.03763 0.185211 0.603956 -0.541021 0.556703
417 H 5.72635 9.28193 10.3415 0.186074 -0.33341 0.538381 0.0694834
418 H 11.6188 20.4648 8.60801 -1.04999 0.746738 0.0711516 0.330751
419 H 3.95162 6.12315 3.49313 0.807687 0.264394 -1.10262 0.113438
420 H 16.7181 3.40767 4.77232 0.0394276 -0.77408 -0.226578 0.184467
421 H 3.81405 4.66551 14.446 -0.590258 1.00471 -0.593433 0.309004
422 H 10.837 16.0178 20.1614 0.186233 -0.170564 0.655126 0.220697
423 H 18.6216 4.96282 3.73719 -0.154213 -0.687911 -0.286756 0.00989963
424 H 20.5489 7.26858 3.38562 0.234769 -0.595994 -0.057109 0.454376
425 H 20.1061 4.34457 15.5934 0.368786 -1.16946 -0.460476 0.14644
426 H 18.4249 6.95708 10.2874 0.468756 -1.74845 0.105888 0.368119
427 H 19.4854 13.2384 20.8474 0.946643 -0.360629 -0.523483 -0.0224407
428 H 17.9589 18.8126 16.375 1.32186 -0.559612 -0.540886 -0.00835516
429 H 20.4217 11.3645 4.04571 0.441939 0.0282965 1.50366 1.13682
430 H 2.03478 16.8634 11.7893 -0.339206 -0.102146 0.540558 0.0907232
431 H 6.5343 7.10427 11.3146 0.251071 0.527706 -0.2097 -0.0381593
432 H 1.45074 6.12318 0.459045 -0.597755 -1.41725 0.843169 0.943874
433 H 9.78622 3.9611 17.9733 0.408927 0.275662 -0.392373 0.0648682
434 H 1.01444 19.9599 11.0402 -0.586415 0.439343 1.00868 -0.254978
435 H 2.48011 18.4516 16.9844 -0.847199 -0.112251 -1.48122 0.102606
436 H 11.2502 1.33639 12.3564 -0.0444227 0.27708 -0.198173 -1.0666
437 H 3.06575 16.3544 6.459 -0.517177 0.308503 0.695735 0.256937
438 H 19.2375 6.62339 5.86331 -0.0361647 -4.27507 -1.41526 1.33615
439 H 1.51404 14.9143 19.7923 -0.146406 0.358955 0.0571428 0.220694
440 H 7.11154 13.8098 8.27062 0.462311 0.598773 0.673588 0.401493
441 H 14.1847 11.9188 17.3855 -0.0300127 0.189912 0.190633 0.876121
442 H 9.27264 10.3417 9.73775 0.529486 0.0101065 -0.506428 0.120882
443 H 7.31149 21.008 0.679608 0.441081 1.10854 0.561638 -0.140843
444 H 17.4819 11.0813 16.1609 -0.904568 -0.393864 -0.0879275 -0.087655