 vasp.6.5.0 16Dec24 (build Jan 20 2025 08:32:48) complex                         
 executed on        HPECrayEX_GCC date 2025.07.21  16:58:22
 running  128 mpi-ranks, with    1 threads/rank, on    1 nodes
 distrk:  each k-point on  128 cores,    1 groups
 distr:  one band on NCORE=  16 cores,    8 groups


--------------------------------------------------------------------------------------------------------


 INCAR:
   SYSTEM = a-Si SPC
   NCORE = 16
   ISTART = 1
   ICHARG = 1
   ISPIN = 1
   ISYM = 1
   EDIFF = 1E-6
   NELM = 150
   EDIFFG = -0.01
   NSW = 0
   ISIF = 2
   IBRION = -1
   PREC = Accurate
   ENCUT = 1200
   KSPACING = 0.23
   KGAMMA = .TRUE.
   METAGGA = SCAN
   LASPH = .TRUE.
   LDIAG = .FALSE.
   LMIXTAU = .TRUE.
   ADDGRID = .TRUE.
   ALGO = Normal
   ISMEAR = 0
   SIGMA = 0.1
   LORBIT = 11
   NEDOS = 2000
   LWAVE = .FALSE.
   LCHARG = .FALSE.

 POTCAR:    PAW_PBE H 15Jun2001                   
 POTCAR:    PAW_PBE Si 05Jan2001                  
 POTCAR:    PAW_PBE H 15Jun2001                   
   SHA256 =  030f79b5d3ab3cf0e668861823c8fb652ff669f3e15e46930bd03bfd63a607b6 H/POTCAR              
   COPYR  = (c) Copyright 15Jun2001 Georg Kresse                                                    
   COPYR  = This file is part of the software VASP. Any use, copying, and all other rights are regul
   COPYR  = If you do not have a valid VASP license, you may not use, copy or distribute this file. 
   VRHFIN =H: ultrasoft test                                                                        
   LEXCH  = PE                                                                                      
   EATOM  =    12.4884 eV,    0.9179 Ry                                                             
                                                                                                    
   TITEL  = PAW_PBE H 15Jun2001                                                                     
   LULTRA =        F    use ultrasoft PP ?                                                          
   IUNSCR =        0    unscreen: 0-lin 1-nonlin 2-no                                               
   RPACOR =    0.000    partial core radius                                                         
   POMASS =    1.000; ZVAL   =    1.000    mass and valenz                                          
   RCORE  =    1.100    outmost cutoff radius                                                       
   RWIGS  =    0.700; RWIGS  =    0.370    wigner-seitz radius (au A)                               
   ENMAX  =  250.000; ENMIN  =  200.000 eV                                                          
   RCLOC  =    0.701    cutoff for local pot                                                        
   LCOR   =        T    correct aug charges                                                         
   LPAW   =        T    paw PP                                                                      
   EAUG   =  400.000                                                                                
   RMAX   =    1.123    core radius for proj-oper                                                   
   RAUG   =    1.200    factor for augmentation sphere                                              
   RDEP   =    1.112    radius for radial grids                                                     
   RDEPT  =    0.926    core radius for aug-charge                                                  
                                                                                                    
   Atomic configuration                                                                             
    2 entries                                                                                       
     n  l   j            E        occ.                                                              
     1  0  0.50        -6.4927   1.0000                                                             
     2  1  0.50        -3.4015   0.0000                                                             
   Description                                                                                      
     l       E           TYP  RCUT    TYP  RCUT                                                     
     0     -6.4927494     23  1.100                                                                 
     0      6.8029130     23  1.100                                                                 
     1     -4.0817478     23  1.100                                                                 
  local pseudopotential read in
  atomic valenz-charges read in
  non local Contribution for L=           0  read in
    real space projection operators read in
  non local Contribution for L=           0  read in
    real space projection operators read in
  non local Contribution for L=           1  read in
    real space projection operators read in
    PAW grid and wavefunctions read in

   number of l-projection  operators is LMAX  =           3
   number of lm-projection operators is LMMAX =           5

 POTCAR:    PAW_PBE Si 05Jan2001                  
   SHA256 =  79d9987ad8750f624c4d6acb2a16d13abf6a777132adc04dc6c8399be72b42bb Si/POTCAR             
   COPYR  = (c) Copyright 05Jan2001 Georg Kresse                                                    
   COPYR  = This file is part of the software VASP. Any use, copying, and all other rights are regul
   COPYR  = If you do not have a valid VASP license, you may not use, copy or distribute this file. 
   VRHFIN =Si: s2p2                                                                                 
   LEXCH  = PE                                                                                      
   EATOM  =   103.0669 eV,    7.5752 Ry                                                             
                                                                                                    
   TITEL  = PAW_PBE Si 05Jan2001                                                                    
   LULTRA =        F    use ultrasoft PP ?                                                          
   IUNSCR =        1    unscreen: 0-lin 1-nonlin 2-no                                               
   RPACOR =    1.500    partial core radius                                                         
   POMASS =   28.085; ZVAL   =    4.000    mass and valenz                                          
   RCORE  =    1.900    outmost cutoff radius                                                       
   RWIGS  =    2.480; RWIGS  =    1.312    wigner-seitz radius (au A)                               
   ENMAX  =  245.345; ENMIN  =  184.009 eV                                                          
   ICORE  =        2    local potential                                                             
   LCOR   =        T    correct aug charges                                                         
   LPAW   =        T    paw PP                                                                      
   EAUG   =  322.069                                                                                
   DEXC   =    0.000                                                                                
   RMAX   =    1.950    core radius for proj-oper                                                   
   RAUG   =    1.300    factor for augmentation sphere                                              
   RDEP   =    1.993    radius for radial grids                                                     
   RDEPT  =    1.837    core radius for aug-charge                                                  
                                                                                                    
   Atomic configuration                                                                             
    6 entries                                                                                       
     n  l   j            E        occ.                                                              
     1  0  0.50     -1785.8828   2.0000                                                             
     2  0  0.50      -139.4969   2.0000                                                             
     2  1  1.50       -95.5546   6.0000                                                             
     3  0  0.50       -10.8127   2.0000                                                             
     3  1  0.50        -4.0811   2.0000                                                             
     3  2  1.50        -4.0817   0.0000                                                             
   Description                                                                                      
     l       E           TYP  RCUT    TYP  RCUT                                                     
     0    -10.8127223     23  1.900                                                                 
     0     -7.6451159     23  1.900                                                                 
     1     -4.0811372     23  1.900                                                                 
     1      2.4879257     23  1.900                                                                 
     2     -4.0817478      7  1.900                                                                 
  local pseudopotential read in
  partial core-charges read in
  partial kinetic energy density read in
  atomic valenz-charges read in
  non local Contribution for L=           0  read in
    real space projection operators read in
  non local Contribution for L=           0  read in
    real space projection operators read in
  non local Contribution for L=           1  read in
    real space projection operators read in
  non local Contribution for L=           1  read in
    real space projection operators read in
    PAW grid and wavefunctions read in

   number of l-projection  operators is LMAX  =           4
   number of lm-projection operators is LMMAX =           8

 -----------------------------------------------------------------------------
|                                                                             |
|               ----> ADVICE to this user running VASP <----                  |
|                                                                             |
|     You have a (more or less) 'large supercell' and for larger cells it     |
|     might be more efficient to use real-space projection operators.         |
|     Therefore, try LREAL= Auto in the INCAR file.                           |
|     Mind: For very accurate calculation, you might also keep the            |
|     reciprocal projection scheme (i.e. LREAL=.FALSE.).                      |
|                                                                             |
 -----------------------------------------------------------------------------

 -----------------------------------------------------------------------------
|                                                                             |
|               ----> ADVICE to this user running VASP <----                  |
|                                                                             |
|     You enforced a specific xc type in the INCAR file but a different       |
|     type was found in the POTCAR file.                                      |
|     I HOPE YOU KNOW WHAT YOU ARE DOING!                                     |
|                                                                             |
 -----------------------------------------------------------------------------

  PAW_PBE H 15Jun2001                   :
 energy of atom  1       EATOM=  -12.4884
 kinetic energy error for atom=    0.0000 (will be added to EATOM!!)
  PAW_PBE Si 05Jan2001                  :
 energy of atom  2       EATOM= -103.0669
 kinetic energy error for atom=    0.0001 (will be added to EATOM!!)


 POSCAR:  H Si
  positions in cartesian coordinates
  No initial velocities read in


 exchange-correlation table for SCAN
   RHO(1)=    0.500       N(1)  =     2000
   RHO(2)=  100.500       N(2)  =     4000



--------------------------------------------------------------------------------------------------------


 ion  position               nearest neighbor table
   1  0.364  0.253  0.447-  77 1.49
   2  0.104  0.631  0.471-  35 1.45
   3  0.102  0.328  0.509-  53 1.49
   4  0.049  0.457  0.548-  64 1.43
   5  0.042  0.465  0.477-  57 1.47
   6  0.309  0.826  0.406-  12 0.75
   7  0.217  0.670  0.348-  28 0.79
   8  0.370  0.742  0.599-  21 0.72
   9  0.476  0.672  0.428-  73 1.61
  10  0.198  0.682  0.537-  35 1.48
  11  0.443  0.836  0.405-  73 1.50
  12  0.261  0.841  0.412-   6 0.75
  13  0.134  0.730  0.417-  94 1.42
  14  0.309  0.689  0.454-  70 1.44
  15  0.337  0.684  0.533-  70 1.47
  16  0.327  0.570  0.460- 101 1.52
  17  0.229  0.705  0.598-  50 1.48
  18  0.179  0.540  0.575-  25 0.70
  19  0.192  0.567  0.422-  20 0.73
  20  0.216  0.610  0.418-  19 0.73
  21  0.363  0.790  0.603-   8 0.72
  22  0.225  0.483  0.505-  30 0.70
  23  0.309  0.623  0.590-  86 1.44
  24  0.455  0.187  0.371-  39 1.48
  25  0.192  0.534  0.598-  18 0.70
  26  0.325  0.584  0.368-  99 1.53
  27  0.991  0.647  0.361-  95 1.62
  28  0.247  0.703  0.363-   7 0.79
  29  0.056  0.597  0.539-  35 1.43
  30  0.186  0.512  0.504-  22 0.70
  31  0.666  0.798  0.403- 115 2.25 111 2.28  73 2.34  63 2.47
  32  0.191  0.127  0.402-  88 2.28 118 2.32 113 2.46
  33  0.848  0.015  0.649-  78 2.29  59 2.38
  34  0.904  0.733  0.446-  63 2.24  80 2.37  40 2.38  89 2.41
  35  0.106  0.669  0.517-  29 1.43   2 1.45  10 1.48  89 2.32
  36  0.769  0.305  0.399- 108 2.24  98 2.32  92 2.38 107 2.51
  37  0.462  0.030  0.534- 105 2.21  82 2.33  76 2.34 106 2.35
  38  0.915  0.808  0.572-  78 2.23  68 2.23  93 2.31  89 2.32 122 3.11
  39  0.458  0.106  0.402-  24 1.48  72 2.33 118 2.34  83 2.40
  40  0.957  0.813  0.380-  94 2.19  34 2.38  91 2.41
  41  0.737  0.420  0.537- 117 2.23  43 2.30  42 2.32  62 2.33
  42  0.812  0.560  0.534-  96 2.29  80 2.30  41 2.32  46 2.34
  43  0.833  0.300  0.520-  56 2.21  79 2.28  41 2.30  92 2.32
  44  0.563  0.466  0.631- 124 2.31 117 2.32  52 2.34  86 3.12
  45  0.464  0.188  0.634-  52 2.28 100 2.36  81 2.38
  46  0.900  0.561  0.601-  93 2.28  64 2.31  42 2.34
  47  0.786  0.036  0.391-  61 2.20  91 2.31 111 2.33 107 2.46
  48  0.584  0.711  0.622- 124 2.37 112 2.38
  49  0.712  0.257  0.628- 110 2.24  74 2.34 117 2.41
  50  0.194  0.771  0.632-  17 1.48  51 2.37
  51  0.198  0.905  0.586- 114 2.24 120 2.35 121 2.35  50 2.37
  52  0.478  0.336  0.609-  45 2.28 109 2.31  44 2.34  66 2.44
  53  0.094  0.263  0.548-   3 1.49  71 2.27  79 2.36  58 2.45
  54  0.736  0.550  0.412-  80 2.27 123 2.37 108 2.38 115 2.40
  55  0.011  0.262  0.411-  88 2.37 113 2.38  92 2.39
  56  0.799  0.152  0.518-  43 2.21 103 2.27  74 2.29  61 2.44
  57  0.974  0.474  0.440-   5 1.47  92 2.26  95 2.31  80 2.34
  58  0.186  0.326  0.611-  69 2.31  65 2.36  66 2.39  53 2.45
  59  0.709  0.033  0.608- 100 2.31  74 2.32  33 2.38 119 2.40
  60  0.579  0.651  0.513-  96 2.21  84 2.36 124 2.42 123 2.45
  61  0.721  0.067  0.457-  47 2.20  90 2.30  72 2.31  56 2.44 103 3.13
  62  0.609  0.394  0.491-  41 2.33 109 2.37  98 2.40 123 2.42
  63  0.768  0.786  0.470-  34 2.24  90 2.34  96 2.37  31 2.47
  64  0.004  0.444  0.591-   4 1.43  69 2.22  46 2.31  79 2.34
  65  0.206  0.192  0.655-  97 2.23  81 2.29  58 2.36
  66  0.327  0.406  0.600-  86 2.39  58 2.39  52 2.44 116 2.46
  67  0.099  0.894  0.472- 120 2.28  89 2.30  94 2.37  87 2.40
  68  0.763  0.799  0.579-  38 2.23  96 2.24 122 2.30 119 2.32  90 3.14
  69  0.090  0.420  0.653-  64 2.22  58 2.31
  70  0.336  0.744  0.493-  14 1.44  15 1.47  84 2.38 120 2.46
  71  0.107  0.109  0.538- 121 2.27  53 2.27  87 2.27  85 2.41
  72  0.580  0.139  0.451-  76 2.26  98 2.26  61 2.31  39 2.33
  73  0.511  0.760  0.399-  11 1.50   9 1.61  31 2.34  84 3.14
  74  0.675  0.164  0.565-  56 2.29  59 2.32  49 2.34  76 2.45 100 3.01
  75  0.247  0.390  0.388-  88 2.30 101 2.41
  76  0.531  0.174  0.522- 109 2.24  72 2.26  37 2.34  74 2.45
  77  0.290  0.252  0.482-   1 1.49  85 2.22  88 2.42 116 2.46
  78  0.930  0.957  0.588-  38 2.23 121 2.25  33 2.29 103 2.30
  79  0.944  0.298  0.574- 110 2.25  43 2.28  64 2.34  53 2.36
  80  0.858  0.580  0.459-  54 2.27  42 2.30  57 2.34  34 2.37
  81  0.317  0.145  0.605-  85 2.28  65 2.29 114 2.32  45 2.38
  82  0.553  0.928  0.493-  84 2.27  37 2.33 119 2.45 112 2.83  90 3.13
  83  0.542  0.022  0.345- 111 2.38  39 2.40
  84  0.491  0.787  0.506-  82 2.27 112 2.28  60 2.36  70 2.38  73 3.14
  85  0.269  0.136  0.530-  77 2.22 105 2.26  81 2.28  71 2.41
  86  0.376  0.562  0.610-  23 1.44 124 2.26  66 2.39  44 3.12
  87  0.027  0.041  0.480- 113 2.27  71 2.27 103 2.32  67 2.40
  88  0.170  0.275  0.426-  32 2.28  75 2.30  55 2.37  77 2.42
  89  0.004  0.789  0.507-  67 2.30  35 2.32  38 2.32  34 2.41
  90  0.767  0.938  0.497-  61 2.30 103 2.30  63 2.34 119 2.36  82 3.13  68 3.14
  91  0.931  0.977  0.380-  47 2.31 113 2.39  40 2.41
  92  0.892  0.345  0.449-  57 2.26  43 2.32  36 2.38  55 2.39
  93  0.927  0.703  0.631-  46 2.28  38 2.31 122 2.44
  94  0.102  0.817  0.401-  13 1.42  40 2.19  67 2.37
  95  0.016  0.540  0.371-  27 1.62  57 2.31
  96  0.722  0.688  0.531-  60 2.21  68 2.24  42 2.29  63 2.37
  97  0.078  0.107  0.655-  65 2.23 121 2.28
  98  0.624  0.282  0.431-  72 2.26  36 2.32  62 2.40 102 2.46
  99  0.417  0.556  0.347-  26 1.53 104 2.37
 100  0.562  0.059  0.634- 106 2.29  59 2.31  45 2.36  74 3.01
 101  0.337  0.471  0.445-  16 1.52 104 2.36 116 2.40  75 2.41
 102  0.494  0.330  0.382- 104 2.33  98 2.46
 103  0.890  0.026  0.520-  56 2.27  78 2.30  90 2.30  87 2.32  61 3.13
 104  0.483  0.479  0.410- 123 2.17 102 2.33 101 2.36  99 2.37
 105  0.331  0.012  0.496-  37 2.21  85 2.26 118 2.38 120 2.47
 106  0.454  0.960  0.606- 112 2.26 114 2.28 100 2.29  37 2.35
 107  0.769  0.174  0.343-  47 2.46  36 2.51
 108  0.765  0.433  0.357-  36 2.24  54 2.38
 109  0.488  0.320  0.531-  76 2.24 116 2.27  52 2.31  62 2.37
 110  0.864  0.267  0.638-  49 2.24  79 2.25
 111  0.673  0.935  0.365-  31 2.28  47 2.33  83 2.38
 112  0.528  0.836  0.578- 106 2.26  84 2.28 119 2.32  48 2.38  82 2.83
 113  0.025  0.099  0.407-  87 2.27  55 2.38  91 2.39  32 2.46
 114  0.304  0.990  0.623-  51 2.24 106 2.28  81 2.32
 115  0.732  0.683  0.363-  31 2.25  54 2.40
 116  0.353  0.392  0.516- 109 2.27 101 2.40  77 2.46  66 2.46
 117  0.711  0.419  0.613-  41 2.23  44 2.32  49 2.41
 118  0.317  0.033  0.415-  32 2.32  39 2.34 105 2.38
 119  0.661  0.913  0.557-  68 2.32 112 2.32  90 2.36  59 2.40  82 2.45
 120  0.235  0.875  0.509-  67 2.28  51 2.35  70 2.46 105 2.47
 121  0.075  0.008  0.594-  78 2.25  71 2.27  97 2.28  51 2.35
 122  0.788  0.780  0.657-  68 2.30  93 2.44  38 3.11
 123  0.593  0.538  0.451- 104 2.17  54 2.37  62 2.42  60 2.45
 124  0.519  0.584  0.583-  86 2.26  44 2.31  48 2.37  60 2.42

  LATTYP: Found a simple tetragonal cell.
 ALAT       =    14.5745485891
 C/A-ratio  =     1.9992194696
  
  Lattice vectors:
  
 A1 = (  14.5745485891,   0.0000000000,   0.0000000000)
 A2 = (   0.0000000000,  14.5745485891,   0.0000000000)
 A3 = (   0.0000000000,   0.0000000000,  29.1377213000)


Analysis of symmetry for initial positions (statically):
=====================================================================
 Subroutine PRICEL returns:
 Original cell was already a primitive cell.
 

 Routine SETGRP: Setting up the symmetry group for a 
 simple tetragonal supercell.


 Subroutine GETGRP returns: Found  1 space group operations
 (whereof  1 operations were pure point group operations)
 out of a pool of 16 trial point group operations.


The static configuration has the point symmetry C_1 .


Analysis of symmetry for dynamics (positions and initial velocities):
=====================================================================
 Subroutine PRICEL returns:
 Original cell was already a primitive cell.
 

 Routine SETGRP: Setting up the symmetry group for a 
 simple tetragonal supercell.


 Subroutine GETGRP returns: Found  1 space group operations
 (whereof  1 operations were pure point group operations)
 out of a pool of 16 trial point group operations.


The dynamic configuration has the point symmetry C_1 .


 Subroutine INISYM returns: Found  1 space group operations
 (whereof  1 operations are pure point group operations),
 and found     1 'primitive' translations


----------------------------------------------------------------------------------------

                                     Primitive cell                                     

  volume of cell :    6189.3609

  direct lattice vectors                    reciprocal lattice vectors
    14.574548589  0.000000000  0.000000000     0.068612760  0.000000000  0.000000000
     0.000000000 14.574548589  0.000000000     0.000000000  0.068612760  0.000000000
     0.000000000  0.000000000 29.137721300     0.000000000  0.000000000  0.034319774

  length of vectors
    14.574548589 14.574548589 29.137721300     0.068612760  0.068612760  0.034319774

  position of ions in fractional coordinates (direct lattice)
     0.364212309  0.253130996  0.446806432
     0.103529793  0.630505977  0.470553657
     0.101949641  0.327933313  0.508610167
     0.049037128  0.456840221  0.547963622
     0.042149436  0.465416816  0.477163645
     0.309268584  0.825768285  0.406269632
     0.217308274  0.669633776  0.348015797
     0.370102029  0.742046996  0.599084641
     0.475522789  0.671511021  0.427512885
     0.197678164  0.682256465  0.537267178
     0.443064151  0.836382679  0.404589679
     0.261405009  0.841350243  0.412277308
     0.134451506  0.730170127  0.416721032
     0.309334452  0.689462177  0.453855714
     0.336749366  0.684091170  0.533477589
     0.327363141  0.569521584  0.460243996
     0.229173479  0.704803990  0.598062255
     0.178680663  0.540295293  0.575032314
     0.191922925  0.566583586  0.422010396
     0.216040996  0.609858339  0.417729004
     0.363474036  0.790062205  0.603416483
     0.224734233  0.482913070  0.505468192
     0.308804075  0.622651875  0.589901356
     0.455365047  0.186580050  0.371070345
     0.192440265  0.533988408  0.597901638
     0.324639900  0.583970059  0.367568458
     0.990706499  0.646509903  0.360565028
     0.246760987  0.703013197  0.363422081
     0.055904030  0.596575595  0.538858586
     0.186177293  0.511961654  0.504463995
     0.666430932  0.798137927  0.402790979
     0.190933529  0.127103079  0.402370562
     0.848190935  0.015120194  0.649139001
     0.904425953  0.733408650  0.446451223
     0.106218727  0.668608015  0.516660556
     0.768586412  0.304916476  0.399086846
     0.461730939  0.030009369  0.533702383
     0.915301076  0.807798604  0.572238684
     0.458059470  0.105601212  0.401924405
     0.957319530  0.813321931  0.380218864
     0.736564837  0.419803740  0.537449416
     0.812354491  0.559931579  0.533524607
     0.833061822  0.300111525  0.519649122
     0.562927212  0.465805850  0.630674277
     0.463655527  0.188378390  0.633748299
     0.899554447  0.561380680  0.600936879
     0.786240475  0.036217657  0.390962669
     0.584077781  0.711013445  0.621810509
     0.711630960  0.257134550  0.628132897
     0.194225570  0.771200558  0.632041919
     0.198276467  0.905455145  0.586314253
     0.478276906  0.336097545  0.609498976
     0.093594665  0.263312443  0.547932048
     0.736290386  0.550431456  0.412277308
     0.010674773  0.261593008  0.410888387
     0.799455292  0.152037642  0.518158271
     0.974033598  0.474429788  0.440342646
     0.186151220  0.326076651  0.610674772
     0.708701195  0.033077868  0.607699934
     0.579221370  0.651235950  0.512718587
     0.721147549  0.066952400  0.457496355
     0.609471363  0.393713052  0.490560369
     0.768250209  0.786233613  0.470319596
     0.003727388  0.444025416  0.590957032
     0.205691448  0.191824123  0.654994641
     0.327271200  0.406389259  0.599705829
     0.099167394  0.894394768  0.471865015
     0.763001333  0.798981864  0.579327777
     0.089502601  0.420040454  0.652577156
     0.335717430  0.744146547  0.492853959
     0.106913088  0.109194463  0.537573997
     0.580153817  0.138636884  0.451073753
     0.510625763  0.759831423  0.399405677
     0.674829134  0.163533710  0.565455038
     0.246661499  0.389953758  0.388113099
     0.530633930  0.173630764  0.522458882
     0.289980851  0.251819806  0.482115645
     0.929572530  0.956681431  0.588437274
     0.944475221  0.298451096  0.574422451
     0.858105479  0.579512288  0.458717796
     0.317023198  0.144944455  0.604896695
     0.553121762  0.927582760  0.492853273
     0.541880934  0.022194307  0.344555643
     0.491371651  0.786569816  0.505759910
     0.269254308  0.136279349  0.530450585
     0.375827763  0.561600927  0.609529864
     0.026945946  0.041219664  0.479788764
     0.169728070  0.274696672  0.425890246
     0.003980411  0.788971262  0.506589076
     0.767214156  0.937902119  0.496942474
     0.931383906  0.976764386  0.379644694
     0.891705148  0.344532798  0.448907146
     0.927040719  0.702725024  0.631425193
     0.102002473  0.816546731  0.400561910
     0.016145268  0.540104550  0.371286903
     0.721696452  0.687890945  0.530570361
     0.078455946  0.107334371  0.654565644
     0.623901313  0.282036179  0.430613677
     0.417195082  0.556487218  0.346802936
     0.561519278  0.059131711  0.634400374
     0.336857774  0.470846830  0.444546132
     0.493776528  0.329507976  0.382284915
     0.890428950  0.025609026  0.520030415
     0.482998836  0.478992537  0.410187234
     0.331292593  0.011853472  0.495817471
     0.453863800  0.959734699  0.606176479
     0.768757943  0.174089783  0.343197737
     0.764901906  0.433484438  0.356878123
     0.488273785  0.320190363  0.530656847
     0.863587639  0.266959898  0.638300817
     0.673415711  0.934924325  0.365178052
     0.528041740  0.836163119  0.577554817
     0.025078787  0.099361568  0.407376788
     0.303703403  0.990198764  0.622660953
     0.731995227  0.682963863  0.363463916
     0.353151246  0.392211804  0.516459443
     0.710869358  0.419334428  0.612762443
     0.316814615  0.033260996  0.415168749
     0.661482580  0.912680068  0.556843863
     0.234987724  0.875128305  0.509360741
     0.074632843  0.007549462  0.594471377
     0.787756817  0.780312332  0.656802263
     0.593257482  0.538223874  0.450705502
     0.519236665  0.584472991  0.582597765

  ion indices of the primitive-cell ions
   primitive index   ion index
                 1           1
                 2           2
                 3           3
                 4           4
                 5           5
                 6           6
                 7           7
                 8           8
                 9           9
                10          10
                11          11
                12          12
                13          13
                14          14
                15          15
                16          16
                17          17
                18          18
                19          19
                20          20
                21          21
                22          22
                23          23
                24          24
                25          25
                26          26
                27          27
                28          28
                29          29
                30          30
                31          31
                32          32
                33          33
                34          34
                35          35
                36          36
                37          37
                38          38
                39          39
                40          40
                41          41
                42          42
                43          43
                44          44
                45          45
                46          46
                47          47
                48          48
                49          49
                50          50
                51          51
                52          52
                53          53
                54          54
                55          55
                56          56
                57          57
                58          58
                59          59
                60          60
                61          61
                62          62
                63          63
                64          64
                65          65
                66          66
                67          67
                68          68
                69          69
                70          70
                71          71
                72          72
                73          73
                74          74
                75          75
                76          76
                77          77
                78          78
                79          79
                80          80
                81          81
                82          82
                83          83
                84          84
                85          85
                86          86
                87          87
                88          88
                89          89
                90          90
                91          91
                92          92
                93          93
                94          94
                95          95
                96          96
                97          97
                98          98
                99          99
               100         100
               101         101
               102         102
               103         103
               104         104
               105         105
               106         106
               107         107
               108         108
               109         109
               110         110
               111         111
               112         112
               113         113
               114         114
               115         115
               116         116
               117         117
               118         118
               119         119
               120         120
               121         121
               122         122
               123         123
               124         124

----------------------------------------------------------------------------------------


 -----------------------------------------------------------------------------
|                                                                             |
|           W    W    AA    RRRRR   N    N  II  N    N   GGGG   !!!           |
|           W    W   A  A   R    R  NN   N  II  NN   N  G    G  !!!           |
|           W    W  A    A  R    R  N N  N  II  N N  N  G       !!!           |
|           W WW W  AAAAAA  RRRRR   N  N N  II  N  N N  G  GGG   !            |
|           WW  WW  A    A  R   R   N   NN  II  N   NN  G    G                |
|           W    W  A    A  R    R  N    N  II  N    N   GGGG   !!!           |
|                                                                             |
|     The requested file  could not be found or opened for reading            |
|     k-point information. Automatic k-point generation is used as a          |
|     fallback, which may lead to unwanted results.                           |
|                                                                             |
 -----------------------------------------------------------------------------



Automatic generation of k-mesh.
 Grid dimensions derived from KSPACING:
 generate k-points for:    2    2    1

 Generating k-lattice:

  Cartesian coordinates                     Fractional coordinates (reciprocal lattice)
     0.034306380  0.000000000  0.000000000     0.500000000  0.000000000  0.000000000
     0.000000000  0.034306380  0.000000000     0.000000000  0.500000000  0.000000000
     0.000000000  0.000000000  0.034319774     0.000000000  0.000000000  1.000000000

  Length of vectors
     0.034306380  0.034306380  0.034319774

  Shift w.r.t. Gamma in fractional coordinates (k-lattice)
     0.000000000  0.000000000  0.000000000

 
 Subroutine IBZKPT returns following result:
 ===========================================
 
 Found      4 irreducible k-points:
 
 Following reciprocal coordinates:
            Coordinates               Weight
  0.000000  0.000000  0.000000      1.000000
  0.500000  0.000000  0.000000      1.000000
  0.000000  0.500000  0.000000      1.000000
  0.500000  0.500000  0.000000      1.000000
 
 Following cartesian coordinates:
            Coordinates               Weight
  0.000000  0.000000  0.000000      1.000000
  0.034306  0.000000  0.000000      1.000000
  0.000000  0.034306  0.000000      1.000000
  0.034306  0.034306  0.000000      1.000000
 


--------------------------------------------------------------------------------------------------------




 Dimension of arrays:
   k-points           NKPTS =      4   k-points in BZ     NKDIM =      4   number of bands    NBANDS=    272
   number of dos      NEDOS =   2000   number of ions     NIONS =    124
   non local maximal  LDIM  =      4   non local SUM 2l+1 LMDIM =      8
   total plane-waves  NPLWV = ******
   max r-space proj   IRMAX =      1   max aug-charges    IRDMAX= 409980
   dimension x,y,z NGX =   168 NGY =  168 NGZ =  336
   dimension x,y,z NGXF=   336 NGYF=  336 NGZF=  672
   support grid    NGXF=   672 NGYF=  672 NGZF= 1344
   ions per type =              30  94
   NGX,Y,Z   is equivalent  to a cutoff of  19.16, 19.16, 19.17 a.u.
   NGXF,Y,Z  is equivalent  to a cutoff of  38.33, 38.33, 38.34 a.u.

 SYSTEM =  a-Si SPC                                
 POSCAR =   H Si                                   

 Startparameter for this run:
   NWRITE =      2    write-flag & timer
   PREC   = accura    normal or accurate (medium, high low for compatibility)
   ISTART =      1    job   : 0-new  1-cont  2-samecut
   ICHARG =      1    charge: 1-file 2-atom 10-const
   ISPIN  =      1    spin polarized calculation?
   LNONCOLLINEAR =      F non collinear calculations
   LSORBIT =      F    spin-orbit coupling
   INIWAV =      1    electr: 0-lowe 1-rand  2-diag
   LASPH  =      T    aspherical Exc in radial PAW
 Electronic Relaxation 1
   ENCUT  = 1200.0 eV  88.20 Ry    9.39 a.u.  41.17 41.17 82.30*2*pi/ulx,y,z
   ENINI  = 1200.0     initial cutoff
   ENAUG  =  400.0 eV  augmentation charge cutoff
   NELM   =    150;   NELMIN=  2; NELMDL=  0     # of ELM steps 
   EDIFF  = 0.1E-05   stopping-criterion for ELM
   LREAL  =      F    real-space projection
   NLSPLINE    = F    spline interpolate recip. space projectors
   LCOMPAT=      F    compatible to vasp.4.4
   GGA_COMPAT  = T    GGA compatible to vasp.4.4-vasp.4.6
   LMAXPAW     = -100 max onsite density
   LMAXMIX     =    2 max onsite mixed and CHGCAR
   VOSKOWN=      0    Vosko Wilk Nusair interpolation
   ROPT   =    0.00000   0.00000
 Ionic relaxation
   EDIFFG = -.1E-01   stopping-criterion for IOM
   NSW    =      0    number of steps for IOM
   NBLOCK =      1;   KBLOCK =      1    inner block; outer block 
   IBRION =     -1    ionic relax: 0-MD 1-quasi-New 2-CG
   NFREE  =      0    steps in history (QN), initial steepest desc. (CG)
   ISIF   =      2    stress and relaxation
   IWAVPR =     10    prediction:  0-non 1-charg 2-wave 3-comb
   ISYM   =      1    0-nonsym 1-usesym 2-fastsym
   LCORR  =      T    Harris-Foulkes like correction to forces

   POTIM  = 0.5000    time-step for ionic-motion
   TEIN   =    0.0    initial temperature
   TEBEG  =    0.0;   TEEND  =   0.0 temperature during run
   SMASS  =  -3.00    Nose mass-parameter (am)
   estimated Nose-frequenzy (Omega)   =  0.10E-29 period in steps = 0.13E+47 mass=  -0.485E-26a.u.
   SCALEE = 1.0000    scale energy and forces
   NPACO  =    256;   APACO  = 10.0  distance and # of slots for P.C.
   PSTRESS=    0.0 pullay stress

  Mass of Ions in am
   POMASS =   1.00 28.09
  Ionic Valenz
   ZVAL   =   1.00  4.00
  Atomic Wigner-Seitz radii
   RWIGS  =  -1.00 -1.00
  virtual crystal weights 
   VCA    =   1.00  1.00
   NELECT =     406.0000    total number of electrons
   NUPDOWN=      -1.0000    fix difference up-down

 DOS related values:
   EMIN   =  10.00;   EMAX   =-10.00  energy-range for DOS
   EFERMI =   0.00;   METHOD = LEGACY      
   ISMEAR =     0;   SIGMA  =   0.10  broadening in eV -4-tet -1-fermi 0-gaus
   EFERMI_NEDOS =   21; number of points for ismear=-14 and -15

 Electronic relaxation 2 (details)
   IALGO  =     38    algorithm
   LDIAG  =      F    sub-space diagonalisation (order eigenvalues)
   LSUBROT=      F    optimize rotation matrix (better conditioning)
   TURBO    =      0    0=normal 1=particle mesh
   IRESTART =      0    0=no restart 2=restart with 2 vectors
   NREBOOT  =      0    no. of reboots
   NMIN     =      0    reboot dimension
   EREF     =   0.00    reference energy to select bands
   IMIX   =      4    mixing-type and parameters
     AMIX     =   0.40;   BMIX     =  1.00
     AMIX_MAG =   1.60;   BMIX_MAG =  1.00
     AMIN     =   0.10
     WC   =   100.;   INIMIX=   1;  MIXPRE=   1;  MAXMIX= -45

 Intra band minimization:
   WEIMIN = 0.0000     energy-eigenvalue tresh-hold
   EBREAK =  0.92E-09  absolut break condition
   DEPER  =   0.30     relativ break condition  

   TIME   =   0.40     timestep for ELM

  volume/ion in A,a.u.               =      49.91       336.84
  Fermi-wavevector in a.u.,A,eV,Ry     =   0.660240  1.247672  5.931002  0.435916
  Thomas-Fermi vector in A             =   1.732625

 Write flags
   LWAVE        =      F    write WAVECAR
   LDOWNSAMPLE  =      F    k-point downsampling of WAVECAR
   LCHARG       =      F    write CHGCAR
   LVTOT        =      F    write LOCPOT, total local potential
   LVHAR        =      F    write LOCPOT, Hartree potential only
   WRT_POTENTIAL= false  ! write potential to hdf5 file
   LELF         =      F    write electronic localiz. function (ELF)
   LORBIT       =     11    0 simple, 1 ext, 2 COOP (PROOUT), +10 PAW based schemes


 Python interface
   PLUGINS active      =      F    recompile with -DPLUGINS to activate

 Dipole corrections
   LMONO      =      F    monopole corrections only (constant potential shift)
   LDIPOL     =      F    correct potential (dipole corrections)
   IDIPOL     =      0    1-x, 2-y, 3-z, 4-all directions 
   EPSILON    =  1.0000000 bulk dielectric constant
   LVACPOTAV  =      F  vacuum potentials using an averaging scheme for the charge density
   VACPOTFLAT =  0.1000000 required flatness to determine vacuum potential

Coulomb truncation method
  LTRUNCATE          =      F  Coulomb kernel truncation to be used
  IDIMENSIONALITY    =      3  Dimensionality of cutoff (0 molecules / 2 surfaces)
  ISURFACE           =     -1  Direction of surface normal
  LCOARSEN           =      F  Coarsen the charge grid before padding, preferred


 Exchange correlation treatment:
   METAGGA = SCAN    functional components
   XC_C    = 1    coefficients multiplying the functional components
   LIBXC   =     F    Libxc                    
   VOSKOWN =     0    Vosko Wilk Nusair interpolation
   LHFCALC =     F    Hartree Fock is set to
   LHFONE  =     F    Hartree Fock one center treatment
   AEXX    =    0.0000 exact exchange contribution

 Parameters of functionals:
   SCAN:
     P1 =  0.000000E+00
     P2 =  0.000000E+00
     P3 =  0.000000E+00

 Accuracy and mixing parameters for tau-dependent meta-GGA functionals:
   LMAXTAU = 6
   LMIXTAU = T

 Van der Waals corrections
   IVDW    =     0    specifies the selected vdW correction

 Linear response parameters
   LEPSILON=     F    determine dielectric tensor
   LRPA    =     F    only Hartree local field effects (RPA)
   LNABLA  =     F    use nabla operator in PAW spheres
   LVEL    =     F    velocity operator in full k-point grid
   CSHIFT  =0.1000    complex shift for real part using Kramers Kronig
   OMEGAMAX=  -1.0    maximum frequency
   DEG_THRESHOLD= 0.2000000E-02 threshold for treating states as degnerate
   RTIME   =   -0.100 relaxation time in fs
  (WPLASMAI=    0.000 imaginary part of plasma frequency in eV, 0.658/RTIME)
   DFIELD  = 0.0000000 0.0000000 0.0000000 field for delta impulse in time

  Optional k-point grid parameters
   LKPOINTS_OPT  =     F    use optional k-point grid
   KPOINTS_OPT_MODE=     1    mode for optional k-point grid

 Orbital magnetization related:
   ORBITALMAG=     F  switch on orbital magnetization
   LCHIMAG   =     F  perturbation theory with respect to B field
   DQ        =  0.001000  dq finite difference perturbation B field
   LLRAUG    =     F  two centre corrections for induced B field
   LBONE     =     F  B-component reconstruction in AE one-centre
   LVGVCALC  =     T  calculate vGv susceptibility
   LVGVAPPL  =     F  apply vGv susceptibility instead of pGv for G=0

 Random number generation:
   RANDOM_GENERATOR = DEFAULT
   PCG_SEED         = not used


--------------------------------------------------------------------------------------------------------


 Static calculation
 charge density and potential will be updated during run
 non-spin polarized calculation
 Variant of blocked Davidson
 perform Loewdin sub-space diagonalisation
    ordering is kept fixed
    before iterative eigenvector-optimisation
 modified Broyden-mixing scheme, WC =      100.0
 initial mixing is a Kerker type mixing with AMIX =  0.4000 and BMIX =      1.0000
 Hartree-type preconditioning will be used
 using additional bands           69
 reciprocal scheme for non local part
 use partial core corrections
 calculate Harris-corrections to forces   (improved forces if not selfconsistent)
 use gradient corrections 
 use of overlap-Matrix (Vanderbilt PP)
 Gauss-broadening in eV      SIGMA  =   0.10


--------------------------------------------------------------------------------------------------------


  energy-cutoff  :     1200.00
  volume of cell :     6189.36
      direct lattice vectors                 reciprocal lattice vectors
    14.574548589  0.000000000  0.000000000     0.068612760  0.000000000  0.000000000
     0.000000000 14.574548589  0.000000000     0.000000000  0.068612760  0.000000000
     0.000000000  0.000000000 29.137721300     0.000000000  0.000000000  0.034319774

  length of vectors
    14.574548589 14.574548589 29.137721300     0.068612760  0.068612760  0.034319774



 old parameters found on file WAVECAR:
  energy-cutoff  :     1200.00
  volume of cell :     6189.36
      direct lattice vectors                 reciprocal lattice vectors
    14.574548589  0.000000000  0.000000000     0.068612760  0.000000000  0.000000000
     0.000000000 14.574548589  0.000000000     0.000000000  0.068612760  0.000000000
     0.000000000  0.000000000 29.137721300     0.000000000  0.000000000  0.034319774

  length of vectors


 k-points in units of 2pi/SCALE and weight: read from INCAR                         
   0.00000000  0.00000000  0.00000000       0.250
   0.03430638  0.00000000  0.00000000       0.250
   0.00000000  0.03430638  0.00000000       0.250
   0.03430638  0.03430638  0.00000000       0.250

 k-points in reciprocal lattice and weights: read from INCAR                         
   0.00000000  0.00000000  0.00000000       0.250
   0.50000000  0.00000000  0.00000000       0.250
   0.00000000  0.50000000  0.00000000       0.250
   0.50000000  0.50000000  0.00000000       0.250

 position of ions in fractional coordinates (direct lattice) 
   0.36421231  0.25313100  0.44680643
   0.10352979  0.63050598  0.47055366
   0.10194964  0.32793331  0.50861017
   0.04903713  0.45684022  0.54796362
   0.04214944  0.46541682  0.47716364
   0.30926858  0.82576829  0.40626963
   0.21730827  0.66963378  0.34801580
   0.37010203  0.74204700  0.59908464
   0.47552279  0.67151102  0.42751289
   0.19767816  0.68225647  0.53726718
   0.44306415  0.83638268  0.40458968
   0.26140501  0.84135024  0.41227731
   0.13445151  0.73017013  0.41672103
   0.30933445  0.68946218  0.45385571
   0.33674937  0.68409117  0.53347759
   0.32736314  0.56952158  0.46024400
   0.22917348  0.70480399  0.59806225
   0.17868066  0.54029529  0.57503231
   0.19192293  0.56658359  0.42201040
   0.21604100  0.60985834  0.41772900
   0.36347404  0.79006221  0.60341648
   0.22473423  0.48291307  0.50546819
   0.30880408  0.62265187  0.58990136
   0.45536505  0.18658005  0.37107035
   0.19244027  0.53398841  0.59790164
   0.32463990  0.58397006  0.36756846
   0.99070650  0.64650990  0.36056503
   0.24676099  0.70301320  0.36342208
   0.05590403  0.59657560  0.53885859
   0.18617729  0.51196165  0.50446400
   0.66643093  0.79813793  0.40279098
   0.19093353  0.12710308  0.40237056
   0.84819094  0.01512019  0.64913900
   0.90442595  0.73340865  0.44645122
   0.10621873  0.66860801  0.51666056
   0.76858641  0.30491648  0.39908685
   0.46173094  0.03000937  0.53370238
   0.91530108  0.80779860  0.57223868
   0.45805947  0.10560121  0.40192441
   0.95731953  0.81332193  0.38021886
   0.73656484  0.41980374  0.53744942
   0.81235449  0.55993158  0.53352461
   0.83306182  0.30011152  0.51964912
   0.56292721  0.46580585  0.63067428
   0.46365553  0.18837839  0.63374830
   0.89955445  0.56138068  0.60093688
   0.78624047  0.03621766  0.39096267
   0.58407778  0.71101344  0.62181051
   0.71163096  0.25713455  0.62813290
   0.19422557  0.77120056  0.63204192
   0.19827647  0.90545514  0.58631425
   0.47827691  0.33609754  0.60949898
   0.09359467  0.26331244  0.54793205
   0.73629039  0.55043146  0.41227731
   0.01067477  0.26159301  0.41088839
   0.79945529  0.15203764  0.51815827
   0.97403360  0.47442979  0.44034265
   0.18615122  0.32607665  0.61067477
   0.70870119  0.03307787  0.60769993
   0.57922137  0.65123595  0.51271859
   0.72114755  0.06695240  0.45749636
   0.60947136  0.39371305  0.49056037
   0.76825021  0.78623361  0.47031960
   0.00372739  0.44402542  0.59095703
   0.20569145  0.19182412  0.65499464
   0.32727120  0.40638926  0.59970583
   0.09916739  0.89439477  0.47186502
   0.76300133  0.79898186  0.57932778
   0.08950260  0.42004045  0.65257716
   0.33571743  0.74414655  0.49285396
   0.10691309  0.10919446  0.53757400
   0.58015382  0.13863688  0.45107375
   0.51062576  0.75983142  0.39940568
   0.67482913  0.16353371  0.56545504
   0.24666150  0.38995376  0.38811310
   0.53063393  0.17363076  0.52245888
   0.28998085  0.25181981  0.48211565
   0.92957253  0.95668143  0.58843727
   0.94447522  0.29845110  0.57442245
   0.85810548  0.57951229  0.45871780
   0.31702320  0.14494445  0.60489669
   0.55312176  0.92758276  0.49285327
   0.54188093  0.02219431  0.34455564
   0.49137165  0.78656982  0.50575991
   0.26925431  0.13627935  0.53045058
   0.37582776  0.56160093  0.60952986
   0.02694595  0.04121966  0.47978876
   0.16972807  0.27469667  0.42589025
   0.00398041  0.78897126  0.50658908
   0.76721416  0.93790212  0.49694247
   0.93138391  0.97676439  0.37964469
   0.89170515  0.34453280  0.44890715
   0.92704072  0.70272502  0.63142519
   0.10200247  0.81654673  0.40056191
   0.01614527  0.54010455  0.37128690
   0.72169645  0.68789094  0.53057036
   0.07845595  0.10733437  0.65456564
   0.62390131  0.28203618  0.43061368
   0.41719508  0.55648722  0.34680294
   0.56151928  0.05913171  0.63440037
   0.33685777  0.47084683  0.44454613
   0.49377653  0.32950798  0.38228491
   0.89042895  0.02560903  0.52003042
   0.48299884  0.47899254  0.41018723
   0.33129259  0.01185347  0.49581747
   0.45386380  0.95973470  0.60617648
   0.76875794  0.17408978  0.34319774
   0.76490191  0.43348444  0.35687812
   0.48827378  0.32019036  0.53065685
   0.86358764  0.26695990  0.63830082
   0.67341571  0.93492432  0.36517805
   0.52804174  0.83616312  0.57755482
   0.02507879  0.09936157  0.40737679
   0.30370340  0.99019876  0.62266095
   0.73199523  0.68296386  0.36346392
   0.35315125  0.39221180  0.51645944
   0.71086936  0.41933443  0.61276244
   0.31681461  0.03326100  0.41516875
   0.66148258  0.91268007  0.55684386
   0.23498772  0.87512830  0.50936074
   0.07463284  0.00754946  0.59447138
   0.78775682  0.78031233  0.65680226
   0.59325748  0.53822387  0.45070550
   0.51923666  0.58447299  0.58259776

 position of ions in cartesian coordinates  (Angst):
   5.30823000  3.68927000 13.01892130
   1.50890000  9.18934000 13.71086130
   1.48587000  4.77948000 14.81974130
   0.71469400  6.65824000 15.96641130
   0.61430900  6.78324000 13.90346130
   4.50745000 12.03520000 11.83777130
   3.16717000  9.75961000 10.14038730
   5.39407000 10.81500000 17.45596130
   6.93053000  9.78697000 12.45675130
   2.88107000  9.94358000 15.65474130
   6.45746000 12.18990000 11.78882130
   3.80986000 12.26230000 12.01282130
   1.95957000 10.64190000 12.14230130
   4.50841000 10.04860000 13.22432130
   4.90797000  9.97032000 15.54432130
   4.77117000  8.30052000 13.41046130
   3.34010000 10.27220000 17.42617130
   2.60419000  7.87456000 16.75513130
   2.79719000  8.25770000 12.29642130
   3.14870000  8.88841000 12.17167130
   5.29747000 11.51480000 17.58218130
   3.27540000  7.03824000 14.72819130
   4.50068000  9.07487000 17.18838130
   6.63674000  2.71932000 10.81214430
   2.80473000  7.78264000 17.42149130
   4.73148000  8.51110000 10.71010730
  14.43910000  9.42259000 10.50604330
   3.59643000 10.24610000 10.58929130
   0.81477600  8.69482000 15.70111130
   2.71345000  7.46161000 14.69893130
   9.71293000 11.63250000 11.73641130
   2.78277000  1.85247000 11.72416130
  12.36200000  0.22037000 18.91443130
  13.18160000 10.68910000 13.00857130
   1.54809000  9.74466000 15.05431130
  11.20180000  4.44402000 11.62848130
   6.72952000  0.43737300 15.55087130
  13.34010000 11.77330000 16.67373130
   6.67601000  1.53909000 11.71116130
  13.95250000 11.85380000 11.07871130
  10.73510000  6.11845000 15.66005130
  11.83970000  8.16075000 15.54569130
  12.14150000  4.37399000 15.14139130
   8.20441000  6.78891000 18.37641130
   6.75757000  2.74553000 18.46598130
  13.11060000  8.18187000 17.50993130
  11.45910000  0.52785600 11.39176130
   8.51267000 10.36270000 18.11814130
  10.37170000  3.74762000 18.30236130
   2.83075000 11.23990000 18.41626130
   2.88979000 13.19660000 17.08386130
   6.97067000  4.89847000 17.75941130
   1.36410000  3.83766000 15.96549130
  10.73110000  8.02229000 12.01282130
   0.15558000  3.81260000 11.97235130
  11.65170000  2.21588000 15.09795130
  14.19610000  6.91460000 12.83058130
   2.71307000  4.75242000 17.79367130
  10.32900000  0.48209500 17.70699130
   8.44189000  9.49147000 14.93945130
  10.51040000  0.97580100 13.33040130
   8.88277000  5.73819000 14.29381130
  11.19690000 11.45900000 13.70404130
   0.05432500  6.47147000 17.21914130
   2.99786000  2.79575000 19.08505130
   4.76983000  5.92294000 17.47406130
   1.44532000 13.03540000 13.74907130
  11.12040000 11.64480000 16.88029130
   1.30446000  6.12190000 19.01461130
   4.89293000 10.84560000 14.36064130
   1.55821000  1.59146000 15.66368130
   8.45548000  2.02057000 13.14326130
   7.44214000 11.07420000 11.63777130
   9.83533000  2.38343000 16.47607130
   3.59498000  5.68340000 11.30873130
   7.73375000  2.53059000 15.22326130
   4.22634000  3.67016000 14.04775130
  13.54810000 13.94320000 17.14572130
  13.76530000  4.34979000 16.73736130
  12.50650000  8.44613000 13.36599130
   4.62047000  2.11250000 17.62531130
   8.06150000 13.51910000 14.36062130
   7.89767000  0.32347200 10.03956630
   7.16152000 11.46390000 14.73669130
   3.92426000  1.98621000 15.45612130
   5.47752000  8.18508000 17.76031130
   0.39272500  0.60075800 13.97995130
   2.47371000  4.00358000 12.40947130
   0.05801270 11.49890000 14.76085130
  11.18180000 13.66950000 14.47977130
  13.57450000 14.23590000 11.06198130
  12.99620000  5.02141000 13.08013130
  13.51120000 10.24190000 18.39829130
   1.48664000 11.90080000 11.67146130
   0.23531000  7.87178000 10.81845430
  10.51840000 10.02570000 15.45961130
   1.14346000  1.56435000 19.07255130
   9.09308000  4.11055000 12.54710130
   6.08043000  8.11055000 10.10504730
   8.18389000  0.86181800 18.48498130
   4.90955000  6.86238000 12.95306130
   7.19657000  4.80243000 11.13891130
  12.97760000  0.37324000 15.15250130
   7.03949000  6.98110000 11.95192130
   4.82844000  0.17275900 14.44699130
   6.61486000 13.98770000 17.66260130
  11.20430000  2.53728000 10.00000000
  11.14810000  6.31784000 10.39861530
   7.11637000  4.66663000 15.46213130
  12.58640000  3.89082000 18.59863130
   9.81473000 13.62610000 10.64045630
   7.69597000 12.18670000 16.82863130
   0.36551200  1.44815000 11.87003130
   4.42634000 14.43170000 18.14292130
  10.66850000  9.95389000 10.59051030
   5.14702000  5.71631000 15.04845130
  10.36060000  6.11161000 17.85450130
   4.61743000  0.48476400 12.09707130
   9.64081000 13.30190000 16.22516130
   3.42484000 12.75460000 14.84161130
   1.08774000  0.11003000 17.32154130
  11.48120000 11.37270000 19.13772130
   8.64646000  7.84437000 13.13253130
   7.56764000  8.51843000 16.97557130



--------------------------------------------------------------------------------------------------------


 k-point     1 :   0.0000 0.0000 0.0000  plane waves:  584397
 k-point     2 :   0.5000 0.0000 0.0000  plane waves:  584294
 k-point     3 :   0.0000 0.5000 0.0000  plane waves:  584294
 k-point     4 :   0.5000 0.5000 0.0000  plane waves:  583812

 maximum and minimum number of plane-waves per node :     36689    36383

 maximum number of plane-waves:    584397
 maximum index in each direction: 
   IXMAX=   41   IYMAX=   41   IZMAX=   82
   IXMIN=  -41   IYMIN=  -41   IZMIN=  -82


 parallel 3D FFT for wavefunctions:
    minimum data exchange during FFTs selected (reduces bandwidth)
 parallel 3D FFT for charge:
    minimum data exchange during FFTs selected (reduces bandwidth)


 total amount of memory used by VASP MPI-rank0   403700. kBytes
=======================================================================

   base                                    :      30000. kBytes
   nonl-proj                               :      91393. kBytes
   fftplans                                :     114284. kBytes
   grid                                    :      88184. kBytes
   one-center                              :         24. kBytes
   wavefun                                 :      79815. kBytes

     INWAV:  cpu time     22.8174: real time     22.8334
 Broyden mixing: mesh for mixing (old mesh)
   NGX = 83   NGY = 83   NGZ =165
  (NGX  =336   NGY  =336   NGZ  =672)
  gives a total of ****** points

 initial charge density was supplied:
 number of electron     405.9999999 magnetization 
 keeping initial charge density in first step


--------------------------------------------------------------------------------------------------------


 Maximum index for augmentation-charges        11457 (set IRDMAX)


--------------------------------------------------------------------------------------------------------


 First call to EWALD:  gamma=   0.097
 Maximum number of real-space cells   3x   3x   2
 Maximum number of reciprocal cells   2x   2x   4

    FEWALD:  cpu time      0.0214: real time      0.0217


--------------------------------------- Ionic step        1  -------------------------------------------




--------------------------------------- Iteration      1(   1)  ---------------------------------------


    POTLOK:  cpu time      2.2782: real time      2.2792
    SETDIJ:  cpu time      1.8862: real time      1.8875
    EDDIAG:  cpu time     46.0989: real time     46.1295
     EDDAV:  cpu time    222.7826: real time    222.9113
       DOS:  cpu time      0.0080: real time      0.0082
    CHARGE:  cpu time     26.4801: real time     26.5051
    MIXING:  cpu time      0.0512: real time      0.0515
    --------------------------------------------
      LOOP:  cpu time    299.5852: real time    299.7723

 eigenvalue-minimisations  :  2208
 total energy-change (2. order) :-0.1036942E+04  (-0.1142845E+01)
 number of electron     405.9999999 magnetization 
 augmentation part      -21.0203452 magnetization 

 Broyden mixing:
  rms(total) = 0.11976E+01    rms(broyden)= 0.11976E+01
  rms(prec ) = 0.12000E+01
  weight for this iteration     100.00

 Free energy of the ion-electron system (eV)
  ---------------------------------------------------
  alpha Z        PSCENC =        56.68637756
  Ewald energy   TEWEN  =     69177.38829180
  -Hartree energ DENC   =    -78058.42256142
  -exchange      EXHF   =         0.00000000
  -V(xc)+E(xc)   XCENC  =      -368.15551080
  PAW double counting   =     37079.16924732   -36143.06697599
  entropy T*S    EENTRO =        -0.22900455
  eigenvalues    EBANDS =     -2843.24562940
  atomic energy  EATOM  =     10062.93342562
  Solvation  Ediel_sol  =         0.00000000
  ---------------------------------------------------
  free energy    TOTEN  =     -1036.94233986 eV

  energy without entropy =    -1036.71333531  energy(sigma->0) =    -1036.82783758


--------------------------------------------------------------------------------------------------------




--------------------------------------- Iteration      1(   2)  ---------------------------------------


    POTLOK:  cpu time      2.2316: real time      2.2564
    SETDIJ:  cpu time      1.8664: real time      1.8678
    EDDIAG:  cpu time     46.1825: real time     46.2142
     EDDAV:  cpu time    223.2730: real time    223.4047
       DOS:  cpu time      0.0065: real time      0.0065
    CHARGE:  cpu time     26.3737: real time     26.4006
    MIXING:  cpu time      0.0445: real time      0.0449
    --------------------------------------------
      LOOP:  cpu time    299.9782: real time    300.1952

 eigenvalue-minimisations  :  2208
 total energy-change (2. order) : 0.7270377E+02  (-0.1188396E+01)
 number of electron     405.9999999 magnetization 
 augmentation part      -20.9612311 magnetization 

 Broyden mixing:
  rms(total) = 0.81389E+00    rms(broyden)= 0.81389E+00
  rms(prec ) = 0.81978E+00
  weight for this iteration     100.00

 eigenvalues of (default mixing * dielectric matrix)
  average eigenvalue GAMMA=   2.5384
  2.5384

 Free energy of the ion-electron system (eV)
  ---------------------------------------------------
  alpha Z        PSCENC =        56.68637756
  Ewald energy   TEWEN  =     69177.38829180
  -Hartree energ DENC   =    -78043.16344732
  -exchange      EXHF   =         0.00000000
  -V(xc)+E(xc)   XCENC  =      -359.37409117
  PAW double counting   =     44043.24526938   -43106.88433601
  entropy T*S    EENTRO =        -0.21751489
  eigenvalues    EBANDS =     -2794.85254898
  atomic energy  EATOM  =     10062.93342562
  Solvation  Ediel_sol  =         0.00000000
  ---------------------------------------------------
  free energy    TOTEN  =      -964.23857400 eV

  energy without entropy =     -964.02105912  energy(sigma->0) =     -964.12981656


--------------------------------------------------------------------------------------------------------




--------------------------------------- Iteration      1(   3)  ---------------------------------------


    POTLOK:  cpu time      2.2151: real time      2.2442
    SETDIJ:  cpu time      1.8744: real time      1.8758
    EDDIAG:  cpu time     46.1283: real time     46.1603
     EDDAV:  cpu time    236.4500: real time    236.5928
       DOS:  cpu time      0.0022: real time      0.0022
    CHARGE:  cpu time     26.3866: real time     26.4117
    MIXING:  cpu time      0.0416: real time      0.0416
    --------------------------------------------
      LOOP:  cpu time    313.0982: real time    313.3287

 eigenvalue-minimisations  :  2440
 total energy-change (2. order) :-0.3244518E+01  (-0.1063280E+01)
 number of electron     405.9999999 magnetization 
 augmentation part      -20.8658199 magnetization 

 Broyden mixing:
  rms(total) = 0.37830E+00    rms(broyden)= 0.37830E+00
  rms(prec ) = 0.66775E+00
  weight for this iteration     100.00

 eigenvalues of (default mixing * dielectric matrix)
  average eigenvalue GAMMA=   1.6253
  2.6512  0.5994

 Free energy of the ion-electron system (eV)
  ---------------------------------------------------
  alpha Z        PSCENC =        56.68637756
  Ewald energy   TEWEN  =     69177.38829180
  -Hartree energ DENC   =    -78043.54084194
  -exchange      EXHF   =         0.00000000
  -V(xc)+E(xc)   XCENC  =      -361.59075223
  PAW double counting   =     56259.25823951   -55323.18464294
  entropy T*S    EENTRO =        -0.21039325
  eigenvalues    EBANDS =     -2795.22279583
  atomic energy  EATOM  =     10062.93342562
  Solvation  Ediel_sol  =         0.00000000
  ---------------------------------------------------
  free energy    TOTEN  =      -967.48309169 eV

  energy without entropy =     -967.27269844  energy(sigma->0) =     -967.37789507


--------------------------------------------------------------------------------------------------------




--------------------------------------- Iteration      1(   4)  ---------------------------------------


    POTLOK:  cpu time      2.2254: real time      2.2528
    SETDIJ:  cpu time      1.8755: real time      1.8767
    EDDIAG:  cpu time     46.2056: real time     46.2363
     EDDAV:  cpu time    243.5037: real time    243.6499
       DOS:  cpu time      0.0089: real time      0.0089
    CHARGE:  cpu time     26.4047: real time     26.4307
    MIXING:  cpu time      0.0419: real time      0.0419
    --------------------------------------------
      LOOP:  cpu time    320.2657: real time    320.4971

 eigenvalue-minimisations  :  2552
 total energy-change (2. order) : 0.6591211E+00  (-0.4017427E+00)
 number of electron     405.9999999 magnetization 
 augmentation part      -20.8929258 magnetization 

 Broyden mixing:
  rms(total) = 0.17433E+00    rms(broyden)= 0.17433E+00
  rms(prec ) = 0.30173E+00
  weight for this iteration     100.00

 eigenvalues of (default mixing * dielectric matrix)
  average eigenvalue GAMMA=   1.2794
  2.6108  0.9108  0.3165

 Free energy of the ion-electron system (eV)
  ---------------------------------------------------
  alpha Z        PSCENC =        56.68637756
  Ewald energy   TEWEN  =     69177.38829180
  -Hartree energ DENC   =    -78044.09865116
  -exchange      EXHF   =         0.00000000
  -V(xc)+E(xc)   XCENC  =      -363.56940287
  PAW double counting   =     58181.11716689   -57245.04736885
  entropy T*S    EENTRO =        -0.20029115
  eigenvalues    EBANDS =     -2792.03351848
  atomic energy  EATOM  =     10062.93342562
  Solvation  Ediel_sol  =         0.00000000
  ---------------------------------------------------
  free energy    TOTEN  =      -966.82397063 eV

  energy without entropy =     -966.62367948  energy(sigma->0) =     -966.72382505


--------------------------------------------------------------------------------------------------------




--------------------------------------- Iteration      1(   5)  ---------------------------------------


    POTLOK:  cpu time      2.2221: real time      2.2495
    SETDIJ:  cpu time      1.8736: real time      1.8753
    EDDIAG:  cpu time     46.1786: real time     46.2101
     EDDAV:  cpu time    237.8049: real time    237.9509
       DOS:  cpu time      0.0029: real time      0.0029
    CHARGE:  cpu time     26.3842: real time     26.4079
    MIXING:  cpu time      0.0422: real time      0.0422
    --------------------------------------------
      LOOP:  cpu time    314.5087: real time    314.7389

 eigenvalue-minimisations  :  2464
 total energy-change (2. order) :-0.1395531E+00  (-0.1205452E+00)
 number of electron     405.9999999 magnetization 
 augmentation part      -20.8886428 magnetization 

 Broyden mixing:
  rms(total) = 0.91968E-01    rms(broyden)= 0.91968E-01
  rms(prec ) = 0.12178E+00
  weight for this iteration     100.00

 eigenvalues of (default mixing * dielectric matrix)
  average eigenvalue GAMMA=   1.1079
  2.5772  1.0517  0.3242  0.4786

 Free energy of the ion-electron system (eV)
  ---------------------------------------------------
  alpha Z        PSCENC =        56.68637756
  Ewald energy   TEWEN  =     69177.38829180
  -Hartree energ DENC   =    -78051.21456200
  -exchange      EXHF   =         0.00000000
  -V(xc)+E(xc)   XCENC  =      -364.18242357
  PAW double counting   =     58219.59309283   -57283.50210866
  entropy T*S    EENTRO =        -0.21664625
  eigenvalues    EBANDS =     -2784.44897109
  atomic energy  EATOM  =     10062.93342562
  Solvation  Ediel_sol  =         0.00000000
  ---------------------------------------------------
  free energy    TOTEN  =      -966.96352376 eV

  energy without entropy =     -966.74687751  energy(sigma->0) =     -966.85520064


--------------------------------------------------------------------------------------------------------




--------------------------------------- Iteration      1(   6)  ---------------------------------------


    POTLOK:  cpu time      2.2280: real time      2.2584
    SETDIJ:  cpu time      1.8726: real time      1.8738
    EDDIAG:  cpu time     46.1718: real time     46.2028
     EDDAV:  cpu time    226.6339: real time    226.7728
       DOS:  cpu time      0.0022: real time      0.0022
    CHARGE:  cpu time     26.3547: real time     26.3793
    MIXING:  cpu time      0.0438: real time      0.0439
    --------------------------------------------
      LOOP:  cpu time    303.3068: real time    303.5328

 eigenvalue-minimisations  :  2272
 total energy-change (2. order) :-0.3283850E-02  (-0.2046804E-01)
 number of electron     405.9999999 magnetization 
 augmentation part      -20.8884417 magnetization 

 Broyden mixing:
  rms(total) = 0.45344E-01    rms(broyden)= 0.45344E-01
  rms(prec ) = 0.53164E-01
  weight for this iteration     100.00

 eigenvalues of (default mixing * dielectric matrix)
  average eigenvalue GAMMA=   1.0284
  2.5578  1.1723  0.5484  0.5484  0.3149

 Free energy of the ion-electron system (eV)
  ---------------------------------------------------
  alpha Z        PSCENC =        56.68637756
  Ewald energy   TEWEN  =     69177.38829180
  -Hartree energ DENC   =    -78047.20145070
  -exchange      EXHF   =         0.00000000
  -V(xc)+E(xc)   XCENC  =      -364.56109163
  PAW double counting   =     58100.33151523   -57164.22110493
  entropy T*S    EENTRO =        -0.21525746
  eigenvalues    EBANDS =     -2788.10751311
  atomic energy  EATOM  =     10062.93342562
  Solvation  Ediel_sol  =         0.00000000
  ---------------------------------------------------
  free energy    TOTEN  =      -966.96680761 eV

  energy without entropy =     -966.75155016  energy(sigma->0) =     -966.85917889


--------------------------------------------------------------------------------------------------------




--------------------------------------- Iteration      1(   7)  ---------------------------------------


    POTLOK:  cpu time      2.2283: real time      2.2518
    SETDIJ:  cpu time      1.8784: real time      1.8798
    EDDIAG:  cpu time     46.1799: real time     46.2108
     EDDAV:  cpu time    236.1231: real time    236.2602
       DOS:  cpu time      0.0023: real time      0.0023
    CHARGE:  cpu time     26.3611: real time     26.3856
    MIXING:  cpu time      0.0435: real time      0.0435
    --------------------------------------------
      LOOP:  cpu time    312.8167: real time    313.0341

 eigenvalue-minimisations  :  2440
 total energy-change (2. order) : 0.3133472E-02  (-0.3675263E-02)
 number of electron     405.9999999 magnetization 
 augmentation part      -20.8884013 magnetization 

 Broyden mixing:
  rms(total) = 0.32908E-01    rms(broyden)= 0.32908E-01
  rms(prec ) = 0.36239E-01
  weight for this iteration     100.00

 eigenvalues of (default mixing * dielectric matrix)
  average eigenvalue GAMMA=   1.0385
  2.5417  1.3920  0.7564  0.7564  0.3190  0.4657

 Free energy of the ion-electron system (eV)
  ---------------------------------------------------
  alpha Z        PSCENC =        56.68637756
  Ewald energy   TEWEN  =     69177.38829180
  -Hartree energ DENC   =    -78044.17730200
  -exchange      EXHF   =         0.00000000
  -V(xc)+E(xc)   XCENC  =      -364.52254217
  PAW double counting   =     58059.26360642   -57123.14058003
  entropy T*S    EENTRO =        -0.21632654
  eigenvalues    EBANDS =     -2791.17862480
  atomic energy  EATOM  =     10062.93342562
  Solvation  Ediel_sol  =         0.00000000
  ---------------------------------------------------
  free energy    TOTEN  =      -966.96367414 eV

  energy without entropy =     -966.74734760  energy(sigma->0) =     -966.85551087


--------------------------------------------------------------------------------------------------------




--------------------------------------- Iteration      1(   8)  ---------------------------------------


    POTLOK:  cpu time      2.2531: real time      2.2558
    SETDIJ:  cpu time      1.8775: real time      1.8781
    EDDIAG:  cpu time     46.1877: real time     46.2198
     EDDAV:  cpu time    243.0062: real time    243.1526
       DOS:  cpu time      0.0049: real time      0.0049
    CHARGE:  cpu time     26.3640: real time     26.3875
    MIXING:  cpu time      0.0445: real time      0.0445
    --------------------------------------------
      LOOP:  cpu time    319.7379: real time    319.9432

 eigenvalue-minimisations  :  2552
 total energy-change (2. order) :-0.4405465E-03  (-0.1134776E-02)
 number of electron     405.9999999 magnetization 
 augmentation part      -20.8867503 magnetization 

 Broyden mixing:
  rms(total) = 0.20378E-01    rms(broyden)= 0.20378E-01
  rms(prec ) = 0.21873E-01
  weight for this iteration     100.00

 eigenvalues of (default mixing * dielectric matrix)
  average eigenvalue GAMMA=   1.1242
  2.5207  2.0752  0.9708  0.9708  0.3193  0.5062  0.5062

 Free energy of the ion-electron system (eV)
  ---------------------------------------------------
  alpha Z        PSCENC =        56.68637756
  Ewald energy   TEWEN  =     69177.38829180
  -Hartree energ DENC   =    -78042.82550590
  -exchange      EXHF   =         0.00000000
  -V(xc)+E(xc)   XCENC  =      -364.35808724
  PAW double counting   =     58046.34482918   -57110.20874464
  entropy T*S    EENTRO =        -0.21699022
  eigenvalues    EBANDS =     -2792.70771084
  atomic energy  EATOM  =     10062.93342562
  Solvation  Ediel_sol  =         0.00000000
  ---------------------------------------------------
  free energy    TOTEN  =      -966.96411469 eV

  energy without entropy =     -966.74712447  energy(sigma->0) =     -966.85561958


--------------------------------------------------------------------------------------------------------




--------------------------------------- Iteration      1(   9)  ---------------------------------------


    POTLOK:  cpu time      2.2371: real time      2.2594
    SETDIJ:  cpu time      1.8836: real time      1.8851
    EDDIAG:  cpu time     46.1799: real time     46.2112
     EDDAV:  cpu time    227.7251: real time    227.8594
       DOS:  cpu time      0.0024: real time      0.0024
    CHARGE:  cpu time     26.4098: real time     26.4364
    MIXING:  cpu time      0.0451: real time      0.0451
    --------------------------------------------
      LOOP:  cpu time    304.4830: real time    304.6991

 eigenvalue-minimisations  :  2296
 total energy-change (2. order) :-0.9116594E-03  (-0.4835217E-03)
 number of electron     405.9999999 magnetization 
 augmentation part      -20.8849584 magnetization 

 Broyden mixing:
  rms(total) = 0.92140E-02    rms(broyden)= 0.92140E-02
  rms(prec ) = 0.10249E-01
  weight for this iteration     100.00

 eigenvalues of (default mixing * dielectric matrix)
  average eigenvalue GAMMA=   1.1532
  2.5685  2.5685  1.0588  0.8411  0.8411  0.3193  0.5304  0.4976

 Free energy of the ion-electron system (eV)
  ---------------------------------------------------
  alpha Z        PSCENC =        56.68637756
  Ewald energy   TEWEN  =     69177.38829180
  -Hartree energ DENC   =    -78042.41492201
  -exchange      EXHF   =         0.00000000
  -V(xc)+E(xc)   XCENC  =      -364.19056830
  PAW double counting   =     58054.81958420   -57118.67086724
  entropy T*S    EENTRO =        -0.21676938
  eigenvalues    EBANDS =     -2793.29957860
  atomic energy  EATOM  =     10062.93342562
  Solvation  Ediel_sol  =         0.00000000
  ---------------------------------------------------
  free energy    TOTEN  =      -966.96502635 eV

  energy without entropy =     -966.74825697  energy(sigma->0) =     -966.85664166


--------------------------------------------------------------------------------------------------------




--------------------------------------- Iteration      1(  10)  ---------------------------------------


    POTLOK:  cpu time      2.2562: real time      2.2577
    SETDIJ:  cpu time      1.8828: real time      1.8843
    EDDIAG:  cpu time     46.2081: real time     46.2385
     EDDAV:  cpu time    228.7835: real time    228.9239
       DOS:  cpu time      0.0123: real time      0.0127
    CHARGE:  cpu time     26.4005: real time     26.4268
    MIXING:  cpu time      0.0623: real time      0.0636
    --------------------------------------------
      LOOP:  cpu time    305.6055: real time    305.8076

 eigenvalue-minimisations  :  2312
 total energy-change (2. order) :-0.3490529E-03  (-0.2109901E-03)
 number of electron     405.9999999 magnetization 
 augmentation part      -20.8845952 magnetization 

 Broyden mixing:
  rms(total) = 0.41973E-02    rms(broyden)= 0.41973E-02
  rms(prec ) = 0.51691E-02
  weight for this iteration     100.00

 eigenvalues of (default mixing * dielectric matrix)
  average eigenvalue GAMMA=   1.1164
  2.5768  2.5768  1.2598  0.8970  0.7254  0.7254  0.3193  0.4834  0.4834

 Free energy of the ion-electron system (eV)
  ---------------------------------------------------
  alpha Z        PSCENC =        56.68637756
  Ewald energy   TEWEN  =     69177.38829180
  -Hartree energ DENC   =    -78041.53846504
  -exchange      EXHF   =         0.00000000
  -V(xc)+E(xc)   XCENC  =      -364.10056337
  PAW double counting   =     58068.70995899   -57132.55100210
  entropy T*S    EENTRO =        -0.21713516
  eigenvalues    EBANDS =     -2794.27626371
  atomic energy  EATOM  =     10062.93342562
  Solvation  Ediel_sol  =         0.00000000
  ---------------------------------------------------
  free energy    TOTEN  =      -966.96537540 eV

  energy without entropy =     -966.74824024  energy(sigma->0) =     -966.85680782


--------------------------------------------------------------------------------------------------------




--------------------------------------- Iteration      1(  11)  ---------------------------------------


    POTLOK:  cpu time      2.2298: real time      2.2544
    SETDIJ:  cpu time      1.8938: real time      1.8953
    EDDIAG:  cpu time     46.1767: real time     46.2086
     EDDAV:  cpu time    231.0884: real time    231.2234
       DOS:  cpu time      0.0035: real time      0.0035
    CHARGE:  cpu time     26.4110: real time     26.4376
    MIXING:  cpu time      0.0468: real time      0.0469
    --------------------------------------------
      LOOP:  cpu time    307.8502: real time    308.0697

 eigenvalue-minimisations  :  2352
 total energy-change (2. order) :-0.6430225E-04  (-0.6426902E-04)
 number of electron     405.9999999 magnetization 
 augmentation part      -20.8846415 magnetization 

 Broyden mixing:
  rms(total) = 0.20038E-02    rms(broyden)= 0.20038E-02
  rms(prec ) = 0.23903E-02
  weight for this iteration     100.00

 eigenvalues of (default mixing * dielectric matrix)
  average eigenvalue GAMMA=   1.1329
  2.6733  2.6733  1.4942  0.8750  0.8750  0.8285  0.3193  0.6454  0.4726  0.4726

 Free energy of the ion-electron system (eV)
  ---------------------------------------------------
  alpha Z        PSCENC =        56.68637756
  Ewald energy   TEWEN  =     69177.38829180
  -Hartree energ DENC   =    -78041.36259865
  -exchange      EXHF   =         0.00000000
  -V(xc)+E(xc)   XCENC  =      -364.11802878
  PAW double counting   =     58067.17362961   -57131.01239006
  entropy T*S    EENTRO =        -0.21685613
  eigenvalues    EBANDS =     -2794.43729067
  atomic energy  EATOM  =     10062.93342562
  Solvation  Ediel_sol  =         0.00000000
  ---------------------------------------------------
  free energy    TOTEN  =      -966.96543970 eV

  energy without entropy =     -966.74858357  energy(sigma->0) =     -966.85701164


--------------------------------------------------------------------------------------------------------




--------------------------------------- Iteration      1(  12)  ---------------------------------------


    POTLOK:  cpu time      2.2563: real time      2.2582
    SETDIJ:  cpu time      1.8809: real time      1.8821
    EDDIAG:  cpu time     46.1914: real time     46.2220
     EDDAV:  cpu time    225.8193: real time    225.9534
       DOS:  cpu time      0.0029: real time      0.0029
    CHARGE:  cpu time     26.3879: real time     26.4120
    MIXING:  cpu time      0.0467: real time      0.0477
    --------------------------------------------
      LOOP:  cpu time    302.5855: real time    302.7783

 eigenvalue-minimisations  :  2256
 total energy-change (2. order) :-0.9532203E-05  (-0.4998680E-04)
 number of electron     405.9999999 magnetization 
 augmentation part      -20.8847440 magnetization 

 Broyden mixing:
  rms(total) = 0.11092E-02    rms(broyden)= 0.11092E-02
  rms(prec ) = 0.13479E-02
  weight for this iteration     100.00

 eigenvalues of (default mixing * dielectric matrix)
  average eigenvalue GAMMA=   1.1715
  2.7824  2.7824  1.9195  1.1433  0.8629  0.8629  0.3193  0.6379  0.6379  0.4689
  0.4689

 Free energy of the ion-electron system (eV)
  ---------------------------------------------------
  alpha Z        PSCENC =        56.68637756
  Ewald energy   TEWEN  =     69177.38829180
  -Hartree energ DENC   =    -78040.93476991
  -exchange      EXHF   =         0.00000000
  -V(xc)+E(xc)   XCENC  =      -364.12018126
  PAW double counting   =     58060.58210260   -57124.41863443
  entropy T*S    EENTRO =        -0.21692446
  eigenvalues    EBANDS =     -2794.86513675
  atomic energy  EATOM  =     10062.93342562
  Solvation  Ediel_sol  =         0.00000000
  ---------------------------------------------------
  free energy    TOTEN  =      -966.96544924 eV

  energy without entropy =     -966.74852477  energy(sigma->0) =     -966.85698700


--------------------------------------------------------------------------------------------------------




--------------------------------------- Iteration      1(  13)  ---------------------------------------


    POTLOK:  cpu time      2.2307: real time      2.2575
    SETDIJ:  cpu time      1.8872: real time      1.8884
    EDDIAG:  cpu time     46.1852: real time     46.2156
     EDDAV:  cpu time    224.5777: real time    224.7115
       DOS:  cpu time      0.0130: real time      0.0131
    CHARGE:  cpu time     26.4234: real time     26.4495
    MIXING:  cpu time      0.0629: real time      0.0630
    --------------------------------------------
      LOOP:  cpu time    301.3801: real time    301.5986

 eigenvalue-minimisations  :  2240
 total energy-change (2. order) :-0.1268164E-03  (-0.3352978E-04)
 number of electron     405.9999999 magnetization 
 augmentation part      -20.8849026 magnetization 

 Broyden mixing:
  rms(total) = 0.59924E-03    rms(broyden)= 0.59924E-03
  rms(prec ) = 0.83466E-03
  weight for this iteration     100.00

 eigenvalues of (default mixing * dielectric matrix)
  average eigenvalue GAMMA=   1.1866
  2.8984  2.8984  2.1249  1.2922  0.8857  0.8857  0.3193  0.7393  0.6234  0.6234
  0.4741  0.4741

[...]
   0.969E+01 0.361E+02 -.354E+03   -.909E+01 -.348E+02 0.352E+03   0.568E-01 -.101E+01 0.235E+01   -.536E-04 -.541E-04 0.361E-04
   -.819E+01 0.939E+01 0.395E+03   0.914E+01 -.901E+01 -.398E+03   -.534E-01 -.125E+01 0.232E+01   -.676E-06 0.312E-04 0.343E-04
   0.247E+02 -.401E+02 -.226E+02   -.237E+02 0.386E+02 0.206E+02   -.190E+01 0.783E+00 0.165E+01   -.725E-05 0.520E-04 0.697E-04
   -.195E+02 -.365E+02 -.328E+03   0.166E+02 0.356E+02 0.325E+03   0.334E+01 0.633E+00 0.444E+01   0.980E-04 0.180E-04 0.602E-04
   0.147E+02 0.334E+02 0.296E+03   -.151E+02 -.360E+02 -.295E+03   0.629E+00 0.230E+01 -.340E+00   -.239E-04 -.300E-04 -.776E-05
   0.585E+01 0.559E+00 -.153E+03   -.406E+01 -.185E+01 0.154E+03   -.930E+00 0.223E+01 -.470E+00   0.678E-04 -.680E-04 0.878E-04
   -.104E+02 0.272E+02 0.113E+02   0.899E+01 -.257E+02 -.106E+02   0.297E+01 -.939E+00 -.499E+00   -.204E-04 -.410E-04 0.680E-04
   -.123E+01 0.267E+02 -.256E+03   -.167E+00 -.255E+02 0.257E+03   0.227E+01 -.176E+01 -.621E-01   -.848E-04 -.335E-04 0.106E-03
   0.127E+02 0.158E+02 -.420E+03   -.132E+02 -.144E+02 0.421E+03   0.938E-01 -.112E+01 -.885E+00   0.977E-04 0.482E-04 -.695E-04
   0.128E+02 -.200E+02 0.156E+03   -.138E+02 0.178E+02 -.157E+03   0.224E+01 0.253E+01 0.279E+01   0.974E-05 0.481E-04 0.787E-04
   0.115E+02 0.228E+01 -.202E+03   -.125E+02 -.254E+01 0.204E+03   0.140E+01 0.408E+00 -.254E+01   -.246E-04 0.757E-04 0.412E-04
 -----------------------------------------------------------------------------------------------
   -.197E+01 0.491E+00 -.198E+02   0.977E-13 0.258E-13 -.313E-12   0.197E+01 -.499E+00 0.198E+02   0.718E-04 -.124E-03 0.641E-02


 POSITION                                       TOTAL-FORCE (eV/Angst)
 -----------------------------------------------------------------------------------
      5.30823      3.68927     13.01892         0.195100     -0.456163     -0.176338
      1.50890      9.18934     13.71086         0.484525     -0.097331     -0.469357
      1.48587      4.77948     14.81974         0.000087     -0.242757     -0.279934
      0.71469      6.65824     15.96641         0.588704      0.302456     -0.941940
      0.61431      6.78324     13.90346         0.314283      0.078234      0.172857
      4.50745     12.03520     11.83777        -0.065920     -0.048003     -0.028634
      3.16717      9.75961     10.14039         0.748295      1.053568      0.686381
      5.39407     10.81500     17.45596         0.137655     -1.158391     -0.076052
      6.93053      9.78697     12.45675         0.479808      1.238712     -0.872057
      2.88107      9.94358     15.65474        -0.205059     -0.091678     -0.226093
      6.45746     12.18990     11.78882         0.125291     -0.004464     -0.175217
      3.80986     12.26230     12.01282         0.176176     -0.067620     -0.185011
      1.95957     10.64190     12.14230         0.366916     -1.114133      0.197124
      4.50841     10.04860     13.22432        -0.086397     -0.112228     -0.660880
      4.90797      9.97032     15.54432        -0.230954     -0.293827      0.044440
      4.77117      8.30052     13.41046        -0.004617     -0.695374     -0.266205
      3.34010     10.27220     17.42617        -0.170055     -0.059121     -0.467271
      2.60419      7.87456     16.75513        -0.619794      0.268442     -1.520624
      2.79719      8.25770     12.29642        -0.398529     -0.242735     -0.056545
      3.14870      8.88841     12.17167        -0.029768      0.343028     -0.157259
      5.29747     11.51480     17.58218        -0.170765      1.274824      0.357131
      3.27540      7.03824     14.72819         1.209535     -1.055975      0.183847
      4.50068      9.07487     17.18838        -0.539305      0.495816     -0.109954
      6.63674      2.71932     10.81214        -0.236839      0.414182     -0.219333
      2.80473      7.78264     17.42149         0.362240     -0.138681      1.700273
      4.73148      8.51110     10.71011         0.441398     -0.261383     -0.039253
     14.43910      9.42259     10.50604         0.081575     -0.739049      0.674703
      3.59643     10.24610     10.58929        -0.873102     -0.792873     -1.056888
      0.81478      8.69482     15.70111        -0.378552     -0.559059      0.865288
      2.71345      7.46161     14.69893        -1.672553      1.077887     -0.115146
      9.71293     11.63250     11.73641        -0.587984     -0.064968      0.896396
      2.78277      1.85247     11.72416        -0.561516     -0.371511      0.085396
     12.36200      0.22037     18.91443        -0.592837     -0.051062      0.657764
     13.18160     10.68910     13.00857         0.750635      0.011670      0.162921
      1.54809      9.74466     15.05431        -0.736055      0.405235     -0.378981
     11.20180      4.44402     11.62848         0.332705     -1.273087     -0.520138
      6.72952      0.43737     15.55087         0.854697      0.298169      0.145553
     13.34010     11.77330     16.67373         1.069424     -0.572266     -0.663469
      6.67601      1.53909     11.71116         0.154857     -0.892321     -0.220328
     13.95250     11.85380     11.07871        -1.540486      0.291227     -0.662416
     10.73510      6.11845     15.66005        -0.410863     -0.087485     -0.990718
     11.83970      8.16075     15.54569         0.227103     -0.127904      0.293788
     12.14150      4.37399     15.14139         1.122407      1.141299     -0.562407
      8.20441      6.78891     18.37641         0.211356     -0.107604     -0.102913
      6.75757      2.74553     18.46598         0.158335     -0.891222     -0.165477
     13.11060      8.18187     17.50993        -1.042295     -0.433713     -0.523358
     11.45910      0.52786     11.39176         0.494786      0.346663     -2.184056
      8.51267     10.36270     18.11814         0.741924      0.366096      0.051072
     10.37170      3.74762     18.30236        -0.543555      0.355482     -0.038587
      2.83075     11.23990     18.41626        -0.614478      0.340058      1.110648
      2.88979     13.19660     17.08386        -0.494813     -0.888465     -0.331666
      6.97067      4.89847     17.75941        -0.603615      0.786407      0.527614
      1.36410      3.83766     15.96549        -0.292371      0.588381      0.965028
     10.73110      8.02229     12.01282        -0.925614     -0.018628     -0.934547
      0.15558      3.81260     11.97235        -0.136508     -0.423969     -0.024864
     11.65170      2.21588     15.09795        -0.734405     -0.726424     -1.179938
     14.19610      6.91460     12.83058        -0.555948      1.196836      0.046540
      2.71307      4.75242     17.79367        -0.409218     -0.173075      0.415206
     10.32900      0.48210     17.70699        -0.391950     -0.620185      0.156625
      8.44189      9.49147     14.93945        -1.743297     -0.848723     -0.431780
     10.51040      0.97580     13.33040        -0.534350      0.533906      1.320270
      8.88277      5.73819     14.29381         0.101957      0.186526     -0.301013
     11.19690     11.45900     13.70404        -1.103718      0.818745     -0.533204
      0.05433      6.47147     17.21914        -1.389304     -0.001609      0.198141
      2.99786      2.79575     19.08505         0.127333      0.787767     -0.045096
      4.76983      5.92294     17.47406         0.827675     -0.231762     -0.608196
      1.44532     13.03540     13.74907        -0.425437      0.607230     -0.461196
     11.12040     11.64480     16.88029        -0.861551      0.042541      0.749806
      1.30446      6.12190     19.01461         0.706940      0.011556      1.327822
      4.89293     10.84560     14.36064         0.144187      1.526519      1.419950
      1.55821      1.59146     15.66368         1.230010      0.662269     -0.384974
      8.45548      2.02057     13.14326         0.029017     -0.700125     -0.488978
      7.44214     11.07420     11.63777        -0.319354     -1.512799      0.791645
      9.83533      2.38343     16.47607        -0.657234      0.150169      0.312082
      3.59498      5.68340     11.30873         0.560570      0.905252     -0.395792
      7.73375      2.53059     15.22326         0.514827     -1.356810      0.869602
      4.22634      3.67016     14.04775        -0.059755      2.098347     -0.262609
     13.54810     13.94320     17.14572        -0.294226      0.735743      0.222059
     13.76530      4.34979     16.73736         0.783906      0.372921     -0.119304
     12.50650      8.44613     13.36599         1.403338      0.450504     -0.168251
      4.62047      2.11250     17.62531         0.637552     -0.369782      0.861559
      8.06150     13.51910     14.36062         0.831036      0.452864     -0.325356
      7.89767      0.32347     10.03957         1.017141     -0.428080      0.085196
      7.16152     11.46390     14.73669        -0.859722     -1.201652     -1.381853
      3.92426      1.98621     15.45612        -0.972297     -1.042722      0.225802
      5.47752      8.18508     17.76031         0.223770     -1.324006      0.281587
      0.39273      0.60076     13.97995         0.262185     -0.867479     -0.400811
      2.47371      4.00358     12.40947        -0.071400      0.199500      0.097573
      0.05801     11.49890     14.76085        -0.113635     -0.613038     -0.283980
     11.18180     13.66950     14.47977        -0.502224     -0.464805     -0.350718
     13.57450     14.23590     11.06198         0.101738     -0.383957      0.702791
     12.99620      5.02141     13.08013         0.226269     -1.450533     -0.831998
     13.51120     10.24190     18.39829         0.164229      0.222711      0.633740
      1.48664     11.90080     11.67146         0.387763      1.526692      0.535124
      0.23531      7.87178     10.81845         0.079813     -0.202425     -1.164685
     10.51840     10.02570     15.45961         0.329000     -0.174286     -0.271774
      1.14346      1.56435     19.07255        -0.669716      0.481764      0.452887
      9.09308      4.11055     12.54710        -0.370067      1.283768     -0.267571
      6.08043      8.11055     10.10505        -0.050246      0.611929      0.121877
      8.18389      0.86182     18.48498        -0.542121      0.989834      0.300641
      4.90955      6.86238     12.95306         0.592704      0.179263      0.569526
      7.19657      4.80243     11.13891         0.465875      0.538443      0.202490
     12.97760      0.37324     15.15250         0.496058     -0.339222      0.244775
      7.03949      6.98110     11.95192        -1.407220     -0.817030     -1.280687
      4.82844      0.17276     14.44699        -1.783948     -1.407079     -1.402888
      6.61486     13.98770     17.66260        -0.202060      0.148045      0.389370
     11.20430      2.53728     10.00000        -0.156898     -0.007718      0.841362
     11.14810      6.31784     10.39862         0.354001      1.164060     -0.143157
      7.11637      4.66663     15.46213         0.454014      1.031504     -0.245472
     12.58640      3.89082     18.59863         0.327075     -0.269130      0.888151
      9.81473     13.62610     10.64046        -0.972795      1.206874      0.319238
      7.69597     12.18670     16.82863         0.275454     -0.806324      0.965517
      0.36551      1.44815     11.87003         0.886275      0.244739     -0.640501
      4.42634     14.43170     18.14292         0.717978      0.209392      0.307718
     10.66850      9.95389     10.59051         0.797543     -0.904478     -0.600331
      5.14702      5.71631     15.04845        -0.910948     -0.849013     -0.256092
     10.36060      6.11161     17.85450         0.571829     -0.328857      1.591590
      4.61743      0.48476     12.09707         0.332979      0.083939      0.215704
      9.64081     13.30190     16.22516         0.836516      1.061961      0.503707
      3.42484     12.75460     14.84161         1.709711      0.579360      0.132620
      1.08774      0.11003     17.32154         1.006841     -0.552202      0.464682
     11.48120     11.37270     19.13772        -0.368539      0.113632      0.418763
      8.64646      7.84437     13.13253         1.329941      0.319873      1.766502
      7.56764      8.51843     16.97557         0.523918      0.195571     -0.096347
 -----------------------------------------------------------------------------------
    total drift:                                0.001855     -0.008044      0.002217


--------------------------------------------------------------------------------------------------------



  FREE ENERGIE OF THE ION-ELECTRON SYSTEM (eV)
  ---------------------------------------------------
  free  energy   TOTEN  =      -966.96620515 eV

  energy  without entropy=     -966.74926973  energy(sigma->0) =     -966.85773744



--------------------------------------------------------------------------------------------------------


    POTLOK:  cpu time      4.0786: real time      4.0820


--------------------------------------------------------------------------------------------------------


     LOOP+:  cpu time   7205.8170: real time   7210.9173
    4ORBIT:  cpu time      0.0000: real time      0.0000



 total charge

# of ion       s       p       d       tot
------------------------------------------
    1        0.565   0.017   0.000   0.582
    2        0.593   0.018   0.000   0.611
    3        0.564   0.017   0.000   0.581
    4        0.597   0.020   0.000   0.617
    5        0.572   0.017   0.000   0.589
    6        0.606   0.032   0.000   0.638
    7        0.581   0.027   0.000   0.608
    8        0.626   0.041   0.000   0.666
    9        0.510   0.014   0.000   0.524
   10        0.571   0.019   0.000   0.590
   11        0.555   0.016   0.000   0.572
   12        0.606   0.034   0.000   0.640
   13        0.598   0.020   0.000   0.618
   14        0.587   0.019   0.000   0.606
   15        0.584   0.018   0.000   0.601
   16        0.562   0.016   0.000   0.579
   17        0.590   0.019   0.000   0.609
   18        0.642   0.043   0.000   0.685
   19        0.628   0.036   0.000   0.664
   20        0.621   0.037   0.000   0.657
   21        0.636   0.039   0.000   0.675
   22        0.646   0.043   0.000   0.689
   23        0.592   0.022   0.000   0.614
   24        0.566   0.020   0.000   0.587
   25        0.652   0.041   0.000   0.693
   26        0.559   0.015   0.000   0.574
   27        0.505   0.012   0.000   0.518
   28        0.584   0.027   0.000   0.611
   29        0.602   0.019   0.000   0.620
   30        0.643   0.041   0.000   0.684
   31        0.754   0.957   0.000   1.711
   32        0.800   0.832   0.000   1.632
   33        0.870   0.728   0.000   1.599
   34        0.761   0.934   0.000   1.694
   35        0.745   1.072   0.000   1.817
   36        0.762   0.935   0.000   1.697
   37        0.775   0.945   0.000   1.720
   38        0.771   0.987   0.000   1.758
   39        0.763   0.940   0.000   1.703
   40        0.784   0.872   0.000   1.655
   41        0.762   0.983   0.000   1.746
   42        0.761   0.971   0.000   1.732
   43        0.766   0.986   0.000   1.752
   44        0.801   0.854   0.000   1.655
   45        0.778   0.867   0.000   1.645
   46        0.781   0.872   0.000   1.653
   47        0.755   0.965   0.000   1.720
   48        0.857   0.729   0.000   1.586
   49        0.802   0.869   0.000   1.671
   50        0.871   0.755   0.000   1.626
   51        0.758   0.974   0.000   1.731
   52        0.757   0.936   0.000   1.693
   53        0.756   0.948   0.000   1.704
   54        0.756   0.945   0.000   1.700
   55        0.800   0.827   0.000   1.627
   56        0.762   0.985   0.000   1.747
   57        0.749   1.008   0.000   1.757
   58        0.755   0.912   0.000   1.667
   59        0.772   0.911   0.000   1.682
   60        0.769   0.923   0.000   1.692
   61        0.775   0.945   0.000   1.721
   62        0.762   0.917   0.000   1.679
   63        0.772   0.925   0.000   1.697
   64        0.761   1.031   0.000   1.792
   65        0.791   0.908   0.000   1.699
   66        0.761   0.876   0.000   1.637
   67        0.757   0.953   0.000   1.710
   68        0.780   0.974   0.000   1.754
   69        0.879   0.773   0.000   1.651
   70        0.746   0.982   0.000   1.728
   71        0.756   0.985   0.000   1.742
   72        0.757   0.991   0.000   1.748
   73        0.758   0.885   0.000   1.644
   74        0.772   0.920   0.000   1.692
   75        0.868   0.722   0.000   1.590
   76        0.762   0.957   0.000   1.719
   77        0.766   0.936   0.000   1.702
   78        0.760   1.025   0.000   1.785
   79        0.766   0.976   0.000   1.742
   80        0.766   0.952   0.000   1.718
   81        0.760   0.955   0.000   1.715
   82        0.838   0.813   0.000   1.651
   83        0.857   0.722   0.000   1.579
   84        0.756   0.960   0.000   1.716
   85        0.767   0.989   0.000   1.757
   86        0.786   0.906   0.000   1.692
   87        0.761   0.955   0.000   1.716
   88        0.763   0.936   0.000   1.699
   89        0.763   0.959   0.000   1.722
   90        0.777   0.924   0.000   1.701
   91        0.788   0.836   0.000   1.624
   92        0.765   0.938   0.000   1.703
   93        0.802   0.860   0.000   1.663
   94        0.798   0.934   0.000   1.732
   95        0.843   0.736   0.000   1.579
   96        0.764   1.007   0.000   1.771
   97        0.840   0.798   0.000   1.638
   98        0.761   0.936   0.000   1.697
   99        0.868   0.731   0.000   1.599
  100        0.791   0.856   0.000   1.647
  101        0.759   0.911   0.000   1.670
  102        0.877   0.706   0.000   1.583
  103        0.763   0.980   0.000   1.744
  104        0.765   0.999   0.000   1.765
  105        0.761   0.962   0.000   1.723
  106        0.768   0.976   0.000   1.744
  107        0.883   0.669   0.000   1.552
  108        0.863   0.755   0.000   1.618
  109        0.762   0.980   0.000   1.741
  110        0.844   0.788   0.000   1.632
  111        0.788   0.878   0.000   1.666
  112        0.779   0.944   0.000   1.723
  113        0.758   0.904   0.000   1.662
  114        0.798   0.898   0.000   1.696
  115        0.877   0.738   0.000   1.616
  116        0.769   0.917   0.000   1.686
  117        0.783   0.873   0.000   1.657
  118        0.795   0.868   0.000   1.663
  119        0.752   0.986   0.000   1.738
  120        0.753   0.929   0.000   1.682
  121        0.762   0.989   0.000   1.751
  122        0.870   0.710   0.000   1.580
  123        0.764   0.943   0.000   1.707
  124        0.757   0.943   0.000   1.699
--------------------------------------------------
tot         91.510  85.810   0.000 177.320


 total amount of memory used by VASP MPI-rank0   403700. kBytes
=======================================================================

   base                                    :      30000. kBytes
   nonl-proj                               :      91393. kBytes
   fftplans                                :     114284. kBytes
   grid                                    :      88184. kBytes
   one-center                              :         24. kBytes
   wavefun                                 :      79815. kBytes

  
  
 General timing and accounting informations for this job:
 ========================================================
  
                  Total CPU time used (sec):     7368.353
                            User time (sec):     6579.214
                          System time (sec):      789.138
                         Elapsed time (sec):     7373.563
  
                   Maximum memory used (kb):      672028.
                   Average memory used (kb):          N/A
  
                          Minor page faults:     12481193
                          Major page faults:         1197
                 Voluntary context switches:         2954
