 vasp.6.5.0 16Dec24 (build Jan 20 2025 08:32:48) complex                         
 executed on        HPECrayEX_GCC date 2025.07.28  22:10:18
 running  128 mpi-ranks, with    1 threads/rank, on    1 nodes
 distrk:  each k-point on  128 cores,    1 groups
 distr:  one band on NCORE=  16 cores,    8 groups


--------------------------------------------------------------------------------------------------------


 INCAR:
   SYSTEM = a-Si SPC
   NCORE = 16
   ISTART = 1
   ICHARG = 1
   ISPIN = 1
   ISYM = 1
   EDIFF = 1E-6
   NELM = 150
   EDIFFG = -0.01
   NSW = 0
   ISIF = 2
   IBRION = -1
   PREC = Accurate
   ENCUT = 1200
   KSPACING = 0.23
   KGAMMA = .TRUE.
   METAGGA = SCAN
   LASPH = .TRUE.
   LDIAG = .FALSE.
   LMIXTAU = .TRUE.
   ADDGRID = .TRUE.
   ALGO = Normal
   ISMEAR = 0
   SIGMA = 0.1
   LORBIT = 11
   NEDOS = 2000
   LWAVE = .FALSE.
   LCHARG = .FALSE.

 POTCAR:    PAW_PBE H 15Jun2001                   
 POTCAR:    PAW_PBE Si 05Jan2001                  
 POTCAR:    PAW_PBE H 15Jun2001                   
   SHA256 =  030f79b5d3ab3cf0e668861823c8fb652ff669f3e15e46930bd03bfd63a607b6 H/POTCAR              
   COPYR  = (c) Copyright 15Jun2001 Georg Kresse                                                    
   COPYR  = This file is part of the software VASP. Any use, copying, and all other rights are regul
   COPYR  = If you do not have a valid VASP license, you may not use, copy or distribute this file. 
   VRHFIN =H: ultrasoft test                                                                        
   LEXCH  = PE                                                                                      
   EATOM  =    12.4884 eV,    0.9179 Ry                                                             
                                                                                                    
   TITEL  = PAW_PBE H 15Jun2001                                                                     
   LULTRA =        F    use ultrasoft PP ?                                                          
   IUNSCR =        0    unscreen: 0-lin 1-nonlin 2-no                                               
   RPACOR =    0.000    partial core radius                                                         
   POMASS =    1.000; ZVAL   =    1.000    mass and valenz                                          
   RCORE  =    1.100    outmost cutoff radius                                                       
   RWIGS  =    0.700; RWIGS  =    0.370    wigner-seitz radius (au A)                               
   ENMAX  =  250.000; ENMIN  =  200.000 eV                                                          
   RCLOC  =    0.701    cutoff for local pot                                                        
   LCOR   =        T    correct aug charges                                                         
   LPAW   =        T    paw PP                                                                      
   EAUG   =  400.000                                                                                
   RMAX   =    1.123    core radius for proj-oper                                                   
   RAUG   =    1.200    factor for augmentation sphere                                              
   RDEP   =    1.112    radius for radial grids                                                     
   RDEPT  =    0.926    core radius for aug-charge                                                  
                                                                                                    
   Atomic configuration                                                                             
    2 entries                                                                                       
     n  l   j            E        occ.                                                              
     1  0  0.50        -6.4927   1.0000                                                             
     2  1  0.50        -3.4015   0.0000                                                             
   Description                                                                                      
     l       E           TYP  RCUT    TYP  RCUT                                                     
     0     -6.4927494     23  1.100                                                                 
     0      6.8029130     23  1.100                                                                 
     1     -4.0817478     23  1.100                                                                 
  local pseudopotential read in
  atomic valenz-charges read in
  non local Contribution for L=           0  read in
    real space projection operators read in
  non local Contribution for L=           0  read in
    real space projection operators read in
  non local Contribution for L=           1  read in
    real space projection operators read in
    PAW grid and wavefunctions read in

   number of l-projection  operators is LMAX  =           3
   number of lm-projection operators is LMMAX =           5

 POTCAR:    PAW_PBE Si 05Jan2001                  
   SHA256 =  79d9987ad8750f624c4d6acb2a16d13abf6a777132adc04dc6c8399be72b42bb Si/POTCAR             
   COPYR  = (c) Copyright 05Jan2001 Georg Kresse                                                    
   COPYR  = This file is part of the software VASP. Any use, copying, and all other rights are regul
   COPYR  = If you do not have a valid VASP license, you may not use, copy or distribute this file. 
   VRHFIN =Si: s2p2                                                                                 
   LEXCH  = PE                                                                                      
   EATOM  =   103.0669 eV,    7.5752 Ry                                                             
                                                                                                    
   TITEL  = PAW_PBE Si 05Jan2001                                                                    
   LULTRA =        F    use ultrasoft PP ?                                                          
   IUNSCR =        1    unscreen: 0-lin 1-nonlin 2-no                                               
   RPACOR =    1.500    partial core radius                                                         
   POMASS =   28.085; ZVAL   =    4.000    mass and valenz                                          
   RCORE  =    1.900    outmost cutoff radius                                                       
   RWIGS  =    2.480; RWIGS  =    1.312    wigner-seitz radius (au A)                               
   ENMAX  =  245.345; ENMIN  =  184.009 eV                                                          
   ICORE  =        2    local potential                                                             
   LCOR   =        T    correct aug charges                                                         
   LPAW   =        T    paw PP                                                                      
   EAUG   =  322.069                                                                                
   DEXC   =    0.000                                                                                
   RMAX   =    1.950    core radius for proj-oper                                                   
   RAUG   =    1.300    factor for augmentation sphere                                              
   RDEP   =    1.993    radius for radial grids                                                     
   RDEPT  =    1.837    core radius for aug-charge                                                  
                                                                                                    
   Atomic configuration                                                                             
    6 entries                                                                                       
     n  l   j            E        occ.                                                              
     1  0  0.50     -1785.8828   2.0000                                                             
     2  0  0.50      -139.4969   2.0000                                                             
     2  1  1.50       -95.5546   6.0000                                                             
     3  0  0.50       -10.8127   2.0000                                                             
     3  1  0.50        -4.0811   2.0000                                                             
     3  2  1.50        -4.0817   0.0000                                                             
   Description                                                                                      
     l       E           TYP  RCUT    TYP  RCUT                                                     
     0    -10.8127223     23  1.900                                                                 
     0     -7.6451159     23  1.900                                                                 
     1     -4.0811372     23  1.900                                                                 
     1      2.4879257     23  1.900                                                                 
     2     -4.0817478      7  1.900                                                                 
  local pseudopotential read in
  partial core-charges read in
  partial kinetic energy density read in
  atomic valenz-charges read in
  non local Contribution for L=           0  read in
    real space projection operators read in
  non local Contribution for L=           0  read in
    real space projection operators read in
  non local Contribution for L=           1  read in
    real space projection operators read in
  non local Contribution for L=           1  read in
    real space projection operators read in
    PAW grid and wavefunctions read in

   number of l-projection  operators is LMAX  =           4
   number of lm-projection operators is LMMAX =           8

 -----------------------------------------------------------------------------
|                                                                             |
|               ----> ADVICE to this user running VASP <----                  |
|                                                                             |
|     You have a (more or less) 'large supercell' and for larger cells it     |
|     might be more efficient to use real-space projection operators.         |
|     Therefore, try LREAL= Auto in the INCAR file.                           |
|     Mind: For very accurate calculation, you might also keep the            |
|     reciprocal projection scheme (i.e. LREAL=.FALSE.).                      |
|                                                                             |
 -----------------------------------------------------------------------------

 -----------------------------------------------------------------------------
|                                                                             |
|               ----> ADVICE to this user running VASP <----                  |
|                                                                             |
|     You enforced a specific xc type in the INCAR file but a different       |
|     type was found in the POTCAR file.                                      |
|     I HOPE YOU KNOW WHAT YOU ARE DOING!                                     |
|                                                                             |
 -----------------------------------------------------------------------------

  PAW_PBE H 15Jun2001                   :
 energy of atom  1       EATOM=  -12.4884
 kinetic energy error for atom=    0.0000 (will be added to EATOM!!)
  PAW_PBE Si 05Jan2001                  :
 energy of atom  2       EATOM= -103.0669
 kinetic energy error for atom=    0.0001 (will be added to EATOM!!)


 POSCAR:  H Si
  positions in cartesian coordinates
  No initial velocities read in


 exchange-correlation table for SCAN
   RHO(1)=    0.500       N(1)  =     2000
   RHO(2)=  100.500       N(2)  =     4000



--------------------------------------------------------------------------------------------------------


 ion  position               nearest neighbor table
   1  0.272  0.205  0.453-  14 0.74
   2  0.148  0.552  0.541-  96 1.48
   3  0.272  0.609  0.590-  96 1.47
   4  0.081  0.468  0.468- 119 1.49
   5  0.073  0.863  0.473- 121 1.48
   6  0.027  0.594  0.669- 116 1.48
   7  0.264  0.331  0.328-  89 1.50
   8  0.326  0.505  0.464-  58 1.47
   9  0.191  0.584  0.464-  12 0.76
  10  0.317  0.953  0.392-  40 0.74
  11  0.085  0.021  0.452- 121 1.47
  12  0.211  0.599  0.440-   9 0.76  95 2.01
  13  0.128  0.074  0.554-  62 1.49
  14  0.254  0.199  0.428-   1 0.74
  15  0.218  0.929  0.552-  23 0.74
  16  0.147  0.287  0.483-  44 0.74
  17  0.314  0.428  0.342-  97 1.50
  18  0.253  0.821  0.488-  45 0.74
  19  0.217  0.316  0.565- 115 1.49
  20  0.337  0.134  0.361- 114 1.48
  21  0.247  0.839  0.386-  93 1.48
  22  0.006  0.461  0.589- 111 1.48
  23  0.171  0.926  0.562-  15 0.74
  24  0.106  0.697  0.472-  50 1.49
  25  0.394  0.072  0.451-  53 1.49
  26  0.205  0.464  0.610-  96 1.60 115 1.79
  27  0.233  0.772  0.589-  33 0.75
  28  0.382  0.934  0.493- 120 1.48
  29  0.009  0.954  0.516-  68 1.48
  30  0.162  0.905  0.406- 121 1.48
  31  0.017  0.184  0.475-  86 1.50
  32  0.186  0.090  0.389- 114 1.48
  33  0.182  0.777  0.586-  27 0.75
  34  0.574  0.647  0.461-  75 1.50
  35  0.353  0.778  0.575-  71 1.49
  36  0.311  0.653  0.503-  58 1.48
  37  0.024  0.281  0.569-  85 1.50
  38  0.236  0.052  0.309- 114 1.47
  39  0.329  0.001  0.568- 110 1.50
  40  0.353  0.964  0.410-  10 0.74
  41  0.366  0.331  0.441-  57 1.49
  42  0.107  0.311  0.413- 122 1.50
  43  0.404  0.480  0.587-  79 1.49
  44  0.149  0.314  0.505-  16 0.74
  45  0.232  0.775  0.487-  18 0.74
  46  0.500  0.132  0.545-  90 2.34  83 2.36 110 2.37  53 2.42
  47  0.827  0.849  0.536-  68 2.30  84 2.31 103 2.31 100 2.34
  48  0.732  0.804  0.411-  84 2.30  98 2.31 107 2.32 117 2.40
  49  0.020  0.028  0.335-  82 2.35  51 2.44
  50  0.007  0.675  0.467-  24 1.49 103 2.36 119 2.39  80 2.39
  51  0.953  0.903  0.381- 121 2.33 117 2.39  49 2.44  80 2.62
  52  0.552  0.394  0.523- 108 2.32  61 2.35  79 2.35  83 2.37
  53  0.471  0.136  0.461-  25 1.49  57 2.34  65 2.37  46 2.42
  54  0.837  0.305  0.455-  86 2.34 118 2.38  99 2.41 105 2.46
  55  0.619  0.611  0.645-  81 2.33  77 2.35  70 2.39
  56  0.351  0.148  0.647-  76 2.29  74 2.31 110 2.33
  57  0.444  0.276  0.422-  41 1.49  61 2.30  53 2.34
  58  0.376  0.581  0.487-   8 1.47  36 1.48  79 2.30  75 2.33
  59  0.494  0.536  0.376-  75 2.28  97 2.29  92 2.29
  60  0.758  0.545  0.418-  98 2.35  99 2.36 101 2.36  92 2.40
  61  0.579  0.345  0.445-  57 2.30  92 2.34  52 2.35 105 2.37
  62  0.091  0.083  0.603-  13 1.49  76 2.34  91 2.36  85 2.38
  63  0.650  0.304  0.625-  81 2.33  83 2.37  67 2.43
  64  0.652  0.955  0.623- 113 2.31  90 2.33 100 2.40
  65  0.613  0.081  0.432- 112 2.34  53 2.37  73 2.44 105 2.47
  66  0.915  0.875  0.649- 102 2.32  91 2.35 100 2.36
  67  0.782  0.236  0.586- 118 2.34 104 2.34 109 2.36  63 2.43
  68  0.917  0.980  0.532-  29 1.48  87 2.30  47 2.30  91 2.35
  69  0.848  0.607  0.559- 103 2.31 111 2.33 101 2.35  77 2.37  94 3.15
  70  0.530  0.652  0.576-  94 2.31  79 2.33  71 2.37  55 2.39
  71  0.453  0.793  0.566-  35 1.49 113 2.34  70 2.37 120 2.39
  72  0.453  0.794  0.415-  75 2.31  93 2.37 120 2.39 107 2.40
  73  0.599  0.952  0.487-  90 2.33  84 2.34 120 2.36  65 2.44
  74  0.390  0.297  0.630-  56 2.31 115 2.33  83 2.35
  75  0.484  0.643  0.435-  34 1.50  59 2.28  72 2.31  58 2.33
  76  0.196  0.141  0.658-  56 2.29 106 2.33  62 2.34  85 3.04
  77  0.740  0.687  0.607-  55 2.35 100 2.35  69 2.37  94 2.42
  78  0.997  0.457  0.357-  99 2.37 122 2.39  88 2.44
  79  0.460  0.519  0.547-  43 1.49  58 2.30  70 2.33  52 2.35
  80  0.966  0.724  0.389-  98 2.35  50 2.39  88 2.46  51 2.62
  81  0.661  0.463  0.622- 108 2.31  55 2.33  63 2.33
  82  0.974  0.171  0.366-  86 2.31  49 2.35 122 2.39
  83  0.517  0.279  0.579-  74 2.35  46 2.36  52 2.37  63 2.37
  84  0.698  0.826  0.490-  48 2.30  47 2.31  73 2.34  94 2.34
  85  0.026  0.231  0.615-  37 1.50 104 2.34 106 2.35  62 2.38  76 3.04
  86  0.933  0.177  0.445-  31 1.50  82 2.31  87 2.33  54 2.34
  87  0.840  0.059  0.474-  68 2.30  86 2.33 109 2.38 117 2.49
  88  0.071  0.606  0.358-  78 2.44  95 2.46  80 2.46
  89  0.188  0.263  0.319-   7 1.50 122 2.31 114 2.32
  90  0.631  0.041  0.554- 109 2.30  73 2.33  64 2.33  46 2.34
  91  0.944  0.017  0.612-  68 2.35  66 2.35 104 2.36  62 2.36
  92  0.627  0.459  0.392-  59 2.29  61 2.34  60 2.40
  93  0.315  0.768  0.373-  21 1.48  95 2.34  72 2.37
  94  0.657  0.693  0.532- 101 2.30  70 2.31  84 2.34  77 2.42  69 3.15
  95  0.237  0.627  0.371-  12 2.01  93 2.34  97 2.34  88 2.46
  96  0.182  0.565  0.590-   3 1.47   2 1.48  26 1.60 116 2.33
  97  0.349  0.524  0.345-  17 1.50  59 2.29  95 2.34
  98  0.812  0.679  0.382-  48 2.31  60 2.35  80 2.35
  99  0.888  0.447  0.420-  60 2.36  78 2.37 119 2.38  54 2.41
 100  0.772  0.844  0.614-  47 2.34  77 2.35  66 2.36  64 2.40
 101  0.738  0.573  0.500-  94 2.30 108 2.31  69 2.35  60 2.36
 102  0.007  0.774  0.606- 116 2.27  66 2.32 103 2.33
 103  0.934  0.732  0.536-  69 2.31  47 2.31 102 2.33  50 2.36
 104  0.887  0.162  0.636-  85 2.34  67 2.34  91 2.36
 105  0.688  0.226  0.454- 109 2.36  61 2.37  54 2.46  65 2.47
 106  0.136  0.288  0.669-  76 2.33 115 2.34  85 2.35
 107  0.592  0.855  0.382-  48 2.32 112 2.36  72 2.40
 108  0.698  0.443  0.543-  81 2.31 101 2.31  52 2.32 118 2.34
 109  0.735  0.143  0.522-  90 2.30  67 2.36 105 2.36  87 2.38
 110  0.409  0.038  0.595-  39 1.50  56 2.33 113 2.36  46 2.37
 111  0.935  0.473  0.552-  22 1.48  69 2.33 118 2.36 119 2.36
 112  0.665  0.996  0.366-  65 2.34 107 2.36 117 2.44
 113  0.500  0.910  0.617-  64 2.31  71 2.34 110 2.36
 114  0.239  0.122  0.347-  38 1.47  32 1.48  20 1.48  89 2.32
 115  0.241  0.347  0.614-  19 1.49  26 1.79  74 2.33 106 2.34
 116  0.083  0.652  0.637-   6 1.48 102 2.27  96 2.33
 117  0.805  0.951  0.408-  51 2.39  48 2.40 112 2.44  87 2.49
 118  0.831  0.354  0.535-  67 2.34 108 2.34 111 2.36  54 2.38
 119  0.990  0.513  0.476-   4 1.49 111 2.36  99 2.38  50 2.39
 120  0.460  0.869  0.491-  28 1.48  73 2.36  72 2.39  71 2.39
 121  0.076  0.928  0.433-  11 1.47   5 1.48  30 1.48  51 2.33
 122  0.064  0.307  0.365-  42 1.50  89 2.31  82 2.39  78 2.39

  LATTYP: Found a simple tetragonal cell.
 ALAT       =    14.5768472423
 C/A-ratio  =     1.9316900652
  
  Lattice vectors:
  
 A1 = (  14.5768472423,   0.0000000000,   0.0000000000)
 A2 = (   0.0000000000,  14.5768472423,   0.0000000000)
 A3 = (   0.0000000000,   0.0000000000,  28.1579510000)


Analysis of symmetry for initial positions (statically):
=====================================================================
 Subroutine PRICEL returns:
 Original cell was already a primitive cell.
 

 Routine SETGRP: Setting up the symmetry group for a 
 simple tetragonal supercell.


 Subroutine GETGRP returns: Found  1 space group operations
 (whereof  1 operations were pure point group operations)
 out of a pool of 16 trial point group operations.


The static configuration has the point symmetry C_1 .


Analysis of symmetry for dynamics (positions and initial velocities):
=====================================================================
 Subroutine PRICEL returns:
 Original cell was already a primitive cell.
 

 Routine SETGRP: Setting up the symmetry group for a 
 simple tetragonal supercell.


 Subroutine GETGRP returns: Found  1 space group operations
 (whereof  1 operations were pure point group operations)
 out of a pool of 16 trial point group operations.


The dynamic configuration has the point symmetry C_1 .


 Subroutine INISYM returns: Found  1 space group operations
 (whereof  1 operations are pure point group operations),
 and found     1 'primitive' translations


----------------------------------------------------------------------------------------

                                     Primitive cell                                     

  volume of cell :    5983.1275

  direct lattice vectors                    reciprocal lattice vectors
    14.576847242  0.000000000  0.000000000     0.068601940  0.000000000  0.000000000
     0.000000000 14.576847242  0.000000000     0.000000000  0.068601940  0.000000000
     0.000000000  0.000000000 28.157951000     0.000000000  0.000000000  0.035513948

  length of vectors
    14.576847242 14.576847242 28.157951000     0.068601940  0.068601940  0.035513948

  position of ions in fractional coordinates (direct lattice)
     0.271729801  0.204936413  0.452875723
     0.148203921  0.552343098  0.541253429
     0.272147574  0.609096144  0.589604751
     0.080670805  0.468454644  0.468459677
     0.072836586  0.863219680  0.472983052
     0.027444861  0.593739452  0.668888520
     0.263933322  0.330631399  0.328268999
     0.326169025  0.504929132  0.464011798
     0.190953895  0.583992979  0.463823078
     0.317305575  0.952591659  0.392464970
     0.085459400  0.021316222  0.451804691
     0.210585349  0.598762460  0.439936363
     0.127827896  0.073675565  0.553747769
     0.254454622  0.199435262  0.428150483
     0.217918116  0.929123391  0.552187932
     0.147203448  0.287447792  0.482889772
     0.314169024  0.427792108  0.341680378
     0.252755783  0.821336023  0.488437692
     0.216668718  0.316282923  0.565203561
     0.336619555  0.133766139  0.361139450
     0.246932142  0.839068810  0.385960742
     0.006295547  0.461355805  0.589370917
     0.170928275  0.926049027  0.562007742
     0.106206317  0.696637834  0.472468645
     0.393759689  0.071851796  0.450837525
     0.205439980  0.464435304  0.610072059
     0.233018667  0.772030721  0.589087409
     0.382278562  0.934462180  0.492590885
     0.009364087  0.954228311  0.515557030
     0.161604765  0.904996166  0.406478132
     0.016558337  0.184188687  0.475269749
     0.186467207  0.089793708  0.388970677
     0.182459483  0.777236856  0.586080507
     0.573997694  0.647114413  0.460536827
     0.353095691  0.778336968  0.575203877
     0.311212387  0.652676580  0.502868628
     0.024054874  0.280956418  0.568753221
     0.235895706  0.052133964  0.309480098
     0.328682634  0.001201462  0.567725301
     0.353110956  0.964323874  0.410262732
     0.366350220  0.330973088  0.440809153
     0.106792075  0.310785897  0.412982203
     0.404264127  0.479571985  0.586890740
     0.149467721  0.314376445  0.505323194
     0.231968282  0.774749177  0.486848153
     0.500105410  0.131885390  0.545446347
     0.827198714  0.849447475  0.535742147
     0.732074747  0.804245975  0.411147806
     0.019556985  0.028120396  0.335342415
     0.007005953  0.675202326  0.467026929
     0.953405172  0.903142492  0.381445663
     0.551512338  0.394277281  0.523000098
     0.470600029  0.136131748  0.460721830
     0.836710052  0.304852916  0.454964362
     0.618620629  0.610925892  0.644537795
     0.350645725  0.147614054  0.646982109
     0.444189945  0.275530564  0.422143342
     0.375929444  0.581363481  0.486629759
     0.494256623  0.536444579  0.375764753
     0.758491868  0.544565007  0.418307664
     0.578804274  0.345407341  0.444820393
     0.091442812  0.082735285  0.602913992
     0.650481112  0.303518112  0.625278903
     0.651903369  0.954884326  0.622937093
     0.612668147  0.080618227  0.431934352
     0.915232027  0.875191962  0.649143187
     0.782131665  0.236072196  0.585700923
     0.916612602  0.979673824  0.532361298
     0.847965570  0.606842110  0.558859058
     0.530448367  0.651508894  0.576343374
     0.452827138  0.793001924  0.565931819
     0.453115080  0.794018846  0.415465527
     0.598637822  0.952394212  0.487021823
     0.390103862  0.297499023  0.630119940
     0.483947342  0.643092905  0.434603921
     0.195508832  0.141267662  0.658442314
     0.740046101  0.686820536  0.606504093
     0.996732133  0.456703113  0.357385797
     0.460296292  0.518964114  0.547456971
     0.966082380  0.724203322  0.388924792
     0.661177765  0.463141891  0.622064759
     0.973590015  0.170732139  0.365932030
     0.516767597  0.278750360  0.579284475
     0.697715456  0.825893397  0.490103989
     0.026412329  0.230630847  0.615186972
     0.932554794  0.177469794  0.444992678
     0.840414935  0.059127070  0.473918528
     0.071342996  0.606239004  0.358191565
     0.188190008  0.262686465  0.319296430
     0.631418853  0.040505134  0.553794947
     0.944165881  0.017210100  0.612256880
     0.627316390  0.458810208  0.391882422
     0.314689141  0.767730221  0.373497662
     0.657081031  0.692951238  0.531940373
     0.236887831  0.627330519  0.371289794
     0.181608245  0.564541200  0.590389504
     0.349251106  0.523954083  0.345462915
     0.811857456  0.679304004  0.381954542
     0.887545177  0.446740168  0.419620068
     0.772164654  0.844354749  0.613696986
     0.738334746  0.572535614  0.500268789
     0.006598876  0.774477429  0.606014728
     0.933919585  0.731900345  0.535640471
     0.886982158  0.161588789  0.635591633
     0.687790162  0.226194848  0.454369533
     0.135601845  0.288485064  0.668690750
     0.591942081  0.855049132  0.382002902
     0.697616500  0.443363863  0.542913064
     0.734695047  0.142838617  0.521881011
     0.408960040  0.037598259  0.594912895
     0.935257048  0.473369615  0.552095485
     0.665291620  0.996491206  0.366424987
     0.500438206  0.910447217  0.616734068
     0.239041960  0.121793916  0.347328834
     0.241326316  0.347173796  0.613998652
     0.083000180  0.652307155  0.636783480
     0.805321944  0.951363931  0.407831502
     0.830628021  0.354318189  0.535369893
     0.989764042  0.513356289  0.475873242
     0.460320664  0.869094595  0.490693249
     0.076374798  0.927679942  0.432563116
     0.063709777  0.307415496  0.364648172

  ion indices of the primitive-cell ions
   primitive index   ion index
                 1           1
                 2           2
                 3           3
                 4           4
                 5           5
                 6           6
                 7           7
                 8           8
                 9           9
                10          10
                11          11
                12          12
                13          13
                14          14
                15          15
                16          16
                17          17
                18          18
                19          19
                20          20
                21          21
                22          22
                23          23
                24          24
                25          25
                26          26
                27          27
                28          28
                29          29
                30          30
                31          31
                32          32
                33          33
                34          34
                35          35
                36          36
                37          37
                38          38
                39          39
                40          40
                41          41
                42          42
                43          43
                44          44
                45          45
                46          46
                47          47
                48          48
                49          49
                50          50
                51          51
                52          52
                53          53
                54          54
                55          55
                56          56
                57          57
                58          58
                59          59
                60          60
                61          61
                62          62
                63          63
                64          64
                65          65
                66          66
                67          67
                68          68
                69          69
                70          70
                71          71
                72          72
                73          73
                74          74
                75          75
                76          76
                77          77
                78          78
                79          79
                80          80
                81          81
                82          82
                83          83
                84          84
                85          85
                86          86
                87          87
                88          88
                89          89
                90          90
                91          91
                92          92
                93          93
                94          94
                95          95
                96          96
                97          97
                98          98
                99          99
               100         100
               101         101
               102         102
               103         103
               104         104
               105         105
               106         106
               107         107
               108         108
               109         109
               110         110
               111         111
               112         112
               113         113
               114         114
               115         115
               116         116
               117         117
               118         118
               119         119
               120         120
               121         121
               122         122

----------------------------------------------------------------------------------------


 -----------------------------------------------------------------------------
|                                                                             |
|           W    W    AA    RRRRR   N    N  II  N    N   GGGG   !!!           |
|           W    W   A  A   R    R  NN   N  II  NN   N  G    G  !!!           |
|           W    W  A    A  R    R  N N  N  II  N N  N  G       !!!           |
|           W WW W  AAAAAA  RRRRR   N  N N  II  N  N N  G  GGG   !            |
|           WW  WW  A    A  R   R   N   NN  II  N   NN  G    G                |
|           W    W  A    A  R    R  N    N  II  N    N   GGGG   !!!           |
|                                                                             |
|     The requested file  could not be found or opened for reading            |
|     k-point information. Automatic k-point generation is used as a          |
|     fallback, which may lead to unwanted results.                           |
|                                                                             |
 -----------------------------------------------------------------------------



Automatic generation of k-mesh.
 Grid dimensions derived from KSPACING:
 generate k-points for:    2    2    1

 Generating k-lattice:

  Cartesian coordinates                     Fractional coordinates (reciprocal lattice)
     0.034300970  0.000000000  0.000000000     0.500000000  0.000000000  0.000000000
     0.000000000  0.034300970  0.000000000     0.000000000  0.500000000  0.000000000
     0.000000000  0.000000000  0.035513948     0.000000000  0.000000000  1.000000000

  Length of vectors
     0.034300970  0.034300970  0.035513948

  Shift w.r.t. Gamma in fractional coordinates (k-lattice)
     0.000000000  0.000000000  0.000000000

 
 Subroutine IBZKPT returns following result:
 ===========================================
 
 Found      4 irreducible k-points:
 
 Following reciprocal coordinates:
            Coordinates               Weight
  0.000000  0.000000  0.000000      1.000000
  0.500000  0.000000  0.000000      1.000000
  0.000000  0.500000  0.000000      1.000000
  0.500000  0.500000  0.000000      1.000000
 
 Following cartesian coordinates:
            Coordinates               Weight
  0.000000  0.000000  0.000000      1.000000
  0.034301  0.000000  0.000000      1.000000
  0.000000  0.034301  0.000000      1.000000
  0.034301  0.034301  0.000000      1.000000
 


--------------------------------------------------------------------------------------------------------




 Dimension of arrays:
   k-points           NKPTS =      4   k-points in BZ     NKDIM =      4   number of bands    NBANDS=    240
   number of dos      NEDOS =   2000   number of ions     NIONS =    122
   non local maximal  LDIM  =      4   non local SUM 2l+1 LMDIM =      8
   total plane-waves  NPLWV = ******
   max r-space proj   IRMAX =      1   max aug-charges    IRDMAX= 403919
   dimension x,y,z NGX =   168 NGY =  168 NGZ =  320
   dimension x,y,z NGXF=   336 NGYF=  336 NGZF=  640
   support grid    NGXF=   672 NGYF=  672 NGZF= 1280
   ions per type =              45  77
   NGX,Y,Z   is equivalent  to a cutoff of  19.16, 19.16, 18.89 a.u.
   NGXF,Y,Z  is equivalent  to a cutoff of  38.32, 38.32, 37.79 a.u.

 SYSTEM =  a-Si SPC                                
 POSCAR =   H Si                                   

 Startparameter for this run:
   NWRITE =      2    write-flag & timer
   PREC   = accura    normal or accurate (medium, high low for compatibility)
   ISTART =      1    job   : 0-new  1-cont  2-samecut
   ICHARG =      1    charge: 1-file 2-atom 10-const
   ISPIN  =      1    spin polarized calculation?
   LNONCOLLINEAR =      F non collinear calculations
   LSORBIT =      F    spin-orbit coupling
   INIWAV =      1    electr: 0-lowe 1-rand  2-diag
   LASPH  =      T    aspherical Exc in radial PAW
 Electronic Relaxation 1
   ENCUT  = 1200.0 eV  88.20 Ry    9.39 a.u.  41.17 41.17 79.53*2*pi/ulx,y,z
   ENINI  = 1200.0     initial cutoff
   ENAUG  =  400.0 eV  augmentation charge cutoff
   NELM   =    150;   NELMIN=  2; NELMDL=  0     # of ELM steps 
   EDIFF  = 0.1E-05   stopping-criterion for ELM
   LREAL  =      F    real-space projection
   NLSPLINE    = F    spline interpolate recip. space projectors
   LCOMPAT=      F    compatible to vasp.4.4
   GGA_COMPAT  = T    GGA compatible to vasp.4.4-vasp.4.6
   LMAXPAW     = -100 max onsite density
   LMAXMIX     =    2 max onsite mixed and CHGCAR
   VOSKOWN=      0    Vosko Wilk Nusair interpolation
   ROPT   =    0.00000   0.00000
 Ionic relaxation
   EDIFFG = -.1E-01   stopping-criterion for IOM
   NSW    =      0    number of steps for IOM
   NBLOCK =      1;   KBLOCK =      1    inner block; outer block 
   IBRION =     -1    ionic relax: 0-MD 1-quasi-New 2-CG
   NFREE  =      0    steps in history (QN), initial steepest desc. (CG)
   ISIF   =      2    stress and relaxation
   IWAVPR =     10    prediction:  0-non 1-charg 2-wave 3-comb
   ISYM   =      1    0-nonsym 1-usesym 2-fastsym
   LCORR  =      T    Harris-Foulkes like correction to forces

   POTIM  = 0.5000    time-step for ionic-motion
   TEIN   =    0.0    initial temperature
   TEBEG  =    0.0;   TEEND  =   0.0 temperature during run
   SMASS  =  -3.00    Nose mass-parameter (am)
   estimated Nose-frequenzy (Omega)   =  0.10E-29 period in steps = 0.13E+47 mass=  -0.486E-26a.u.
   SCALEE = 1.0000    scale energy and forces
   NPACO  =    256;   APACO  = 10.0  distance and # of slots for P.C.
   PSTRESS=    0.0 pullay stress

  Mass of Ions in am
   POMASS =   1.00 28.09
  Ionic Valenz
   ZVAL   =   1.00  4.00
  Atomic Wigner-Seitz radii
   RWIGS  =  -1.00 -1.00
  virtual crystal weights 
   VCA    =   1.00  1.00
   NELECT =     353.0000    total number of electrons
   NUPDOWN=      -1.0000    fix difference up-down

 DOS related values:
   EMIN   =  10.00;   EMAX   =-10.00  energy-range for DOS
   EFERMI =   0.00;   METHOD = LEGACY      
   ISMEAR =     0;   SIGMA  =   0.10  broadening in eV -4-tet -1-fermi 0-gaus
   EFERMI_NEDOS =   21; number of points for ismear=-14 and -15

 Electronic relaxation 2 (details)
   IALGO  =     38    algorithm
   LDIAG  =      F    sub-space diagonalisation (order eigenvalues)
   LSUBROT=      F    optimize rotation matrix (better conditioning)
   TURBO    =      0    0=normal 1=particle mesh
   IRESTART =      0    0=no restart 2=restart with 2 vectors
   NREBOOT  =      0    no. of reboots
   NMIN     =      0    reboot dimension
   EREF     =   0.00    reference energy to select bands
   IMIX   =      4    mixing-type and parameters
     AMIX     =   0.40;   BMIX     =  1.00
     AMIX_MAG =   1.60;   BMIX_MAG =  1.00
     AMIN     =   0.10
     WC   =   100.;   INIMIX=   1;  MIXPRE=   1;  MAXMIX= -45

 Intra band minimization:
   WEIMIN = 0.0000     energy-eigenvalue tresh-hold
   EBREAK =  0.10E-08  absolut break condition
   DEPER  =   0.30     relativ break condition  

   TIME   =   0.40     timestep for ELM

  volume/ion in A,a.u.               =      49.04       330.95
  Fermi-wavevector in a.u.,A,eV,Ry     =   0.637319  1.204359  5.526356  0.406176
  Thomas-Fermi vector in A             =   1.702285

 Write flags
   LWAVE        =      F    write WAVECAR
   LDOWNSAMPLE  =      F    k-point downsampling of WAVECAR
   LCHARG       =      F    write CHGCAR
   LVTOT        =      F    write LOCPOT, total local potential
   LVHAR        =      F    write LOCPOT, Hartree potential only
   WRT_POTENTIAL= false  ! write potential to hdf5 file
   LELF         =      F    write electronic localiz. function (ELF)
   LORBIT       =     11    0 simple, 1 ext, 2 COOP (PROOUT), +10 PAW based schemes


 Python interface
   PLUGINS active      =      F    recompile with -DPLUGINS to activate

 Dipole corrections
   LMONO      =      F    monopole corrections only (constant potential shift)
   LDIPOL     =      F    correct potential (dipole corrections)
   IDIPOL     =      0    1-x, 2-y, 3-z, 4-all directions 
   EPSILON    =  1.0000000 bulk dielectric constant
   LVACPOTAV  =      F  vacuum potentials using an averaging scheme for the charge density
   VACPOTFLAT =  0.1000000 required flatness to determine vacuum potential

Coulomb truncation method
  LTRUNCATE          =      F  Coulomb kernel truncation to be used
  IDIMENSIONALITY    =      3  Dimensionality of cutoff (0 molecules / 2 surfaces)
  ISURFACE           =     -1  Direction of surface normal
  LCOARSEN           =      F  Coarsen the charge grid before padding, preferred


 Exchange correlation treatment:
   METAGGA = SCAN    functional components
   XC_C    = 1    coefficients multiplying the functional components
   LIBXC   =     F    Libxc                    
   VOSKOWN =     0    Vosko Wilk Nusair interpolation
   LHFCALC =     F    Hartree Fock is set to
   LHFONE  =     F    Hartree Fock one center treatment
   AEXX    =    0.0000 exact exchange contribution

 Parameters of functionals:
   SCAN:
     P1 =  0.000000E+00
     P2 =  0.000000E+00
     P3 =  0.000000E+00

 Accuracy and mixing parameters for tau-dependent meta-GGA functionals:
   LMAXTAU = 6
   LMIXTAU = T

 Van der Waals corrections
   IVDW    =     0    specifies the selected vdW correction

 Linear response parameters
   LEPSILON=     F    determine dielectric tensor
   LRPA    =     F    only Hartree local field effects (RPA)
   LNABLA  =     F    use nabla operator in PAW spheres
   LVEL    =     F    velocity operator in full k-point grid
   CSHIFT  =0.1000    complex shift for real part using Kramers Kronig
   OMEGAMAX=  -1.0    maximum frequency
   DEG_THRESHOLD= 0.2000000E-02 threshold for treating states as degnerate
   RTIME   =   -0.100 relaxation time in fs
  (WPLASMAI=    0.000 imaginary part of plasma frequency in eV, 0.658/RTIME)
   DFIELD  = 0.0000000 0.0000000 0.0000000 field for delta impulse in time

  Optional k-point grid parameters
   LKPOINTS_OPT  =     F    use optional k-point grid
   KPOINTS_OPT_MODE=     1    mode for optional k-point grid

 Orbital magnetization related:
   ORBITALMAG=     F  switch on orbital magnetization
   LCHIMAG   =     F  perturbation theory with respect to B field
   DQ        =  0.001000  dq finite difference perturbation B field
   LLRAUG    =     F  two centre corrections for induced B field
   LBONE     =     F  B-component reconstruction in AE one-centre
   LVGVCALC  =     T  calculate vGv susceptibility
   LVGVAPPL  =     F  apply vGv susceptibility instead of pGv for G=0

 Random number generation:
   RANDOM_GENERATOR = DEFAULT
   PCG_SEED         = not used


--------------------------------------------------------------------------------------------------------


 Static calculation
 charge density and potential will be updated during run
 non-spin polarized calculation
 Variant of blocked Davidson
 perform Loewdin sub-space diagonalisation
    ordering is kept fixed
    before iterative eigenvector-optimisation
 modified Broyden-mixing scheme, WC =      100.0
 initial mixing is a Kerker type mixing with AMIX =  0.4000 and BMIX =      1.0000
 Hartree-type preconditioning will be used
 using additional bands           63
 reciprocal scheme for non local part
 use partial core corrections
 calculate Harris-corrections to forces   (improved forces if not selfconsistent)
 use gradient corrections 
 use of overlap-Matrix (Vanderbilt PP)
 Gauss-broadening in eV      SIGMA  =   0.10


--------------------------------------------------------------------------------------------------------


  energy-cutoff  :     1200.00
  volume of cell :     5983.13
      direct lattice vectors                 reciprocal lattice vectors
    14.576847242  0.000000000  0.000000000     0.068601940  0.000000000  0.000000000
     0.000000000 14.576847242  0.000000000     0.000000000  0.068601940  0.000000000
     0.000000000  0.000000000 28.157951000     0.000000000  0.000000000  0.035513948

  length of vectors
    14.576847242 14.576847242 28.157951000     0.068601940  0.068601940  0.035513948



 old parameters found on file WAVECAR:
  energy-cutoff  :     1200.00
  volume of cell :     5983.13
      direct lattice vectors                 reciprocal lattice vectors
    14.576847242  0.000000000  0.000000000     0.068601940  0.000000000  0.000000000
     0.000000000 14.576847242  0.000000000     0.000000000  0.068601940  0.000000000
     0.000000000  0.000000000 28.157951000     0.000000000  0.000000000  0.035513948

  length of vectors


 k-points in units of 2pi/SCALE and weight: read from INCAR                         
   0.00000000  0.00000000  0.00000000       0.250
   0.03430097  0.00000000  0.00000000       0.250
   0.00000000  0.03430097  0.00000000       0.250
   0.03430097  0.03430097  0.00000000       0.250

 k-points in reciprocal lattice and weights: read from INCAR                         
   0.00000000  0.00000000  0.00000000       0.250
   0.50000000  0.00000000  0.00000000       0.250
   0.00000000  0.50000000  0.00000000       0.250
   0.50000000  0.50000000  0.00000000       0.250

 position of ions in fractional coordinates (direct lattice) 
   0.27172980  0.20493641  0.45287572
   0.14820392  0.55234310  0.54125343
   0.27214757  0.60909614  0.58960475
   0.08067080  0.46845464  0.46845968
   0.07283659  0.86321968  0.47298305
   0.02744486  0.59373945  0.66888852
   0.26393332  0.33063140  0.32826900
   0.32616902  0.50492913  0.46401180
   0.19095390  0.58399298  0.46382308
   0.31730558  0.95259166  0.39246497
   0.08545940  0.02131622  0.45180469
   0.21058535  0.59876246  0.43993636
   0.12782790  0.07367556  0.55374777
   0.25445462  0.19943526  0.42815048
   0.21791812  0.92912339  0.55218793
   0.14720345  0.28744779  0.48288977
   0.31416902  0.42779211  0.34168038
   0.25275578  0.82133602  0.48843769
   0.21666872  0.31628292  0.56520356
   0.33661955  0.13376614  0.36113945
   0.24693214  0.83906881  0.38596074
   0.00629555  0.46135580  0.58937092
   0.17092827  0.92604903  0.56200774
   0.10620632  0.69663783  0.47246865
   0.39375969  0.07185180  0.45083753
   0.20543998  0.46443530  0.61007206
   0.23301867  0.77203072  0.58908741
   0.38227856  0.93446218  0.49259088
   0.00936409  0.95422831  0.51555703
   0.16160476  0.90499617  0.40647813
   0.01655834  0.18418869  0.47526975
   0.18646721  0.08979371  0.38897068
   0.18245948  0.77723686  0.58608051
   0.57399769  0.64711441  0.46053683
   0.35309569  0.77833697  0.57520388
   0.31121239  0.65267658  0.50286863
   0.02405487  0.28095642  0.56875322
   0.23589571  0.05213396  0.30948010
   0.32868263  0.00120146  0.56772530
   0.35311096  0.96432387  0.41026273
   0.36635022  0.33097309  0.44080915
   0.10679208  0.31078590  0.41298220
   0.40426413  0.47957198  0.58689074
   0.14946772  0.31437645  0.50532319
   0.23196828  0.77474918  0.48684815
   0.50010541  0.13188539  0.54544635
   0.82719871  0.84944747  0.53574215
   0.73207475  0.80424598  0.41114781
   0.01955699  0.02812040  0.33534241
   0.00700595  0.67520233  0.46702693
   0.95340517  0.90314249  0.38144566
   0.55151234  0.39427728  0.52300010
   0.47060003  0.13613175  0.46072183
   0.83671005  0.30485292  0.45496436
   0.61862063  0.61092589  0.64453780
   0.35064573  0.14761405  0.64698211
   0.44418995  0.27553056  0.42214334
   0.37592944  0.58136348  0.48662976
   0.49425662  0.53644458  0.37576475
   0.75849187  0.54456501  0.41830766
   0.57880427  0.34540734  0.44482039
   0.09144281  0.08273528  0.60291399
   0.65048111  0.30351811  0.62527890
   0.65190337  0.95488433  0.62293709
   0.61266815  0.08061823  0.43193435
   0.91523203  0.87519196  0.64914319
   0.78213166  0.23607220  0.58570092
   0.91661260  0.97967382  0.53236130
   0.84796557  0.60684211  0.55885906
   0.53044837  0.65150889  0.57634337
   0.45282714  0.79300192  0.56593182
   0.45311508  0.79401885  0.41546553
   0.59863782  0.95239421  0.48702182
   0.39010386  0.29749902  0.63011994
   0.48394734  0.64309291  0.43460392
   0.19550883  0.14126766  0.65844231
   0.74004610  0.68682054  0.60650409
   0.99673213  0.45670311  0.35738580
   0.46029629  0.51896411  0.54745697
   0.96608238  0.72420332  0.38892479
   0.66117776  0.46314189  0.62206476
   0.97359001  0.17073214  0.36593203
   0.51676760  0.27875036  0.57928448
   0.69771546  0.82589340  0.49010399
   0.02641233  0.23063085  0.61518697
   0.93255479  0.17746979  0.44499268
   0.84041494  0.05912707  0.47391853
   0.07134300  0.60623900  0.35819157
   0.18819001  0.26268647  0.31929643
   0.63141885  0.04050513  0.55379495
   0.94416588  0.01721010  0.61225688
   0.62731639  0.45881021  0.39188242
   0.31468914  0.76773022  0.37349766
   0.65708103  0.69295124  0.53194037
   0.23688783  0.62733052  0.37128979
   0.18160825  0.56454120  0.59038950
   0.34925111  0.52395408  0.34546291
   0.81185746  0.67930400  0.38195454
   0.88754518  0.44674017  0.41962007
   0.77216465  0.84435475  0.61369699
   0.73833475  0.57253561  0.50026879
   0.00659888  0.77447743  0.60601473
   0.93391958  0.73190035  0.53564047
   0.88698216  0.16158879  0.63559163
   0.68779016  0.22619485  0.45436953
   0.13560184  0.28848506  0.66869075
   0.59194208  0.85504913  0.38200290
   0.69761650  0.44336386  0.54291306
   0.73469505  0.14283862  0.52188101
   0.40896004  0.03759826  0.59491289
   0.93525705  0.47336962  0.55209549
   0.66529162  0.99649121  0.36642499
   0.50043821  0.91044722  0.61673407
   0.23904196  0.12179392  0.34732883
   0.24132632  0.34717380  0.61399865
   0.08300018  0.65230715  0.63678348
   0.80532194  0.95136393  0.40783150
   0.83062802  0.35431819  0.53536989
   0.98976404  0.51335629  0.47587324
   0.46032066  0.86909459  0.49069325
   0.07637480  0.92767994  0.43256312
   0.06370978  0.30741550  0.36464817

 position of ions in cartesian coordinates  (Angst):
   3.96096380  2.98732679 12.75205243
   2.16034591  8.05142096 15.24058753
   3.96705362  8.87870145 16.60206169
   1.17592600  6.82859179 13.19086464
   1.06172779 12.58302141 13.31823361
   0.40005954  8.65484929 18.83453017
   3.84731572  4.81956340  9.24338238
   4.75451605  7.36027483 13.06562147
   2.78350576  8.51277645 13.06030751
   4.62531490 13.88578310 11.05100940
   1.24572862  0.31072331 12.72189434
   3.06967046  8.72806892 12.38770655
   1.86332772  1.07395745 15.59240255
   3.70914616  2.90713735 12.05584033
   3.17655909 13.54368974 15.54848072
   2.14576217  4.19008256 13.59718654
   4.57959387  6.23586021  9.62101933
   3.68438244 11.97248974 13.75340459
   3.15834680  4.61040785 15.91497417
   4.90685183  1.94988857 10.16894694
   3.59949212 12.23097787 10.86786366
   0.09176923  6.72511309 16.59547741
   2.49159535 13.49887521 15.82498646
   1.54815326 10.15478329 13.30374896
   5.73977484  1.04737265 12.69466094
   2.99466720  6.77000248 17.17837913
   3.39667751 11.25377389 16.58749441
   5.57241620 13.62151245 13.87034999
   0.13649887 13.90964032 14.51702959
   2.35568797 13.19199086 11.44559131
   0.24136835  2.68489036 13.38262231
   2.71810399  1.30890916 10.95261726
   2.65968401 11.32966292 16.50282621
   8.36707670  9.43288795 12.96777340
   5.14702195 11.34569909 16.19656259
   4.53649542  9.51396680 14.15975020
   0.35064422  4.09545878 16.01492532
   3.43861567  0.75994883  8.71432544
   4.79115654  0.01751353 15.98598122
   5.14724447 14.05680181 11.55215791
   5.34023120  4.82454415 12.41228252
   1.55669177  4.53027854 11.62873264
   5.89289643  6.99064756 16.52564071
   2.17876814  4.58261742 14.22886574
   3.38136621 11.29340041 13.70864645
   7.28996016  1.92247318 15.35865152
  12.05794929 12.38226608 15.08540112
  10.67134175 11.72337073 11.57707977
   0.28507919  0.40990671  9.44255528
   0.10212471  9.84232117 13.15052139
  13.89764155 13.16497015 10.74072829
   8.03931111  5.74731969 14.72661113
   6.85986474  1.98437169 12.97298270
  12.19659461  4.44379439 12.81086421
   9.01753841  8.90537341 18.14886365
   5.11130917  2.15174751 18.21769052
   6.47488898  4.01636694 11.88669155
   5.47986608  8.47444665 13.70249690
   7.20470329  7.81967068 10.58076549
  11.05642009  7.93804092 11.77868670
   8.43714148  5.03495004 12.52523082
   1.33294790  1.20601961 16.97682264
   9.48196380  4.42433715 17.60657271
   9.50269583 13.91920295 17.54063214
   8.93076999  1.17515958 12.16238633
  13.34119744 12.75753954 18.27854205
  11.40101380  3.44118834 16.49213788
  13.36132188 14.28055568 14.99020335
  12.36066458  8.84584474 15.73632596
   7.73226482  9.49694562 16.22864848
   6.60079202 11.55946791 15.93548043
   6.60498930 11.57429143 11.69865794
   8.72625208 13.88290495 13.71353664
   5.68648440  4.33659781 17.74288640
   7.05442648  9.37426704 12.23755592
   2.84990238  2.05923713 18.54038642
  10.78753896 10.01167804 17.07791252
  14.52921204  6.65729151 10.06325177
   6.70966873  7.56486062 15.41526657
  14.08243528 10.55660119 10.95132524
   9.63788728  6.75114859 17.51606901
  14.19187292  2.48873631 10.30389617
   7.53284232  4.06330142 16.31146387
  10.17049162 12.03892189 13.80032411
   0.38500849  3.36187063 17.32240460
  13.59370878  2.58695007 12.53008202
  12.25060013  0.86188626 13.34457469
   1.03995595  8.83705336 10.08594054
   2.74321700  3.82914048  8.99073324
   9.20409616  0.59043715 15.59373097
  13.76296182  0.25086900 17.23989922
   9.14429519  6.68800632 11.03460603
   4.58717553 11.19108616 10.51692886
   9.57816981 10.10104434 14.97835095
   3.45307772  9.14450114 10.45475982
   2.64727565  8.22923084 16.62415873
   5.09098002  7.63759863  9.72752782
  11.83432212  9.90211070 10.75505728
  12.93761046  6.51206318 11.81564130
  11.25572621 12.30803019 17.28044967
  10.76259281  8.34576419 14.08654405
   0.09619081 11.28943917 17.06413301
  13.61360312 10.66879953 15.08253813
  12.92940342  2.35545509 17.89695805
  10.02581213  3.29720775 12.79411504
   1.97664738  4.20520271 18.82896138
   8.62864929 12.46392058 10.75641900
  10.16904916  6.46284731 15.28731945
  10.70953747  2.08213670 14.69509993
   5.96134803  0.54806408 16.75152814
  13.63309912  6.90023657 15.54587762
   9.69785431 14.52570009 10.31777684
   7.29481128 13.27145000 17.36596767
   3.48447813  1.77537131  9.78006829
   3.51777685  5.06069939 17.28894396
   1.20988094  9.50858175 17.93051804
  11.73905496 13.86788669 11.48369946
  12.10793778  5.16484212 15.07491920
  14.42763925  7.48311620 13.39961544
   6.71002400 12.66865915 13.81691645
   1.11330376 13.52264881 12.18009103
   0.92868768  4.48114873 10.26774536



--------------------------------------------------------------------------------------------------------


 k-point     1 :   0.0000 0.0000 0.0000  plane waves:  564959
 k-point     2 :   0.5000 0.0000 0.0000  plane waves:  564770
 k-point     3 :   0.0000 0.5000 0.0000  plane waves:  564770
 k-point     4 :   0.5000 0.5000 0.0000  plane waves:  564700

 maximum and minimum number of plane-waves per node :     35357    35253

 maximum number of plane-waves:    564959
 maximum index in each direction: 
   IXMAX=   41   IYMAX=   41   IZMAX=   79
   IXMIN=  -41   IYMIN=  -41   IZMIN=  -79


 parallel 3D FFT for wavefunctions:
    minimum data exchange during FFTs selected (reduces bandwidth)
 parallel 3D FFT for charge:
    minimum data exchange during FFTs selected (reduces bandwidth)


 total amount of memory used by VASP MPI-rank0   377831. kBytes
=======================================================================

   base                                    :      30000. kBytes
   nonl-proj                               :      87028. kBytes
   fftplans                                :     108867. kBytes
   grid                                    :      83991. kBytes
   one-center                              :         24. kBytes
   wavefun                                 :      67921. kBytes

     INWAV:  cpu time     19.5666: real time     19.5769
 Broyden mixing: mesh for mixing (old mesh)
   NGX = 83   NGY = 83   NGZ =159
  (NGX  =336   NGY  =336   NGZ  =640)
  gives a total of ****** points

 initial charge density was supplied:
 number of electron     352.9999999 magnetization 
 keeping initial charge density in first step


--------------------------------------------------------------------------------------------------------


 Maximum index for augmentation-charges        11281 (set IRDMAX)


--------------------------------------------------------------------------------------------------------


 First call to EWALD:  gamma=   0.098
 Maximum number of real-space cells   3x   3x   2
 Maximum number of reciprocal cells   2x   2x   4

    FEWALD:  cpu time      0.0187: real time      0.0188


--------------------------------------- Ionic step        1  -------------------------------------------




--------------------------------------- Iteration      1(   1)  ---------------------------------------


    POTLOK:  cpu time      2.1414: real time      2.1426
    SETDIJ:  cpu time      1.8145: real time      1.8156
    EDDIAG:  cpu time     38.5769: real time     38.5991
     EDDAV:  cpu time    186.4091: real time    186.5154
       DOS:  cpu time      0.0098: real time      0.0100
    CHARGE:  cpu time     22.4496: real time     22.4722
    MIXING:  cpu time      0.0505: real time      0.0515
    --------------------------------------------
      LOOP:  cpu time    251.4517: real time    251.6065

 eigenvalue-minimisations  :  2016
 total energy-change (2. order) :-0.9347604E+03  (-0.1079979E+01)
 number of electron     352.9999999 magnetization 
 augmentation part      -16.4212246 magnetization 

 Broyden mixing:
  rms(total) = 0.11048E+01    rms(broyden)= 0.28048E+02
  rms(prec ) = 0.11435E+01
  weight for this iteration     100.00
  WARNING: grid for Broyden might be to small

 Free energy of the ion-electron system (eV)
  ---------------------------------------------------
  alpha Z        PSCENC =        44.70035321
  Ewald energy   TEWEN  =     47342.06846908
  -Hartree energ DENC   =    -54768.82293361
  -exchange      EXHF   =         0.00000000
  -V(xc)+E(xc)   XCENC  =      -240.37758433
  PAW double counting   =     30415.15786925   -29648.41574417
  entropy T*S    EENTRO =        -0.24830523
  eigenvalues    EBANDS =     -2576.94516738
  atomic energy  EATOM  =      8498.12264875
  Solvation  Ediel_sol  =         0.00000000
  ---------------------------------------------------
  free energy    TOTEN  =      -934.76039443 eV

  energy without entropy =     -934.51208920  energy(sigma->0) =     -934.63624182


--------------------------------------------------------------------------------------------------------




--------------------------------------- Iteration      1(   2)  ---------------------------------------


    POTLOK:  cpu time      2.1040: real time      2.1253
    SETDIJ:  cpu time      1.8128: real time      1.8142
    EDDIAG:  cpu time     38.6282: real time     38.6515
     EDDAV:  cpu time    182.1309: real time    182.2340
       DOS:  cpu time      0.0065: real time      0.0065
    CHARGE:  cpu time     22.2399: real time     22.2605
    MIXING:  cpu time      0.0431: real time      0.0433
    --------------------------------------------
      LOOP:  cpu time    246.9653: real time    247.1352

 eigenvalue-minimisations  :  1936
 total energy-change (2. order) : 0.6341849E+02  (-0.1118424E+01)
 number of electron     352.9999999 magnetization 
 augmentation part      -16.3801941 magnetization 

 Broyden mixing:
  rms(total) = 0.77204E+00    rms(broyden)= 0.16119E+02
  rms(prec ) = 0.80640E+00
  weight for this iteration     100.00
  WARNING: grid for Broyden might be to small

 eigenvalues of (default mixing * dielectric matrix)
  average eigenvalue GAMMA=   0.6352
  0.6352

 Free energy of the ion-electron system (eV)
  ---------------------------------------------------
  alpha Z        PSCENC =        44.70035321
  Ewald energy   TEWEN  =     47342.06846908
  -Hartree energ DENC   =    -54754.64075311
  -exchange      EXHF   =         0.00000000
  -V(xc)+E(xc)   XCENC  =      -234.79899921
  PAW double counting   =     36175.42820739   -35408.40753597
  entropy T*S    EENTRO =        -0.21943614
  eigenvalues    EBANDS =     -2533.59485663
  atomic energy  EATOM  =      8498.12264875
  Solvation  Ediel_sol  =         0.00000000
  ---------------------------------------------------
  free energy    TOTEN  =      -871.34190264 eV

  energy without entropy =     -871.12246650  energy(sigma->0) =     -871.23218457


--------------------------------------------------------------------------------------------------------




--------------------------------------- Iteration      1(   3)  ---------------------------------------


    POTLOK:  cpu time      2.0964: real time      2.1207
    SETDIJ:  cpu time      1.8148: real time      1.8161
    EDDIAG:  cpu time     38.6375: real time     38.6581
     EDDAV:  cpu time    188.7011: real time    188.8060
       DOS:  cpu time      0.0021: real time      0.0021
    CHARGE:  cpu time     22.3026: real time     22.3218
    MIXING:  cpu time      0.0423: real time      0.0423
    --------------------------------------------
      LOOP:  cpu time    253.5968: real time    253.7671

 eigenvalue-minimisations  :  2056
 total energy-change (2. order) :-0.2678468E+01  (-0.1337383E+01)
 number of electron     352.9999999 magnetization 
 augmentation part      -16.3113375 magnetization 

 Broyden mixing:
  rms(total) = 0.53221E+00    rms(broyden)= 0.14986E+02
  rms(prec ) = 0.66164E+00
  weight for this iteration     100.00
  WARNING: grid for Broyden might be to small

 eigenvalues of (default mixing * dielectric matrix)
  average eigenvalue GAMMA=   0.5658
  0.6440  0.4876

 Free energy of the ion-electron system (eV)
  ---------------------------------------------------
  alpha Z        PSCENC =        44.70035321
  Ewald energy   TEWEN  =     47342.06846908
  -Hartree energ DENC   =    -54768.36205271
  -exchange      EXHF   =         0.00000000
  -V(xc)+E(xc)   XCENC  =      -236.85189380
  PAW double counting   =     41471.65123328   -40704.73437488
  entropy T*S    EENTRO =        -0.16700308
  eigenvalues    EBANDS =     -2520.44775048
  atomic energy  EATOM  =      8498.12264875
  Solvation  Ediel_sol  =         0.00000000
  ---------------------------------------------------
  free energy    TOTEN  =      -874.02037063 eV

  energy without entropy =     -873.85336755  energy(sigma->0) =     -873.93686909


--------------------------------------------------------------------------------------------------------




--------------------------------------- Iteration      1(   4)  ---------------------------------------


    POTLOK:  cpu time      2.1013: real time      2.1276
    SETDIJ:  cpu time      1.8015: real time      1.8025
    EDDIAG:  cpu time     38.6470: real time     38.6667
     EDDAV:  cpu time    202.1800: real time    202.2928
       DOS:  cpu time      0.0024: real time      0.0024
    CHARGE:  cpu time     22.3081: real time     22.3277
    MIXING:  cpu time      0.0414: real time      0.0414
    --------------------------------------------
      LOOP:  cpu time    267.0817: real time    267.2612

 eigenvalue-minimisations  :  2312
 total energy-change (2. order) : 0.2827830E+00  (-0.7212329E+00)
 number of electron     352.9999999 magnetization 
 augmentation part      -16.3319594 magnetization 

 Broyden mixing:
  rms(total) = 0.34214E+00    rms(broyden)= 0.10848E+02
  rms(prec ) = 0.56522E+00
  weight for this iteration     100.00
  WARNING: grid for Broyden might be to small

 eigenvalues of (default mixing * dielectric matrix)
  average eigenvalue GAMMA=   0.5277
  0.6761  0.5838  0.3234

 Free energy of the ion-electron system (eV)
  ---------------------------------------------------
  alpha Z        PSCENC =        44.70035321
  Ewald energy   TEWEN  =     47342.06846908
  -Hartree energ DENC   =    -54764.74445470
  -exchange      EXHF   =         0.00000000
  -V(xc)+E(xc)   XCENC  =      -237.00985597
  PAW double counting   =     46501.80176505   -45734.93603074
  entropy T*S    EENTRO =        -0.24274189
  eigenvalues    EBANDS =     -2523.49774042
  atomic energy  EATOM  =      8498.12264875
  Solvation  Ediel_sol  =         0.00000000
  ---------------------------------------------------
  free energy    TOTEN  =      -873.73758763 eV

  energy without entropy =     -873.49484574  energy(sigma->0) =     -873.61621669


--------------------------------------------------------------------------------------------------------




--------------------------------------- Iteration      1(   5)  ---------------------------------------


    POTLOK:  cpu time      2.1126: real time      2.1352
    SETDIJ:  cpu time      1.8133: real time      1.8144
    EDDIAG:  cpu time     38.6564: real time     38.6779
     EDDAV:  cpu time    199.8626: real time    199.9766
       DOS:  cpu time      0.0022: real time      0.0022
    CHARGE:  cpu time     22.2167: real time     22.2386
    MIXING:  cpu time      0.0426: real time      0.0426
    --------------------------------------------
      LOOP:  cpu time    264.7064: real time    264.8874

 eigenvalue-minimisations  :  2272
 total energy-change (2. order) : 0.3780089E+00  (-0.4500279E+00)
 number of electron     352.9999999 magnetization 
 augmentation part      -16.3073970 magnetization 

 Broyden mixing:
  rms(total) = 0.18896E+00    rms(broyden)= 0.32902E+01
  rms(prec ) = 0.27742E+00
  weight for this iteration     100.00
  WARNING: grid for Broyden might be to small

 eigenvalues of (default mixing * dielectric matrix)
  average eigenvalue GAMMA=   0.8019
  1.6861  0.6583  0.5907  0.2724

 Free energy of the ion-electron system (eV)
  ---------------------------------------------------
  alpha Z        PSCENC =        44.70035321
  Ewald energy   TEWEN  =     47342.06846908
  -Hartree energ DENC   =    -54765.73313471
  -exchange      EXHF   =         0.00000000
  -V(xc)+E(xc)   XCENC  =      -237.27102769
  PAW double counting   =     47822.16953928   -47055.31334088
  entropy T*S    EENTRO =        -0.22629658
  eigenvalues    EBANDS =     -2521.87678922
  atomic energy  EATOM  =      8498.12264875
  Solvation  Ediel_sol  =         0.00000000
  ---------------------------------------------------
  free energy    TOTEN  =      -873.35957877 eV

  energy without entropy =     -873.13328219  energy(sigma->0) =     -873.24643048


--------------------------------------------------------------------------------------------------------




--------------------------------------- Iteration      1(   6)  ---------------------------------------


    POTLOK:  cpu time      2.1244: real time      2.1487
    SETDIJ:  cpu time      1.8083: real time      1.8094
    EDDIAG:  cpu time     38.6559: real time     38.6763
     EDDAV:  cpu time    189.1921: real time    189.3045
       DOS:  cpu time      0.0091: real time      0.0098
    CHARGE:  cpu time     22.2014: real time     22.2212
    MIXING:  cpu time      0.0564: real time      0.0578
    --------------------------------------------
      LOOP:  cpu time    254.0476: real time    254.2277

 eigenvalue-minimisations  :  2064
 total energy-change (2. order) :-0.5740663E-01  (-0.2456530E+00)
 number of electron     352.9999999 magnetization 
 augmentation part      -16.3226577 magnetization 

 Broyden mixing:
  rms(total) = 0.20085E+00    rms(broyden)= 0.19417E+01
  rms(prec ) = 0.25050E+00
  weight for this iteration     100.00
  WARNING: grid for Broyden might be to small

 eigenvalues of (default mixing * dielectric matrix)
  average eigenvalue GAMMA=   0.7348
  1.8655  0.6375  0.4554  0.4554  0.2604

 Free energy of the ion-electron system (eV)
  ---------------------------------------------------
  alpha Z        PSCENC =        44.70035321
  Ewald energy   TEWEN  =     47342.06846908
  -Hartree energ DENC   =    -54763.19265033
  -exchange      EXHF   =         0.00000000
  -V(xc)+E(xc)   XCENC  =      -237.45426138
  PAW double counting   =     47774.99900176   -47008.12440974
  entropy T*S    EENTRO =        -0.21118668
  eigenvalues    EBANDS =     -2524.32495007
  atomic energy  EATOM  =      8498.12264875
  Solvation  Ediel_sol  =         0.00000000
  ---------------------------------------------------
  free energy    TOTEN  =      -873.41698540 eV

  energy without entropy =     -873.20579872  energy(sigma->0) =     -873.31139206


--------------------------------------------------------------------------------------------------------




--------------------------------------- Iteration      1(   7)  ---------------------------------------


    POTLOK:  cpu time      2.1057: real time      2.1265
    SETDIJ:  cpu time      1.8255: real time      1.8273
    EDDIAG:  cpu time     38.6678: real time     38.6880
     EDDAV:  cpu time    187.2927: real time    187.3981
       DOS:  cpu time      0.0022: real time      0.0022
    CHARGE:  cpu time     22.2328: real time     22.2522
    MIXING:  cpu time      0.0421: real time      0.0421
    --------------------------------------------
      LOOP:  cpu time    252.1689: real time    252.3365

 eigenvalue-minimisations  :  2032
 total energy-change (2. order) : 0.5727580E-01  (-0.3704021E-01)
 number of electron     352.9999999 magnetization 
 augmentation part      -16.3188011 magnetization 

 Broyden mixing:
  rms(total) = 0.56676E-01    rms(broyden)= 0.60270E+00
  rms(prec ) = 0.68871E-01
  weight for this iteration     100.00
  WARNING: grid for Broyden might be to small

 eigenvalues of (default mixing * dielectric matrix)
  average eigenvalue GAMMA=   0.8259
  2.2678  0.5867  0.5867  0.6643  0.5900  0.2597

 Free energy of the ion-electron system (eV)
  ---------------------------------------------------
  alpha Z        PSCENC =        44.70035321
  Ewald energy   TEWEN  =     47342.06846908
  -Hartree energ DENC   =    -54764.94418477
  -exchange      EXHF   =         0.00000000
  -V(xc)+E(xc)   XCENC  =      -237.53613931
  PAW double counting   =     47949.97266429   -47183.09544797
  entropy T*S    EENTRO =        -0.24374370
  eigenvalues    EBANDS =     -2522.40432918
  atomic energy  EATOM  =      8498.12264875
  Solvation  Ediel_sol  =         0.00000000
  ---------------------------------------------------
  free energy    TOTEN  =      -873.35970960 eV

  energy without entropy =     -873.11596590  energy(sigma->0) =     -873.23783775


--------------------------------------------------------------------------------------------------------




--------------------------------------- Iteration      1(   8)  ---------------------------------------


    POTLOK:  cpu time      2.1177: real time      2.1274
    SETDIJ:  cpu time      1.8087: real time      1.8098
    EDDIAG:  cpu time     38.6796: real time     38.7018
     EDDAV:  cpu time    184.7132: real time    184.8203
       DOS:  cpu time      0.0031: real time      0.0031
    CHARGE:  cpu time     22.2294: real time     22.2491
    MIXING:  cpu time      0.0446: real time      0.0446
    --------------------------------------------
      LOOP:  cpu time    249.5961: real time    249.7561

 eigenvalue-minimisations  :  1984
 total energy-change (2. order) : 0.1204438E-01  (-0.5281721E-02)
 number of electron     352.9999999 magnetization 
 augmentation part      -16.3173413 magnetization 

 Broyden mixing:
  rms(total) = 0.36363E-01    rms(broyden)= 0.34285E+00
  rms(prec ) = 0.42746E-01
  weight for this iteration     100.00
  WARNING: grid for Broyden might be to small

 eigenvalues of (default mixing * dielectric matrix)
  average eigenvalue GAMMA=   0.8068
  2.5051  0.8298  0.6166  0.4791  0.4791  0.2624  0.4752

 Free energy of the ion-electron system (eV)
  ---------------------------------------------------
  alpha Z        PSCENC =        44.70035321
  Ewald energy   TEWEN  =     47342.06846908
  -Hartree energ DENC   =    -54763.88477858
  -exchange      EXHF   =         0.00000000
  -V(xc)+E(xc)   XCENC  =      -237.57308722
  PAW double counting   =     47904.02172505   -47137.13690053
  entropy T*S    EENTRO =        -0.24326983
  eigenvalues    EBANDS =     -2523.42282514
  atomic energy  EATOM  =      8498.12264875
  Solvation  Ediel_sol  =         0.00000000
  ---------------------------------------------------
  free energy    TOTEN  =      -873.34766521 eV

  energy without entropy =     -873.10439538  energy(sigma->0) =     -873.22603030


--------------------------------------------------------------------------------------------------------




--------------------------------------- Iteration      1(   9)  ---------------------------------------


    POTLOK:  cpu time      2.1164: real time      2.1400
    SETDIJ:  cpu time      1.7993: real time      1.8004
    EDDIAG:  cpu time     38.6650: real time     38.6867
     EDDAV:  cpu time    185.5260: real time    185.6313
       DOS:  cpu time      0.0053: real time      0.0053
    CHARGE:  cpu time     22.2242: real time     22.2468
    MIXING:  cpu time      0.0442: real time      0.0442
    --------------------------------------------
      LOOP:  cpu time    250.3806: real time    250.5550

 eigenvalue-minimisations  :  2000
 total energy-change (2. order) : 0.2833223E-02  (-0.2815145E-02)
 number of electron     352.9999999 magnetization 
 augmentation part      -16.3165210 magnetization 

 Broyden mixing:
  rms(total) = 0.21327E-01    rms(broyden)= 0.62181E-01
  rms(prec ) = 0.22617E-01
  weight for this iteration     100.00
  WARNING: grid for Broyden might be to small

 eigenvalues of (default mixing * dielectric matrix)
  average eigenvalue GAMMA=   0.8107
  2.5639  0.9842  0.4853  0.4853  0.6503  0.6084  0.2630  0.4452

 Free energy of the ion-electron system (eV)
  ---------------------------------------------------
  alpha Z        PSCENC =        44.70035321
  Ewald energy   TEWEN  =     47342.06846908
  -Hartree energ DENC   =    -54763.30365610
  -exchange      EXHF   =         0.00000000
  -V(xc)+E(xc)   XCENC  =      -237.50548688
  PAW double counting   =     47873.30306610   -47106.41187254
  entropy T*S    EENTRO =        -0.24397789
  eigenvalues    EBANDS =     -2524.07437572
  atomic energy  EATOM  =      8498.12264875
  Solvation  Ediel_sol  =         0.00000000
  ---------------------------------------------------
  free energy    TOTEN  =      -873.34483199 eV

  energy without entropy =     -873.10085410  energy(sigma->0) =     -873.22284304


--------------------------------------------------------------------------------------------------------




--------------------------------------- Iteration      1(  10)  ---------------------------------------


    POTLOK:  cpu time      2.0946: real time      2.1221
    SETDIJ:  cpu time      1.8162: real time      1.8173
    EDDIAG:  cpu time     38.6617: real time     38.6827
     EDDAV:  cpu time    190.2782: real time    190.3880
       DOS:  cpu time      0.0042: real time      0.0042
    CHARGE:  cpu time     22.2292: real time     22.2476
    MIXING:  cpu time      0.0468: real time      0.0468
    --------------------------------------------
      LOOP:  cpu time    255.1309: real time    255.3086

 eigenvalue-minimisations  :  2088
 total energy-change (2. order) :-0.9595425E-03  (-0.7396821E-03)
 number of electron     352.9999999 magnetization 
 augmentation part      -16.3157739 magnetization 

 Broyden mixing:
  rms(total) = 0.19422E-01    rms(broyden)= 0.16118E+00
  rms(prec ) = 0.23713E-01
  weight for this iteration     100.00
  WARNING: grid for Broyden might be to small

 eigenvalues of (default mixing * dielectric matrix)
  average eigenvalue GAMMA=   0.8273
  2.5658  1.0923  0.7605  0.7605  0.6316  0.4897  0.4897  0.2630  0.3929

 Free energy of the ion-electron system (eV)
  ---------------------------------------------------
  alpha Z        PSCENC =        44.70035321
  Ewald energy   TEWEN  =     47342.06846908
  -Hartree energ DENC   =    -54762.42887340
  -exchange      EXHF   =         0.00000000
  -V(xc)+E(xc)   XCENC  =      -237.34108173
  PAW double counting   =     47880.97513292   -47114.07285743
  entropy T*S    EENTRO =        -0.24205922
  eigenvalues    EBANDS =     -2525.12752372
  atomic energy  EATOM  =      8498.12264875
  Solvation  Ediel_sol  =         0.00000000
  ---------------------------------------------------
  free energy    TOTEN  =      -873.34579153 eV

  energy without entropy =     -873.10373232  energy(sigma->0) =     -873.22476193


--------------------------------------------------------------------------------------------------------




--------------------------------------- Iteration      1(  11)  ---------------------------------------


    POTLOK:  cpu time      2.1042: real time      2.1258
    SETDIJ:  cpu time      1.8091: real time      1.8104
    EDDIAG:  cpu time     38.6593: real time     38.6807
     EDDAV:  cpu time    186.4598: real time    186.5685
       DOS:  cpu time      0.0043: real time      0.0043
    CHARGE:  cpu time     22.2442: real time     22.2657
    MIXING:  cpu time      0.0464: real time      0.0464
    --------------------------------------------
      LOOP:  cpu time    251.3274: real time    251.5018

 eigenvalue-minimisations  :  2016
 total energy-change (2. order) :-0.2353804E-03  (-0.5504666E-03)
 number of electron     352.9999999 magnetization 
 augmentation part      -16.3145142 magnetization 

 Broyden mixing:
  rms(total) = 0.70610E-02    rms(broyden)= 0.26654E-01
  rms(prec ) = 0.89004E-02
  weight for this iteration     100.00
  WARNING: grid for Broyden might be to small

 eigenvalues of (default mixing * dielectric matrix)
  average eigenvalue GAMMA=   0.8634
  2.5653  1.4114  1.0508  0.4753  0.4753  0.6780  0.6589  0.6589  0.2630  0.3967

 Free energy of the ion-electron system (eV)
  ---------------------------------------------------
  alpha Z        PSCENC =        44.70035321
  Ewald energy   TEWEN  =     47342.06846908
  -Hartree energ DENC   =    -54762.32370622
  -exchange      EXHF   =         0.00000000
  -V(xc)+E(xc)   XCENC  =      -237.29107368
  PAW double counting   =     47859.87160816   -47092.96099590
  entropy T*S    EENTRO =        -0.24389739
  eigenvalues    EBANDS =     -2525.28943291
  atomic energy  EATOM  =      8498.12264875
  Solvation  Ediel_sol  =         0.00000000
  ---------------------------------------------------
  free energy    TOTEN  =      -873.34602691 eV

  energy without entropy =     -873.10212953  energy(sigma->0) =     -873.22407822


--------------------------------------------------------------------------------------------------------




--------------------------------------- Iteration      1(  12)  ---------------------------------------


    POTLOK:  cpu time      2.0969: real time      2.1227
    SETDIJ:  cpu time      1.8144: real time      1.8152
    EDDIAG:  cpu time     38.6910: real time     38.7121
     EDDAV:  cpu time    183.8196: real time    183.9301
       DOS:  cpu time      0.0042: real time      0.0042
    CHARGE:  cpu time     22.2279: real time     22.2488
    MIXING:  cpu time      0.0461: real time      0.0462
    --------------------------------------------
      LOOP:  cpu time    248.7001: real time    248.8794

 eigenvalue-minimisations  :  1968
 total energy-change (2. order) :-0.3110616E-04  (-0.4645886E-03)
 number of electron     352.9999999 magnetization 
 augmentation part      -16.3144521 magnetization 

 Broyden mixing:
  rms(total) = 0.12863E-01    rms(broyden)= 0.38403E-01
  rms(prec ) = 0.16456E-01
  weight for this iteration     100.00
  WARNING: grid for Broyden might be to small

 eigenvalues of (default mixing * dielectric matrix)
  average eigenvalue GAMMA=   0.8861
  2.5661  1.7402  1.1789  0.8651  0.4836  0.4836  0.2630  0.6218  0.6218  0.5298
  0.3934

 Free energy of the ion-electron system (eV)
  ---------------------------------------------------
  alpha Z        PSCENC =        44.70035321
  Ewald energy   TEWEN  =     47342.06846908
  -Hartree energ DENC   =    -54762.33710515
  -exchange      EXHF   =         0.00000000
  -V(xc)+E(xc)   XCENC  =      -237.29635570
  PAW double counting   =     47851.55730587   -47084.64406031
  entropy T*S    EENTRO =        -0.24413090
  eigenvalues    EBANDS =     -2525.27318287
  atomic energy  EATOM  =      8498.12264875
  Solvation  Ediel_sol  =         0.00000000
  ---------------------------------------------------
  free energy    TOTEN  =      -873.34605802 eV

  energy without entropy =     -873.10192712  energy(sigma->0) =     -873.22399257


--------------------------------------------------------------------------------------------------------




--------------------------------------- Iteration      1(  13)  ---------------------------------------


    POTLOK:  cpu time      2.0983: real time      2.1205
    SETDIJ:  cpu time      1.8161: real time      1.8177
    EDDIAG:  cpu time     38.6742: real time     38.6971
     EDDAV:  cpu time    185.2379: real time    185.3482
       DOS:  cpu time      0.0040: real time      0.0040
    CHARGE:  cpu time     22.2036: real time     22.2243
    MIXING:  cpu time      0.0474: real time      0.0474
    --------------------------------------------
      LOOP:  cpu time    250.0815: real time    250.2593

 eigenvalue-minimisations  :  1992
 total energy-change (2. order) : 0.2849695E-03  (-0.1883305E-03)
 number of electron     352.9999999 magnetization 
 augmentation part      -16.3150258 magnetization 

 Broyden mixing:
  rms(total) = 0.78650E-02    rms(broyden)= 0.29262E-01
  rms(prec ) = 0.10057E-01
  weight for this iteration     100.00
  WARNING: grid for Broyden might be to small

 eigenvalues of (default mixing * dielectric matrix)
  average eigenvalue GAMMA=   0.8888
  2.5010  2.3237  1.0891  0.8001  0.8001  0.4750  0.4750  0.6346  0.2630  0.5235
  0.3902  0.3902

 Free energy of the ion-electron system (eV)
  ---------------------------------------------------
[...]
   0.425E+02 0.122E+02 -.214E+03   -.434E+02 -.120E+02 0.211E+03   0.101E+01 -.130E+00 0.201E+01   0.524E-04 -.294E-04 0.515E-04
   -.493E+02 0.253E+02 -.151E+03   0.496E+02 -.237E+02 0.150E+03   -.409E+00 -.133E+01 0.631E+00   -.587E-04 0.262E-04 0.881E-04
   0.174E+02 -.410E+02 0.348E+03   -.175E+02 0.416E+02 -.349E+03   -.112E+00 -.742E+00 0.303E+00   0.403E-04 -.691E-04 0.107E-03
   0.440E+02 0.195E+02 -.303E+03   -.432E+02 -.190E+02 0.301E+03   -.511E+00 -.307E+00 0.175E+01   0.449E-04 -.244E-05 0.750E-05
   -.272E+02 0.110E+02 0.270E+03   0.286E+02 -.128E+02 -.270E+03   -.114E+01 0.161E+01 -.981E+00   0.179E-03 -.715E-03 0.268E-03
   -.741E+01 -.388E+02 -.209E+03   0.637E+01 0.328E+02 0.209E+03   0.925E+00 0.437E+01 0.416E+00   -.634E-05 0.719E-05 0.816E-04
   -.406E+02 -.272E+01 -.301E+03   0.378E+02 0.219E+01 0.301E+03   0.216E+01 0.493E+00 0.347E+00   -.253E-04 0.577E-04 0.372E-04
   -.166E+02 -.235E+02 0.232E+03   0.157E+02 0.220E+02 -.232E+03   0.847E+00 0.135E+01 0.325E+00   -.140E-04 -.407E-04 0.730E-04
   -.466E+02 0.127E+02 -.927E+02   0.449E+02 -.125E+02 0.930E+02   0.162E+01 -.191E+00 -.739E-01   -.525E-04 -.203E-04 0.927E-04
   -.482E+02 0.175E+02 0.472E+02   0.497E+02 -.189E+02 -.471E+02   -.144E+01 0.122E+01 -.234E+00   -.107E-03 0.914E-04 0.140E-03
   0.547E+02 0.326E+00 0.210E+02   -.561E+02 0.241E+01 -.214E+02   0.136E+01 -.233E+01 0.156E+00   0.748E-04 -.211E-04 0.722E-04
   -.422E+02 -.944E+01 0.131E+03   0.451E+02 0.922E+01 -.129E+03   -.264E+01 0.348E+00 -.173E+01   -.132E-03 -.837E-04 0.809E-04
   -.361E-01 -.128E+02 0.259E+03   0.349E+01 0.110E+02 -.257E+03   -.325E+01 0.147E+01 -.241E+01   -.691E-03 0.147E-03 0.381E-03
 -----------------------------------------------------------------------------------------------
   0.514E+01 -.943E+01 0.123E+02   -.135E-12 0.107E-12 0.455E-12   -.515E+01 0.944E+01 -.124E+02   -.581E-03 -.231E-03 0.835E-02


 POSITION                                       TOTAL-FORCE (eV/Angst)
 -----------------------------------------------------------------------------------
      3.96096      2.98733     12.75205        -0.119141     -0.026615     -0.024547
      2.16035      8.05142     15.24059         0.154277     -0.187445     -0.172788
      3.96705      8.87870     16.60206         0.209128     -0.074380     -0.025030
      1.17593      6.82859     13.19086        -0.054719      0.040359     -0.014144
      1.06173     12.58302     13.31823         0.029223     -0.156238      0.005932
      0.40006      8.65485     18.83453         0.191867      0.196578      0.360249
      3.84732      4.81956      9.24338        -0.033832     -0.223911     -0.164669
      4.75452      7.36027     13.06562        -0.077072      0.022850     -0.134379
      2.78351      8.51278     13.06031        -0.081688     -0.087128      0.039754
      4.62531     13.88578     11.05101         0.024967      0.131026     -0.020230
      1.24573      0.31072     12.72189         0.004893      0.110729      0.012069
      3.06967      8.72807     12.38771        -0.198708     -0.150310      0.364736
      1.86333      1.07396     15.59240         0.075982      0.040472      0.137880
      3.70915      2.90714     12.05584        -0.070990      0.022313      0.233455
      3.17656     13.54369     15.54848         0.076790     -0.037576     -0.050477
      2.14576      4.19008     13.59719        -0.019469      0.037744      0.033167
      4.57959      6.23586      9.62102         0.220621      0.210833     -0.299747
      3.68438     11.97249     13.75340        -0.017647     -0.017894      0.008612
      3.15835      4.61041     15.91497         0.056160      0.385529     -0.043251
      4.90685      1.94989     10.16895         0.104001      0.004340      0.028999
      3.59949     12.23098     10.86786         0.013996     -0.021656     -0.104706
      0.09177      6.72511     16.59548         0.099230     -0.201040      0.062120
      2.49160     13.49888     15.82499        -0.132015     -0.081662     -0.043646
      1.54815     10.15478     13.30375        -0.023662     -0.001375      0.053985
      5.73977      1.04737     12.69466         0.091915     -0.000430      0.095596
      2.99467      6.77000     17.17838        -0.097283      0.269933     -0.016974
      3.39668     11.25377     16.58749         0.092644     -0.011013     -0.146028
      5.57242     13.62151     13.87035        -0.096195     -0.010414      0.119837
      0.13650     13.90964     14.51703        -0.016834     -0.051295      0.137430
      2.35569     13.19199     11.44559        -0.158137      0.091337     -0.154859
      0.24137      2.68489     13.38262        -0.055884     -0.014269      0.035322
      2.71810      1.30891     10.95262         0.112716     -0.067106     -0.024373
      2.65968     11.32966     16.50283         0.090859      0.011330     -0.029854
      8.36708      9.43289     12.96777        -0.009212     -0.095525     -0.061305
      5.14702     11.34570     16.19656         0.030123      0.102675     -0.092166
      4.53650      9.51397     14.15975         0.042920      0.033184      0.144987
      0.35064      4.09546     16.01493        -0.033558      0.064243      0.149455
      3.43862      0.75995      8.71433         0.020281     -0.183938     -0.051688
      4.79116      0.01751     15.98598         0.084645      0.031576      0.237580
      5.14724     14.05680     11.55216         0.019823      0.160789     -0.036927
      5.34023      4.82454     12.41228        -0.045282      0.008009      0.039614
      1.55669      4.53028     11.62873        -0.101036      0.091192      0.015238
      5.89290      6.99065     16.52564        -0.112916      0.072081     -0.026475
      2.17877      4.58262     14.22887        -0.017914     -0.014653     -0.030291
      3.38137     11.29340     13.70865         0.030303      0.078195      0.004167
      7.28996      1.92247     15.35865        -0.007960     -0.408957      0.042896
     12.05795     12.38227     15.08540         0.062985      0.224469      0.096108
     10.67134     11.72337     11.57708         0.066623     -0.248796     -0.343753
      0.28508      0.40991      9.44256        -0.207672      0.552046      0.081403
      0.10212      9.84232     13.15052         0.054491      0.102976     -0.039378
     13.89764     13.16497     10.74073        -0.145080     -0.140139     -0.042624
      8.03931      5.74732     14.72661        -0.300998      0.132625      0.364423
      6.85986      1.98437     12.97298        -0.229026      0.155238     -0.019870
     12.19659      4.44379     12.81086         0.054043     -0.238366     -0.226316
      9.01754      8.90537     18.14886        -0.066832      0.078998      0.380371
      5.11131      2.15175     18.21769        -0.309701      0.291201     -0.280563
      6.47489      4.01637     11.88669         0.256169      0.104529      0.277737
      5.47987      8.47445     13.70250        -0.005209     -0.335475     -0.072509
      7.20470      7.81967     10.58077        -0.831761     -0.085719      0.001859
     11.05642      7.93804     11.77869         0.077506      0.081457     -0.132550
      8.43714      5.03495     12.52523         0.048674     -0.191869     -0.496820
      1.33295      1.20602     16.97682        -0.507368      0.079066      0.179421
      9.48196      4.42434     17.60657         0.032406     -0.105655     -0.220414
      9.50270     13.91920     17.54063        -0.108281     -0.247600     -0.334191
      8.93077      1.17516     12.16239        -0.067887      0.237028      0.043259
     13.34120     12.75754     18.27854        -0.041045     -0.034838      0.337909
     11.40101      3.44119     16.49214         0.080116     -0.095149      0.056331
     13.36132     14.28056     14.99020         0.042692     -0.025820     -0.159054
     12.36066      8.84584     15.73633         0.241054     -0.043449      0.403062
      7.73226      9.49695     16.22865         0.031116     -0.042376     -0.255818
      6.60079     11.55947     15.93548        -0.248445     -0.376758      0.599511
      6.60499     11.57429     11.69866        -0.201548     -0.280558     -0.067222
      8.72625     13.88290     13.71354         0.276446      0.160270      0.132641
      5.68648      4.33660     17.74289         0.334190     -0.326863      0.013287
      7.05443      9.37427     12.23756         0.568794      0.395099     -0.077298
      2.84990      2.05924     18.54039         0.301189      0.905055     -0.472693
     10.78754     10.01168     17.07791         0.155609     -0.173130     -0.111391
     14.52921      6.65729     10.06325         0.246564      0.721137      0.148621
      6.70967      7.56486     15.41527        -0.120654      0.165740      0.075471
     14.08244     10.55660     10.95133        -0.108568      0.034092     -0.133492
      9.63789      6.75115     17.51607        -0.185116      0.012064     -0.490652
     14.19187      2.48874     10.30390        -0.125324     -0.366031     -0.247032
      7.53284      4.06330     16.31146        -0.144279      0.100707      0.173742
     10.17049     12.03892     13.80032         0.031369      0.092218      0.139622
      0.38501      3.36187     17.32240         0.006197      0.020292     -0.219668
     13.59371      2.58695     12.53008         0.220087     -0.115424      0.083886
     12.25060      0.86189     13.34457         0.151375      0.110008     -0.152438
      1.03996      8.83705     10.08594        -0.097852     -0.571448      0.277824
      2.74322      3.82914      8.99073         0.024047      0.221429      0.119873
      9.20410      0.59044     15.59373        -0.263810      0.048490      0.189306
     13.76296      0.25087     17.23990         0.349469     -0.015971      0.121743
      9.14430      6.68801     11.03461         0.244703     -0.099039      0.098169
      4.58718     11.19109     10.51693        -0.386682     -0.457937     -0.113209
      9.57817     10.10104     14.97835        -0.249633     -0.031279     -0.124083
      3.45308      9.14450     10.45476         0.527454      0.364962     -0.747009
      2.64728      8.22923     16.62416        -0.172008      0.374961      0.047453
      5.09098      7.63760      9.72753         0.168057     -0.168865      0.504016
     11.83432      9.90211     10.75506        -0.099824     -0.023689      0.140402
     12.93761      6.51206     11.81564        -0.137526      0.084225     -0.025811
     11.25573     12.30803     17.28045        -0.223953     -0.201910      0.213165
     10.76259      8.34576     14.08654         0.034363      0.427053     -0.043519
      0.09619     11.28944     17.06413        -0.004727     -0.551284      0.120218
     13.61360     10.66880     15.08254         0.223572     -0.130495     -0.529185
     12.92940      2.35546     17.89696         0.114027      0.229410     -0.255619
     10.02581      3.29721     12.79412         0.160200      0.096559      0.107338
      1.97665      4.20520     18.82896        -0.324626      0.126998      0.355479
      8.62865     12.46392     10.75642         0.231333      0.400148      0.249132
     10.16905      6.46285     15.28732         0.542562      0.010436      0.008545
     10.70954      2.08214     14.69510        -0.107578     -0.072731     -0.050192
      5.96135      0.54806     16.75153         0.088151      0.056719     -0.270295
     13.63310      6.90024     15.54588        -0.115499      0.220004     -0.001030
      9.69785     14.52570     10.31778        -0.221793     -0.338140      0.050834
      7.29481     13.27145     17.36597         0.334576      0.248012     -0.306248
      3.48448      1.77537      9.78007         0.211416     -0.128591     -0.235203
      3.51778      5.06070     17.28894        -0.080557     -1.422861      0.361992
      1.20988      9.50858     17.93052        -0.654811     -0.096184      0.093555
     11.73905     13.86789     11.48370         0.034556     -0.115741      0.234083
     12.10794      5.16484     15.07492         0.005721      0.040316      0.163523
     14.42764      7.48312     13.39962         0.018566     -0.148848     -0.124341
      6.71002     12.66866     13.81692        -0.034030      0.351436     -0.225552
      1.11330     13.52265     12.18009         0.109785      0.141594      0.340971
      0.92869      4.48115     10.26775         0.071237     -0.242529     -0.333767
 -----------------------------------------------------------------------------------
    total drift:                               -0.010953      0.006614      0.004867


--------------------------------------------------------------------------------------------------------



  FREE ENERGIE OF THE ION-ELECTRON SYSTEM (eV)
  ---------------------------------------------------
  free  energy   TOTEN  =      -873.34613045 eV

  energy  without entropy=     -873.10285830  energy(sigma->0) =     -873.22449437



--------------------------------------------------------------------------------------------------------


    POTLOK:  cpu time      3.9027: real time      3.9056


--------------------------------------------------------------------------------------------------------


     LOOP+:  cpu time   7187.8208: real time   7192.7878
    4ORBIT:  cpu time      0.0000: real time      0.0000



 total charge

# of ion       s       p       d       tot
------------------------------------------
    1        0.614   0.033   0.000   0.646
    2        0.573   0.016   0.000   0.589
    3        0.579   0.016   0.000   0.596
    4        0.565   0.016   0.000   0.581
    5        0.581   0.016   0.000   0.598
    6        0.556   0.016   0.000   0.572
    7        0.560   0.017   0.000   0.577
    8        0.578   0.016   0.000   0.595
    9        0.596   0.031   0.000   0.627
   10        0.614   0.034   0.000   0.648
   11        0.579   0.016   0.000   0.595
   12        0.617   0.035   0.000   0.651
   13        0.559   0.016   0.000   0.575
   14        0.615   0.033   0.000   0.648
   15        0.615   0.034   0.000   0.648
   16        0.609   0.033   0.000   0.642
   17        0.554   0.018   0.000   0.572
   18        0.612   0.032   0.000   0.645
   19        0.561   0.016   0.000   0.577
   20        0.577   0.015   0.000   0.592
   21        0.574   0.019   0.000   0.593
   22        0.569   0.016   0.000   0.585
   23        0.619   0.033   0.000   0.652
   24        0.571   0.016   0.000   0.587
   25        0.569   0.016   0.000   0.585
   26        0.571   0.014   0.000   0.586
   27        0.612   0.033   0.000   0.646
   28        0.571   0.016   0.000   0.587
   29        0.574   0.018   0.000   0.592
   30        0.578   0.017   0.000   0.595
   31        0.564   0.015   0.000   0.579
   32        0.578   0.016   0.000   0.594
   33        0.617   0.033   0.000   0.650
   34        0.569   0.016   0.000   0.585
   35        0.571   0.016   0.000   0.587
   36        0.576   0.016   0.000   0.592
   37        0.562   0.015   0.000   0.577
   38        0.582   0.016   0.000   0.598
   39        0.563   0.016   0.000   0.579
   40        0.615   0.033   0.000   0.649
   41        0.562   0.016   0.000   0.578
   42        0.555   0.016   0.000   0.571
   43        0.568   0.015   0.000   0.583
   44        0.616   0.032   0.000   0.648
   45        0.610   0.033   0.000   0.643
   46        0.755   0.933   0.000   1.688
   47        0.760   0.977   0.000   1.737
   48        0.759   0.939   0.000   1.698
   49        0.863   0.718   0.000   1.580
   50        0.744   0.950   0.000   1.695
   51        0.752   0.888   0.000   1.640
   52        0.771   0.919   0.000   1.689
   53        0.742   0.953   0.000   1.696
   54        0.754   0.906   0.000   1.660
   55        0.810   0.843   0.000   1.653
   56        0.785   0.887   0.000   1.672
   57        0.786   0.905   0.000   1.690
   58        0.740   1.028   0.000   1.768
   59        0.757   0.931   0.000   1.689
   60        0.749   0.914   0.000   1.663
   61        0.754   0.937   0.000   1.691
   62        0.751   0.953   0.000   1.704
   63        0.799   0.832   0.000   1.630
   64        0.776   0.871   0.000   1.648
   65        0.758   0.885   0.000   1.643
   66        0.804   0.857   0.000   1.662
   67        0.753   0.924   0.000   1.677
   68        0.750   0.996   0.000   1.746
   69        0.765   0.934   0.000   1.699
   70        0.753   0.945   0.000   1.697
   71        0.744   0.949   0.000   1.693
   72        0.743   0.933   0.000   1.676
   73        0.762   0.924   0.000   1.687
   74        0.780   0.880   0.000   1.660
   75        0.746   1.001   0.000   1.748
   76        0.792   0.854   0.000   1.647
   77        0.770   0.908   0.000   1.678
   78        0.779   0.832   0.000   1.611
   79        0.739   1.000   0.000   1.739
   80        0.750   0.857   0.000   1.607
   81        0.793   0.862   0.000   1.654
   82        0.773   0.888   0.000   1.661
   83        0.752   0.918   0.000   1.670
   84        0.758   0.952   0.000   1.711
   85        0.748   0.956   0.000   1.705
   86        0.743   0.984   0.000   1.728
   87        0.748   0.939   0.000   1.687
   88        0.776   0.801   0.000   1.577
   89        0.780   0.919   0.000   1.699
   90        0.756   0.951   0.000   1.706
   91        0.754   0.920   0.000   1.675
   92        0.785   0.860   0.000   1.645
   93        0.775   0.898   0.000   1.673
   94        0.767   0.942   0.000   1.709
   95        0.777   0.842   0.000   1.619
   96        0.745   0.974   0.000   1.719
   97        0.755   0.916   0.000   1.671
   98        0.778   0.887   0.000   1.665
   99        0.748   0.923   0.000   1.671
  100        0.755   0.925   0.000   1.681
  101        0.766   0.955   0.000   1.721
  102        0.778   0.883   0.000   1.661
  103        0.759   0.958   0.000   1.717
  104        0.792   0.866   0.000   1.658
  105        0.755   0.894   0.000   1.649
  106        0.807   0.866   0.000   1.673
  107        0.790   0.846   0.000   1.635
  108        0.771   0.949   0.000   1.720
  109        0.761   0.935   0.000   1.697
  110        0.741   0.965   0.000   1.706
  111        0.743   0.977   0.000   1.721
  112        0.815   0.807   0.000   1.623
  113        0.775   0.886   0.000   1.661
  114        0.736   1.031   0.000   1.767
  115        0.780   0.870   0.000   1.650
  116        0.753   0.949   0.000   1.702
  117        0.759   0.871   0.000   1.630
  118        0.756   0.938   0.000   1.694
  119        0.746   0.957   0.000   1.702
  120        0.750   0.950   0.000   1.699
  121        0.739   1.029   0.000   1.768
  122        0.735   0.956   0.000   1.690
--------------------------------------------------
tot         85.101  71.522   0.000 156.623


 total amount of memory used by VASP MPI-rank0   377831. kBytes
=======================================================================

   base                                    :      30000. kBytes
   nonl-proj                               :      87028. kBytes
   fftplans                                :     108867. kBytes
   grid                                    :      83991. kBytes
   one-center                              :         24. kBytes
   wavefun                                 :      67921. kBytes

  
  
 General timing and accounting informations for this job:
 ========================================================
  
                  Total CPU time used (sec):     7338.495
                            User time (sec):     6539.658
                          System time (sec):      798.837
                         Elapsed time (sec):     7343.576
  
                   Maximum memory used (kb):      653160.
                   Average memory used (kb):          N/A
  
                          Minor page faults:      9857604
                          Major page faults:         1190
                 Voluntary context switches:         3652
