 vasp.6.5.0 16Dec24 (build Jan 20 2025 08:32:48) complex                         
 executed on        HPECrayEX_GCC date 2025.07.21  22:55:14
 running  128 mpi-ranks, with    1 threads/rank, on    1 nodes
 distrk:  each k-point on  128 cores,    1 groups
 distr:  one band on NCORE=  16 cores,    8 groups


--------------------------------------------------------------------------------------------------------


 INCAR:
   SYSTEM = a-Si SPC
   NCORE = 16
   ISTART = 1
   ICHARG = 1
   ISPIN = 1
   ISYM = 1
   EDIFF = 1E-6
   NELM = 150
   EDIFFG = -0.01
   NSW = 0
   ISIF = 2
   IBRION = -1
   PREC = Accurate
   ENCUT = 1200
   KSPACING = 0.23
   KGAMMA = .TRUE.
   METAGGA = SCAN
   LASPH = .TRUE.
   LDIAG = .FALSE.
   LMIXTAU = .TRUE.
   ADDGRID = .TRUE.
   ALGO = Normal
   ISMEAR = 0
   SIGMA = 0.1
   LORBIT = 11
   NEDOS = 2000
   LWAVE = .FALSE.
   LCHARG = .FALSE.

 POTCAR:    PAW_PBE H 15Jun2001                   
 POTCAR:    PAW_PBE Si 05Jan2001                  
 POTCAR:    PAW_PBE H 15Jun2001                   
   SHA256 =  030f79b5d3ab3cf0e668861823c8fb652ff669f3e15e46930bd03bfd63a607b6 H/POTCAR              
   COPYR  = (c) Copyright 15Jun2001 Georg Kresse                                                    
   COPYR  = This file is part of the software VASP. Any use, copying, and all other rights are regul
   COPYR  = If you do not have a valid VASP license, you may not use, copy or distribute this file. 
   VRHFIN =H: ultrasoft test                                                                        
   LEXCH  = PE                                                                                      
   EATOM  =    12.4884 eV,    0.9179 Ry                                                             
                                                                                                    
   TITEL  = PAW_PBE H 15Jun2001                                                                     
   LULTRA =        F    use ultrasoft PP ?                                                          
   IUNSCR =        0    unscreen: 0-lin 1-nonlin 2-no                                               
   RPACOR =    0.000    partial core radius                                                         
   POMASS =    1.000; ZVAL   =    1.000    mass and valenz                                          
   RCORE  =    1.100    outmost cutoff radius                                                       
   RWIGS  =    0.700; RWIGS  =    0.370    wigner-seitz radius (au A)                               
   ENMAX  =  250.000; ENMIN  =  200.000 eV                                                          
   RCLOC  =    0.701    cutoff for local pot                                                        
   LCOR   =        T    correct aug charges                                                         
   LPAW   =        T    paw PP                                                                      
   EAUG   =  400.000                                                                                
   RMAX   =    1.123    core radius for proj-oper                                                   
   RAUG   =    1.200    factor for augmentation sphere                                              
   RDEP   =    1.112    radius for radial grids                                                     
   RDEPT  =    0.926    core radius for aug-charge                                                  
                                                                                                    
   Atomic configuration                                                                             
    2 entries                                                                                       
     n  l   j            E        occ.                                                              
     1  0  0.50        -6.4927   1.0000                                                             
     2  1  0.50        -3.4015   0.0000                                                             
   Description                                                                                      
     l       E           TYP  RCUT    TYP  RCUT                                                     
     0     -6.4927494     23  1.100                                                                 
     0      6.8029130     23  1.100                                                                 
     1     -4.0817478     23  1.100                                                                 
  local pseudopotential read in
  atomic valenz-charges read in
  non local Contribution for L=           0  read in
    real space projection operators read in
  non local Contribution for L=           0  read in
    real space projection operators read in
  non local Contribution for L=           1  read in
    real space projection operators read in
    PAW grid and wavefunctions read in

   number of l-projection  operators is LMAX  =           3
   number of lm-projection operators is LMMAX =           5

 POTCAR:    PAW_PBE Si 05Jan2001                  
   SHA256 =  79d9987ad8750f624c4d6acb2a16d13abf6a777132adc04dc6c8399be72b42bb Si/POTCAR             
   COPYR  = (c) Copyright 05Jan2001 Georg Kresse                                                    
   COPYR  = This file is part of the software VASP. Any use, copying, and all other rights are regul
   COPYR  = If you do not have a valid VASP license, you may not use, copy or distribute this file. 
   VRHFIN =Si: s2p2                                                                                 
   LEXCH  = PE                                                                                      
   EATOM  =   103.0669 eV,    7.5752 Ry                                                             
                                                                                                    
   TITEL  = PAW_PBE Si 05Jan2001                                                                    
   LULTRA =        F    use ultrasoft PP ?                                                          
   IUNSCR =        1    unscreen: 0-lin 1-nonlin 2-no                                               
   RPACOR =    1.500    partial core radius                                                         
   POMASS =   28.085; ZVAL   =    4.000    mass and valenz                                          
   RCORE  =    1.900    outmost cutoff radius                                                       
   RWIGS  =    2.480; RWIGS  =    1.312    wigner-seitz radius (au A)                               
   ENMAX  =  245.345; ENMIN  =  184.009 eV                                                          
   ICORE  =        2    local potential                                                             
   LCOR   =        T    correct aug charges                                                         
   LPAW   =        T    paw PP                                                                      
   EAUG   =  322.069                                                                                
   DEXC   =    0.000                                                                                
   RMAX   =    1.950    core radius for proj-oper                                                   
   RAUG   =    1.300    factor for augmentation sphere                                              
   RDEP   =    1.993    radius for radial grids                                                     
   RDEPT  =    1.837    core radius for aug-charge                                                  
                                                                                                    
   Atomic configuration                                                                             
    6 entries                                                                                       
     n  l   j            E        occ.                                                              
     1  0  0.50     -1785.8828   2.0000                                                             
     2  0  0.50      -139.4969   2.0000                                                             
     2  1  1.50       -95.5546   6.0000                                                             
     3  0  0.50       -10.8127   2.0000                                                             
     3  1  0.50        -4.0811   2.0000                                                             
     3  2  1.50        -4.0817   0.0000                                                             
   Description                                                                                      
     l       E           TYP  RCUT    TYP  RCUT                                                     
     0    -10.8127223     23  1.900                                                                 
     0     -7.6451159     23  1.900                                                                 
     1     -4.0811372     23  1.900                                                                 
     1      2.4879257     23  1.900                                                                 
     2     -4.0817478      7  1.900                                                                 
  local pseudopotential read in
  partial core-charges read in
  partial kinetic energy density read in
  atomic valenz-charges read in
  non local Contribution for L=           0  read in
    real space projection operators read in
  non local Contribution for L=           0  read in
    real space projection operators read in
  non local Contribution for L=           1  read in
    real space projection operators read in
  non local Contribution for L=           1  read in
    real space projection operators read in
    PAW grid and wavefunctions read in

   number of l-projection  operators is LMAX  =           4
   number of lm-projection operators is LMMAX =           8

 -----------------------------------------------------------------------------
|                                                                             |
|               ----> ADVICE to this user running VASP <----                  |
|                                                                             |
|     You have a (more or less) 'large supercell' and for larger cells it     |
|     might be more efficient to use real-space projection operators.         |
|     Therefore, try LREAL= Auto in the INCAR file.                           |
|     Mind: For very accurate calculation, you might also keep the            |
|     reciprocal projection scheme (i.e. LREAL=.FALSE.).                      |
|                                                                             |
 -----------------------------------------------------------------------------

 -----------------------------------------------------------------------------
|                                                                             |
|               ----> ADVICE to this user running VASP <----                  |
|                                                                             |
|     You enforced a specific xc type in the INCAR file but a different       |
|     type was found in the POTCAR file.                                      |
|     I HOPE YOU KNOW WHAT YOU ARE DOING!                                     |
|                                                                             |
 -----------------------------------------------------------------------------

  PAW_PBE H 15Jun2001                   :
 energy of atom  1       EATOM=  -12.4884
 kinetic energy error for atom=    0.0000 (will be added to EATOM!!)
  PAW_PBE Si 05Jan2001                  :
 energy of atom  2       EATOM= -103.0669
 kinetic energy error for atom=    0.0001 (will be added to EATOM!!)


 POSCAR:  H Si
  positions in cartesian coordinates
  No initial velocities read in


 exchange-correlation table for SCAN
   RHO(1)=    0.500       N(1)  =     2000
   RHO(2)=  100.500       N(2)  =     4000



--------------------------------------------------------------------------------------------------------


 ion  position               nearest neighbor table
   1  0.176  0.507  0.503-   9 0.73
   2  0.178  0.646  0.603-  15 0.80
   3  0.173  0.724  0.775-  40 1.62
   4  0.108  0.566  0.180-  18 0.72
   5  0.999  0.684  0.084-  32 1.50
   6  0.412  0.687  0.307-  66 1.53
   7  0.115  0.778  0.296-  76 1.49
   8  0.366  0.531  0.529-  61 1.49
   9  0.157  0.464  0.477-   1 0.73
  10  0.100  0.652  0.410-  14 0.79
  11  0.107  0.344  0.991-  79 1.51
  12  0.290  0.622  0.351-  17 0.74
  13  0.136  0.381  0.327- 102 1.59
  14  0.089  0.599  0.420-  10 0.79
  15  0.215  0.606  0.587-   2 0.80
  16  0.300  0.716  0.524-  98 1.44
  17  0.272  0.580  0.322-  12 0.74
  18  0.136  0.605  0.197-   4 0.72
  19  0.161  0.965  0.130-  77 2.41  65 2.41  76 2.44  57 2.57
  20  0.721  0.624  0.533-  53 2.35  52 2.35  87 2.53  37 2.54
  21  0.556  0.120  0.484-  58 2.24  59 2.38  34 2.40  47 2.50
  22  0.801  0.267  0.325-  62 2.31  69 2.40  29 2.44  68 2.50  80 3.13
  23  0.107  0.249  0.559- 102 2.31 101 2.34  41 2.38  71 2.40
  24  0.414  0.169  0.056-  31 2.31 107 2.34  36 2.38  89 2.40
  25  0.674  0.576  0.072-  99 2.26  88 2.29  56 2.30 104 2.37
  26  0.725  0.869  0.986-  84 2.22  72 2.31  86 2.33  33 2.37
  27  0.818  0.100  0.092-  84 2.33  95 2.33  94 2.37  69 2.44
  28  0.391  0.430  0.023-  93 2.35  31 2.41  48 2.49  88 3.14
  29  0.913  0.348  0.450-  90 2.34 102 2.39  22 2.44  80 2.63
  30  0.958  0.884  0.942-  45 2.31  84 2.38  57 2.39  32 2.61
  31  0.389  0.286  0.917-  24 2.31  54 2.32  97 2.40  28 2.41
  32  0.970  0.777  0.133-   5 1.50  76 2.24  74 2.45  30 2.61
  33  0.569  0.915  0.999-  85 2.33  26 2.37  75 2.40  64 2.44
  34  0.586  0.193  0.676-  51 2.26  97 2.33  42 2.38  21 2.40
  35  0.039  0.175  0.257-  95 2.27 102 2.34  65 2.40  78 2.42
  36  0.565  0.150  0.134-  94 2.30  24 2.38 103 2.38  75 2.61
  37  0.604  0.750  0.493-  50 2.41 105 2.48  66 2.49  20 2.54  39 2.78
  38  0.326  0.783  0.987-  77 2.29  64 2.35  40 2.50
  39  0.627  0.895  0.332-  47 2.26  75 2.38  72 2.48  37 2.78
  40  0.250  0.803  0.784-   3 1.62  70 2.39  98 2.48  38 2.50
  41  0.019  0.112  0.581-  91 2.19  23 2.38  78 2.43  49 2.43 108 3.15
  42  0.664  0.327  0.608-  62 2.35  34 2.38  63 2.50  55 2.62  97 3.07  87 3.14
  43  0.385  0.322  0.540- 101 2.29  59 2.42  61 2.45  97 2.51
  44  0.524  0.904  0.696- 105 2.35  85 2.36  58 2.40  50 2.41
  45  0.901  0.814  0.767-  30 2.31  86 2.34  82 2.37
  46  0.010  0.155  0.900-  95 2.33  79 2.34  49 2.36  57 2.41
  47  0.689  0.019  0.426-  39 2.26  67 2.40  69 2.41  21 2.50
  48  0.501  0.509  0.884-  88 2.34  55 2.34  81 2.39  28 2.49
  49  0.909  0.166  0.732-  46 2.36  90 2.38  41 2.43 100 2.44
  50  0.490  0.745  0.653-  81 2.39  37 2.41  44 2.41  98 2.46 105 2.88
  51  0.644  0.108  0.830-  34 2.26  94 2.30  85 2.35 100 2.36
  52  0.842  0.718  0.470-  20 2.35  82 2.38  74 2.49
  53  0.692  0.511  0.384-  20 2.35  60 2.35  62 2.39 104 2.41
  54  0.257  0.231  0.824- 101 2.28  31 2.32  79 2.34  83 2.38
  55  0.549  0.449  0.696-  48 2.34  61 2.41  97 2.41  87 2.52  42 2.62
  56  0.686  0.630  0.875-  86 2.26  25 2.30  87 2.34  81 2.45
  57  0.071  0.003  0.934-  70 2.36  30 2.39  46 2.41  19 2.57
  58  0.461  0.010  0.550-  21 2.24 109 2.38  44 2.40  92 2.45
  59  0.445  0.215  0.390- 103 2.24  21 2.38  43 2.42 107 2.44
  60  0.533  0.516  0.349-  66 2.30  61 2.30  53 2.35  93 2.43
  61  0.452  0.475  0.521-   8 1.49  60 2.30  55 2.41  43 2.45
  62  0.675  0.349  0.396-  22 2.31  42 2.35  53 2.39 103 2.43
  63  0.785  0.378  0.755-  90 2.21  87 2.42  42 2.50  73 2.55
  64  0.487  0.769  0.989-  81 2.26  38 2.35  99 2.42  33 2.44
  65  0.181  0.090  0.272-  96 2.39  35 2.40  19 2.41 107 2.46
  66  0.515  0.672  0.329-   6 1.53  60 2.30  99 2.43  37 2.49
  67  0.765  0.954  0.600- 100 2.31  82 2.38  47 2.40 105 2.40
  68  0.857  0.327  0.124-  80 2.34  95 2.40  73 2.45  22 2.50
  69  0.805  0.103  0.314-  78 2.33  22 2.40  47 2.41  27 2.44
  70  0.162  0.942  0.776-  91 2.29  57 2.36  40 2.39  83 2.45
  71  0.060  0.363  0.705-  90 2.37  23 2.40  79 2.42
  72  0.706  0.801  0.175-  99 2.29  26 2.31  74 2.42  39 2.48
  73  0.734  0.339  0.971-  88 2.42  68 2.45  94 2.49  63 2.55
  74  0.838  0.713  0.242- 104 2.29  72 2.42  32 2.45  52 2.49
  75  0.533  0.980  0.194- 106 2.37  39 2.38  33 2.40  36 2.61
  76  0.065  0.860  0.249-   7 1.49  32 2.24 108 2.43  19 2.44
  77  0.314  0.929  0.063-  38 2.29 106 2.33  89 2.35  19 2.41
  78  0.952  0.071  0.386-  69 2.33 108 2.33  35 2.42  41 2.43
  79  0.111  0.279  0.883-  11 1.51  46 2.34  54 2.34  71 2.42
  80  0.905  0.447  0.251-  68 2.34 104 2.41  29 2.63  22 3.13
  81  0.524  0.668  0.840-  64 2.26  50 2.39  48 2.39  56 2.45
  82  0.894  0.858  0.559- 108 2.31  45 2.37  67 2.38  52 2.38
  83  0.270  0.072  0.778- 109 2.22  89 2.31  54 2.38  70 2.45 101 3.06
  84  0.826  0.980  0.952-  26 2.22  27 2.33  30 2.38 100 2.40
  85  0.513  0.016  0.852-  89 2.22  33 2.33  51 2.35  44 2.36
  86  0.756  0.765  0.830-  56 2.26  26 2.33  45 2.34 105 2.37
  87  0.705  0.522  0.719-  56 2.34  63 2.42  55 2.52  20 2.53  42 3.14
  88  0.607  0.440  0.016-  25 2.29  48 2.34  73 2.42  93 2.45  28 3.14
  89  0.375  0.040  0.930-  85 2.22  83 2.31  77 2.35  24 2.40
  90  0.907  0.321  0.661-  63 2.21  29 2.34  71 2.37  49 2.38
  91  0.097  0.983  0.593-  41 2.19  70 2.29 108 2.33  96 2.35
  92  0.348  0.918  0.438- 106 2.36  96 2.42  58 2.45  98 2.46 109 3.11
  93  0.498  0.412  0.183-  28 2.35 103 2.39  60 2.43  88 2.45
  94  0.690  0.177  0.009-  51 2.30  36 2.30  27 2.37  73 2.49
  95  0.949  0.193  0.090-  35 2.27  46 2.33  27 2.33  68 2.40
  96  0.220  0.022  0.463-  91 2.35 109 2.35  65 2.39  92 2.42
  97  0.477  0.302  0.732-  34 2.33  31 2.40  55 2.41  43 2.51  42 3.07
  98  0.336  0.794  0.589-  16 1.44  92 2.46  50 2.46  40 2.48
  99  0.590  0.698  0.134-  25 2.26  72 2.29  64 2.42  66 2.43
 100  0.788  0.053  0.762-  67 2.31  51 2.36  84 2.40  49 2.44
 101  0.261  0.243  0.617-  54 2.28  43 2.29  23 2.34 109 2.35  83 3.06
 102  0.062  0.309  0.372-  13 1.59  23 2.31  35 2.34  29 2.39
 103  0.557  0.274  0.274-  59 2.24  36 2.38  93 2.39  62 2.43
 104  0.790  0.565  0.221-  74 2.29  25 2.37  80 2.41  53 2.41
 105  0.667  0.833  0.672-  44 2.35  86 2.37  67 2.40  37 2.48  50 2.88
 106  0.375  0.986  0.245-  77 2.33  92 2.36  75 2.37 107 2.48
 107  0.336  0.152  0.242-  24 2.34  59 2.44  65 2.46 106 2.48
 108  0.005  0.925  0.437-  82 2.31  78 2.33  91 2.33  76 2.43  41 3.15
 109  0.326  0.097  0.591-  83 2.22 101 2.35  96 2.35  58 2.38  92 3.11

  LATTYP: Found a simple tetragonal cell.
 ALAT       =    14.5549806953
 C/A-ratio  =     0.7525620123
  
  Lattice vectors:
  
 A1 = (  14.5549806953,   0.0000000000,   0.0000000000)
 A2 = (   0.0000000000,  14.5549806953,   0.0000000000)
 A3 = (   0.0000000000,   0.0000000000,  10.9535255613)


Analysis of symmetry for initial positions (statically):
=====================================================================
 Subroutine PRICEL returns:
 Original cell was already a primitive cell.
 

 Routine SETGRP: Setting up the symmetry group for a 
 simple tetragonal supercell.


 Subroutine GETGRP returns: Found  1 space group operations
 (whereof  1 operations were pure point group operations)
 out of a pool of 16 trial point group operations.


The static configuration has the point symmetry C_1 .


Analysis of symmetry for dynamics (positions and initial velocities):
=====================================================================
 Subroutine PRICEL returns:
 Original cell was already a primitive cell.
 

 Routine SETGRP: Setting up the symmetry group for a 
 simple tetragonal supercell.


 Subroutine GETGRP returns: Found  1 space group operations
 (whereof  1 operations were pure point group operations)
 out of a pool of 16 trial point group operations.


The dynamic configuration has the point symmetry C_1 .


 Subroutine INISYM returns: Found  1 space group operations
 (whereof  1 operations are pure point group operations),
 and found     1 'primitive' translations


----------------------------------------------------------------------------------------

                                     Primitive cell                                     

  volume of cell :    2320.4766

  direct lattice vectors                    reciprocal lattice vectors
    14.554980695  0.000000000  0.000000000     0.068705004  0.000000000  0.000000000
     0.000000000 14.554980695  0.000000000     0.000000000  0.068705004  0.000000000
     0.000000000  0.000000000 10.953525561     0.000000000  0.000000000  0.091294807

  length of vectors
    14.554980695 14.554980695 10.953525561     0.068705004  0.068705004  0.091294807

  position of ions in fractional coordinates (direct lattice)
     0.176411089  0.506740624  0.502818930
     0.178443383  0.645658706  0.602802263
     0.172518951  0.724480521  0.774947751
     0.107675169  0.565886013  0.179732999
     0.998959071  0.684330691  0.084213069
     0.412317277  0.687173704  0.307492778
     0.115124852  0.778269668  0.296472582
     0.366359813  0.530951580  0.528689139
     0.156742221  0.464430022  0.477371415
     0.099859974  0.651725358  0.409523854
     0.107348133  0.343501658  0.991151200
     0.289735870  0.622166404  0.351468573
     0.136428213  0.380806414  0.326894750
     0.089144055  0.598818383  0.419967067
     0.214968337  0.606281807  0.587273017
     0.299912455  0.715913007  0.523604018
     0.271523548  0.579952676  0.321851625
     0.135904680  0.604911142  0.196595150
     0.160735356  0.965140408  0.130057669
     0.720653652  0.623560429  0.533409994
     0.556383424  0.119528843  0.483908123
     0.800894226  0.267295442  0.324880787
     0.106556651  0.249311220  0.558926892
     0.414122844  0.169276075  0.056479715
     0.673912264  0.576318868  0.071507296
     0.724927104  0.868712935  0.986486035
     0.818496448  0.099620881  0.092112808
     0.391343700  0.430216304  0.023310394
     0.913309353  0.347531206  0.450476878
     0.958187461  0.883580698  0.941541602
     0.389026280  0.285744110  0.916727673
     0.970361988  0.776613878  0.132524455
     0.569247749  0.914566654  0.998783445
     0.585961615  0.193152438  0.676305538
     0.039310736  0.174694151  0.257383797
     0.565345305  0.149700645  0.134141286
     0.604222031  0.749612811  0.493473080
     0.326160515  0.782838551  0.987371595
     0.627212099  0.894910153  0.332186197
     0.250172094  0.803498146  0.784410458
     0.019225927  0.111740444  0.580947200
     0.663857974  0.327266666  0.608268996
     0.384514423  0.321581327  0.539716639
     0.523743051  0.904260904  0.696363920
     0.901443999  0.813735191  0.767486227
     0.009584004  0.155212848  0.899858219
     0.689069962  0.019072303  0.425837323
     0.500930242  0.508799713  0.883768422
     0.909193923  0.166096407  0.731737919
     0.490203330  0.745146986  0.652619101
     0.644470796  0.107584478  0.829997607
     0.842275250  0.717905452  0.469518236
     0.692436508  0.511386456  0.384378525
     0.256947782  0.230827513  0.824082616
     0.548904198  0.448809939  0.695865451
     0.685974115  0.630406882  0.874730236
     0.070746916  0.003451410  0.934429736
     0.460727509  0.009935018  0.550144332
     0.444604506  0.215305679  0.390071669
     0.532974943  0.516193058  0.349135078
     0.451914031  0.475209837  0.520755620
     0.675207354  0.348638731  0.395784898
     0.785050852  0.378219670  0.754746036
     0.486733727  0.769015104  0.988877959
     0.180802026  0.090265321  0.271600224
     0.515147368  0.672156165  0.328570010
     0.765469926  0.953646060  0.599531170
     0.856627725  0.327095590  0.123857839
     0.804934080  0.102904980  0.314176470
     0.162476341  0.942323476  0.776245963
     0.060133505  0.363408933  0.705036927
     0.705559163  0.800832392  0.175247685
     0.734154186  0.338883995  0.971139378
     0.837988058  0.713432757  0.242450705
     0.532683633  0.979568458  0.194498108
     0.065067829  0.860111069  0.249100619
     0.314188668  0.928774849  0.063192165
     0.952093327  0.070993567  0.385513320
     0.110570397  0.279287900  0.883355769
     0.904920472  0.447134911  0.250687323
     0.523718317  0.668209062  0.839799930
     0.894003247  0.857589595  0.559111308
     0.269847146  0.071859250  0.777567912
     0.825957811  0.979781444  0.951547512
     0.512863614  0.015774600  0.851985048
     0.755631370  0.764995862  0.830256884
     0.705057617  0.521617318  0.719089024
     0.606792285  0.440189522  0.016097283
     0.374608535  0.040263605  0.930129751
     0.906713673  0.320854428  0.661035569
     0.097265673  0.983141118  0.593421722
     0.347931070  0.918173667  0.437835286
     0.497855693  0.411619921  0.182816025
     0.689502804  0.176527888  0.008817481
     0.949001602  0.192810974  0.090261350
     0.219600429  0.021742248  0.463237153
     0.476564699  0.302018951  0.732064754
     0.335534626  0.794209229  0.589293371
     0.590272167  0.698152764  0.133561564
     0.788156318  0.052590795  0.761810428
     0.261322229  0.243293349  0.616774021
     0.061862397  0.308559667  0.372340392
     0.556561370  0.274337018  0.274342720
     0.790272433  0.564592298  0.221465681
     0.667017717  0.832814571  0.672273047
     0.374723273  0.986129786  0.245026132
     0.336165338  0.152268838  0.242062703
     0.004849556  0.925092261  0.437216307
     0.325553163  0.096555264  0.591478968

  ion indices of the primitive-cell ions
   primitive index   ion index
                 1           1
                 2           2
                 3           3
                 4           4
                 5           5
                 6           6
                 7           7
                 8           8
                 9           9
                10          10
                11          11
                12          12
                13          13
                14          14
                15          15
                16          16
                17          17
                18          18
                19          19
                20          20
                21          21
                22          22
                23          23
                24          24
                25          25
                26          26
                27          27
                28          28
                29          29
                30          30
                31          31
                32          32
                33          33
                34          34
                35          35
                36          36
                37          37
                38          38
                39          39
                40          40
                41          41
                42          42
                43          43
                44          44
                45          45
                46          46
                47          47
                48          48
                49          49
                50          50
                51          51
                52          52
                53          53
                54          54
                55          55
                56          56
                57          57
                58          58
                59          59
                60          60
                61          61
                62          62
                63          63
                64          64
                65          65
                66          66
                67          67
                68          68
                69          69
                70          70
                71          71
                72          72
                73          73
                74          74
                75          75
                76          76
                77          77
                78          78
                79          79
                80          80
                81          81
                82          82
                83          83
                84          84
                85          85
                86          86
                87          87
                88          88
                89          89
                90          90
                91          91
                92          92
                93          93
                94          94
                95          95
                96          96
                97          97
                98          98
                99          99
               100         100
               101         101
               102         102
               103         103
               104         104
               105         105
               106         106
               107         107
               108         108
               109         109

----------------------------------------------------------------------------------------


 -----------------------------------------------------------------------------
|                                                                             |
|           W    W    AA    RRRRR   N    N  II  N    N   GGGG   !!!           |
|           W    W   A  A   R    R  NN   N  II  NN   N  G    G  !!!           |
|           W    W  A    A  R    R  N N  N  II  N N  N  G       !!!           |
|           W WW W  AAAAAA  RRRRR   N  N N  II  N  N N  G  GGG   !            |
|           WW  WW  A    A  R   R   N   NN  II  N   NN  G    G                |
|           W    W  A    A  R    R  N    N  II  N    N   GGGG   !!!           |
|                                                                             |
|     The requested file  could not be found or opened for reading            |
|     k-point information. Automatic k-point generation is used as a          |
|     fallback, which may lead to unwanted results.                           |
|                                                                             |
 -----------------------------------------------------------------------------



Automatic generation of k-mesh.
 Grid dimensions derived from KSPACING:
 generate k-points for:    2    2    3

 Generating k-lattice:

  Cartesian coordinates                     Fractional coordinates (reciprocal lattice)
     0.034352502  0.000000000  0.000000000     0.500000000  0.000000000  0.000000000
     0.000000000  0.034352502  0.000000000     0.000000000  0.500000000  0.000000000
     0.000000000  0.000000000  0.030431602     0.000000000  0.000000000  0.333333333

  Length of vectors
     0.034352502  0.034352502  0.030431602

  Shift w.r.t. Gamma in fractional coordinates (k-lattice)
     0.000000000  0.000000000  0.000000000

 
 Subroutine IBZKPT returns following result:
 ===========================================
 
 Found      8 irreducible k-points:
 
 Following reciprocal coordinates:
            Coordinates               Weight
  0.000000  0.000000  0.000000      1.000000
  0.500000  0.000000  0.000000      1.000000
  0.000000  0.500000  0.000000      1.000000
  0.500000  0.500000  0.000000      1.000000
  0.000000  0.000000  0.333333      2.000000
  0.500000  0.000000  0.333333      2.000000
  0.000000  0.500000  0.333333      2.000000
  0.500000  0.500000  0.333333      2.000000
 
 Following cartesian coordinates:
            Coordinates               Weight
  0.000000  0.000000  0.000000      1.000000
  0.034353  0.000000  0.000000      1.000000
  0.000000  0.034353  0.000000      1.000000
  0.034353  0.034353  0.000000      1.000000
  0.000000  0.000000  0.030432      2.000000
  0.034353  0.000000  0.030432      2.000000
  0.000000  0.034353  0.030432      2.000000
  0.034353  0.034353  0.030432      2.000000
 


--------------------------------------------------------------------------------------------------------




 Dimension of arrays:
   k-points           NKPTS =      8   k-points in BZ     NKDIM =      8   number of bands    NBANDS=    248
   number of dos      NEDOS =   2000   number of ions     NIONS =    109
   non local maximal  LDIM  =      4   non local SUM 2l+1 LMDIM =      8
   total plane-waves  NPLWV = ******
   max r-space proj   IRMAX =      1   max aug-charges    IRDMAX= 410075
   dimension x,y,z NGX =   168 NGY =  168 NGZ =  126
   dimension x,y,z NGXF=   336 NGYF=  336 NGZF=  252
   support grid    NGXF=   672 NGYF=  672 NGZF=  504
   ions per type =              18  91
   NGX,Y,Z   is equivalent  to a cutoff of  19.19, 19.19, 19.12 a.u.
   NGXF,Y,Z  is equivalent  to a cutoff of  38.38, 38.38, 38.25 a.u.

 SYSTEM =  a-Si SPC                                
 POSCAR =   H Si                                   

 Startparameter for this run:
   NWRITE =      2    write-flag & timer
   PREC   = accura    normal or accurate (medium, high low for compatibility)
   ISTART =      1    job   : 0-new  1-cont  2-samecut
   ICHARG =      1    charge: 1-file 2-atom 10-const
   ISPIN  =      1    spin polarized calculation?
   LNONCOLLINEAR =      F non collinear calculations
   LSORBIT =      F    spin-orbit coupling
   INIWAV =      1    electr: 0-lowe 1-rand  2-diag
   LASPH  =      T    aspherical Exc in radial PAW
 Electronic Relaxation 1
   ENCUT  = 1200.0 eV  88.20 Ry    9.39 a.u.  41.11 41.11 30.94*2*pi/ulx,y,z
   ENINI  = 1200.0     initial cutoff
   ENAUG  =  400.0 eV  augmentation charge cutoff
   NELM   =    150;   NELMIN=  2; NELMDL=  0     # of ELM steps 
   EDIFF  = 0.1E-05   stopping-criterion for ELM
   LREAL  =      F    real-space projection
   NLSPLINE    = F    spline interpolate recip. space projectors
   LCOMPAT=      F    compatible to vasp.4.4
   GGA_COMPAT  = T    GGA compatible to vasp.4.4-vasp.4.6
   LMAXPAW     = -100 max onsite density
   LMAXMIX     =    2 max onsite mixed and CHGCAR
   VOSKOWN=      0    Vosko Wilk Nusair interpolation
   ROPT   =    0.00000   0.00000
 Ionic relaxation
   EDIFFG = -.1E-01   stopping-criterion for IOM
   NSW    =      0    number of steps for IOM
   NBLOCK =      1;   KBLOCK =      1    inner block; outer block 
   IBRION =     -1    ionic relax: 0-MD 1-quasi-New 2-CG
   NFREE  =      0    steps in history (QN), initial steepest desc. (CG)
   ISIF   =      2    stress and relaxation
   IWAVPR =     10    prediction:  0-non 1-charg 2-wave 3-comb
   ISYM   =      1    0-nonsym 1-usesym 2-fastsym
   LCORR  =      T    Harris-Foulkes like correction to forces

   POTIM  = 0.5000    time-step for ionic-motion
   TEIN   =    0.0    initial temperature
   TEBEG  =    0.0;   TEEND  =   0.0 temperature during run
   SMASS  =  -3.00    Nose mass-parameter (am)
   estimated Nose-frequenzy (Omega)   =  0.10E-29 period in steps = 0.13E+47 mass=  -0.484E-26a.u.
   SCALEE = 1.0000    scale energy and forces
   NPACO  =    256;   APACO  = 10.0  distance and # of slots for P.C.
   PSTRESS=    0.0 pullay stress

  Mass of Ions in am
   POMASS =   1.00 28.09
  Ionic Valenz
   ZVAL   =   1.00  4.00
  Atomic Wigner-Seitz radii
   RWIGS  =  -1.00 -1.00
  virtual crystal weights 
   VCA    =   1.00  1.00
   NELECT =     382.0000    total number of electrons
   NUPDOWN=      -1.0000    fix difference up-down

 DOS related values:
   EMIN   =  10.00;   EMAX   =-10.00  energy-range for DOS
   EFERMI =   0.00;   METHOD = LEGACY      
   ISMEAR =     0;   SIGMA  =   0.10  broadening in eV -4-tet -1-fermi 0-gaus
   EFERMI_NEDOS =   21; number of points for ismear=-14 and -15

 Electronic relaxation 2 (details)
   IALGO  =     38    algorithm
   LDIAG  =      F    sub-space diagonalisation (order eigenvalues)
   LSUBROT=      F    optimize rotation matrix (better conditioning)
   TURBO    =      0    0=normal 1=particle mesh
   IRESTART =      0    0=no restart 2=restart with 2 vectors
   NREBOOT  =      0    no. of reboots
   NMIN     =      0    reboot dimension
   EREF     =   0.00    reference energy to select bands
   IMIX   =      4    mixing-type and parameters
     AMIX     =   0.40;   BMIX     =  1.00
     AMIX_MAG =   1.60;   BMIX_MAG =  1.00
     AMIN     =   0.10
     WC   =   100.;   INIMIX=   1;  MIXPRE=   1;  MAXMIX= -45

 Intra band minimization:
   WEIMIN = 0.0000     energy-eigenvalue tresh-hold
   EBREAK =  0.10E-08  absolut break condition
   DEPER  =   0.30     relativ break condition  

   TIME   =   0.40     timestep for ELM

  volume/ion in A,a.u.               =      21.29       143.66
  Fermi-wavevector in a.u.,A,eV,Ry     =   0.897230  1.695518 10.952973  0.805021
  Thomas-Fermi vector in A             =   2.019787

 Write flags
   LWAVE        =      F    write WAVECAR
   LDOWNSAMPLE  =      F    k-point downsampling of WAVECAR
   LCHARG       =      F    write CHGCAR
   LVTOT        =      F    write LOCPOT, total local potential
   LVHAR        =      F    write LOCPOT, Hartree potential only
   WRT_POTENTIAL= false  ! write potential to hdf5 file
   LELF         =      F    write electronic localiz. function (ELF)
   LORBIT       =     11    0 simple, 1 ext, 2 COOP (PROOUT), +10 PAW based schemes


 Python interface
   PLUGINS active      =      F    recompile with -DPLUGINS to activate

 Dipole corrections
   LMONO      =      F    monopole corrections only (constant potential shift)
   LDIPOL     =      F    correct potential (dipole corrections)
   IDIPOL     =      0    1-x, 2-y, 3-z, 4-all directions 
   EPSILON    =  1.0000000 bulk dielectric constant
   LVACPOTAV  =      F  vacuum potentials using an averaging scheme for the charge density
   VACPOTFLAT =  0.1000000 required flatness to determine vacuum potential

Coulomb truncation method
  LTRUNCATE          =      F  Coulomb kernel truncation to be used
  IDIMENSIONALITY    =      3  Dimensionality of cutoff (0 molecules / 2 surfaces)
  ISURFACE           =     -1  Direction of surface normal
  LCOARSEN           =      F  Coarsen the charge grid before padding, preferred


 Exchange correlation treatment:
   METAGGA = SCAN    functional components
   XC_C    = 1    coefficients multiplying the functional components
   LIBXC   =     F    Libxc                    
   VOSKOWN =     0    Vosko Wilk Nusair interpolation
   LHFCALC =     F    Hartree Fock is set to
   LHFONE  =     F    Hartree Fock one center treatment
   AEXX    =    0.0000 exact exchange contribution

 Parameters of functionals:
   SCAN:
     P1 =  0.000000E+00
     P2 =  0.000000E+00
     P3 =  0.000000E+00

 Accuracy and mixing parameters for tau-dependent meta-GGA functionals:
   LMAXTAU = 6
   LMIXTAU = T

 Van der Waals corrections
   IVDW    =     0    specifies the selected vdW correction

 Linear response parameters
   LEPSILON=     F    determine dielectric tensor
   LRPA    =     F    only Hartree local field effects (RPA)
   LNABLA  =     F    use nabla operator in PAW spheres
   LVEL    =     F    velocity operator in full k-point grid
   CSHIFT  =0.1000    complex shift for real part using Kramers Kronig
   OMEGAMAX=  -1.0    maximum frequency
   DEG_THRESHOLD= 0.2000000E-02 threshold for treating states as degnerate
   RTIME   =   -0.100 relaxation time in fs
  (WPLASMAI=    0.000 imaginary part of plasma frequency in eV, 0.658/RTIME)
   DFIELD  = 0.0000000 0.0000000 0.0000000 field for delta impulse in time

  Optional k-point grid parameters
   LKPOINTS_OPT  =     F    use optional k-point grid
   KPOINTS_OPT_MODE=     1    mode for optional k-point grid

 Orbital magnetization related:
   ORBITALMAG=     F  switch on orbital magnetization
   LCHIMAG   =     F  perturbation theory with respect to B field
   DQ        =  0.001000  dq finite difference perturbation B field
   LLRAUG    =     F  two centre corrections for induced B field
   LBONE     =     F  B-component reconstruction in AE one-centre
   LVGVCALC  =     T  calculate vGv susceptibility
   LVGVAPPL  =     F  apply vGv susceptibility instead of pGv for G=0

 Random number generation:
   RANDOM_GENERATOR = DEFAULT
   PCG_SEED         = not used


--------------------------------------------------------------------------------------------------------


 Static calculation
 charge density and potential will be updated during run
 non-spin polarized calculation
 Variant of blocked Davidson
 perform Loewdin sub-space diagonalisation
    ordering is kept fixed
    before iterative eigenvector-optimisation
 modified Broyden-mixing scheme, WC =      100.0
 initial mixing is a Kerker type mixing with AMIX =  0.4000 and BMIX =      1.0000
 Hartree-type preconditioning will be used
 using additional bands           57
 reciprocal scheme for non local part
 use partial core corrections
 calculate Harris-corrections to forces   (improved forces if not selfconsistent)
 use gradient corrections 
 use of overlap-Matrix (Vanderbilt PP)
 Gauss-broadening in eV      SIGMA  =   0.10


--------------------------------------------------------------------------------------------------------


  energy-cutoff  :     1200.00
  volume of cell :     2320.48
      direct lattice vectors                 reciprocal lattice vectors
    14.554980695  0.000000000  0.000000000     0.068705004  0.000000000  0.000000000
     0.000000000 14.554980695  0.000000000     0.000000000  0.068705004  0.000000000
     0.000000000  0.000000000 10.953525561     0.000000000  0.000000000  0.091294807

  length of vectors
    14.554980695 14.554980695 10.953525561     0.068705004  0.068705004  0.091294807



 old parameters found on file WAVECAR:
  energy-cutoff  :     1200.00
  volume of cell :     2320.48
      direct lattice vectors                 reciprocal lattice vectors
    14.554980695  0.000000000  0.000000000     0.068705004  0.000000000  0.000000000
     0.000000000 14.554980695  0.000000000     0.000000000  0.068705004  0.000000000
     0.000000000  0.000000000 10.953525561     0.000000000  0.000000000  0.091294807

  length of vectors


 k-points in units of 2pi/SCALE and weight: read from INCAR                         
   0.00000000  0.00000000  0.00000000       0.083
   0.03435250  0.00000000  0.00000000       0.083
   0.00000000  0.03435250  0.00000000       0.083
   0.03435250  0.03435250  0.00000000       0.083
   0.00000000  0.00000000  0.03043160       0.167
   0.03435250  0.00000000  0.03043160       0.167
   0.00000000  0.03435250  0.03043160       0.167
   0.03435250  0.03435250  0.03043160       0.167

 k-points in reciprocal lattice and weights: read from INCAR                         
   0.00000000  0.00000000  0.00000000       0.083
   0.50000000  0.00000000  0.00000000       0.083
   0.00000000  0.50000000  0.00000000       0.083
   0.50000000  0.50000000  0.00000000       0.083
   0.00000000  0.00000000  0.33333333       0.167
   0.50000000  0.00000000  0.33333333       0.167
   0.00000000  0.50000000  0.33333333       0.167
   0.50000000  0.50000000  0.33333333       0.167

 position of ions in fractional coordinates (direct lattice) 
   0.17641109  0.50674062  0.50281893
   0.17844338  0.64565871  0.60280226
   0.17251895  0.72448052  0.77494775
   0.10767517  0.56588601  0.17973300
   0.99895907  0.68433069  0.08421307
   0.41231728  0.68717370  0.30749278
   0.11512485  0.77826967  0.29647258
   0.36635981  0.53095158  0.52868914
   0.15674222  0.46443002  0.47737142
   0.09985997  0.65172536  0.40952385
   0.10734813  0.34350166  0.99115120
   0.28973587  0.62216640  0.35146857
   0.13642821  0.38080641  0.32689475
   0.08914406  0.59881838  0.41996707
   0.21496834  0.60628181  0.58727302
   0.29991246  0.71591301  0.52360402
   0.27152355  0.57995268  0.32185162
   0.13590468  0.60491114  0.19659515
   0.16073536  0.96514041  0.13005767
   0.72065365  0.62356043  0.53340999
   0.55638342  0.11952884  0.48390812
   0.80089423  0.26729544  0.32488079
   0.10655665  0.24931122  0.55892689
   0.41412284  0.16927607  0.05647971
   0.67391226  0.57631887  0.07150730
   0.72492710  0.86871294  0.98648603
   0.81849645  0.09962088  0.09211281
   0.39134370  0.43021630  0.02331039
   0.91330935  0.34753121  0.45047688
   0.95818746  0.88358070  0.94154160
   0.38902628  0.28574411  0.91672767
   0.97036199  0.77661388  0.13252445
   0.56924775  0.91456665  0.99878345
   0.58596162  0.19315244  0.67630554
   0.03931074  0.17469415  0.25738380
   0.56534530  0.14970065  0.13414129
   0.60422203  0.74961281  0.49347308
   0.32616052  0.78283855  0.98737159
   0.62721210  0.89491015  0.33218620
   0.25017209  0.80349815  0.78441046
   0.01922593  0.11174044  0.58094720
   0.66385797  0.32726667  0.60826900
   0.38451442  0.32158133  0.53971664
   0.52374305  0.90426090  0.69636392
   0.90144400  0.81373519  0.76748623
   0.00958400  0.15521285  0.89985822
   0.68906996  0.01907230  0.42583732
   0.50093024  0.50879971  0.88376842
   0.90919392  0.16609641  0.73173792
   0.49020333  0.74514699  0.65261910
   0.64447080  0.10758448  0.82999761
   0.84227525  0.71790545  0.46951824
   0.69243651  0.51138646  0.38437853
   0.25694778  0.23082751  0.82408262
   0.54890420  0.44880994  0.69586545
   0.68597411  0.63040688  0.87473024
   0.07074692  0.00345141  0.93442974
   0.46072751  0.00993502  0.55014433
   0.44460451  0.21530568  0.39007167
   0.53297494  0.51619306  0.34913508
   0.45191403  0.47520984  0.52075562
   0.67520735  0.34863873  0.39578490
   0.78505085  0.37821967  0.75474604
   0.48673373  0.76901510  0.98887796
   0.18080203  0.09026532  0.27160022
   0.51514737  0.67215616  0.32857001
   0.76546993  0.95364606  0.59953117
   0.85662772  0.32709559  0.12385784
   0.80493408  0.10290498  0.31417647
   0.16247634  0.94232348  0.77624596
   0.06013350  0.36340893  0.70503693
   0.70555916  0.80083239  0.17524769
   0.73415419  0.33888399  0.97113938
   0.83798806  0.71343276  0.24245071
   0.53268363  0.97956846  0.19449811
   0.06506783  0.86011107  0.24910062
   0.31418867  0.92877485  0.06319217
   0.95209333  0.07099357  0.38551332
   0.11057040  0.27928790  0.88335577
   0.90492047  0.44713491  0.25068732
   0.52371832  0.66820906  0.83979993
   0.89400325  0.85758960  0.55911131
   0.26984715  0.07185925  0.77756791
   0.82595781  0.97978144  0.95154751
   0.51286361  0.01577460  0.85198505
   0.75563137  0.76499586  0.83025688
   0.70505762  0.52161732  0.71908902
   0.60679229  0.44018952  0.01609728
   0.37460854  0.04026361  0.93012975
   0.90671367  0.32085443  0.66103557
   0.09726567  0.98314112  0.59342172
   0.34793107  0.91817367  0.43783529
   0.49785569  0.41161992  0.18281602
   0.68950280  0.17652789  0.00881748
   0.94900160  0.19281097  0.09026135
   0.21960043  0.02174225  0.46323715
   0.47656470  0.30201895  0.73206475
   0.33553463  0.79420923  0.58929337
   0.59027217  0.69815276  0.13356156
   0.78815632  0.05259079  0.76181043
   0.26132223  0.24329335  0.61677402
   0.06186240  0.30855967  0.37234039
   0.55656137  0.27433702  0.27434272
   0.79027243  0.56459230  0.22146568
   0.66701772  0.83281457  0.67227305
   0.37472327  0.98612979  0.24502613
   0.33616534  0.15226884  0.24206270
   0.00484956  0.92509226  0.43721631
   0.32555316  0.09655526  0.59147897

 position of ions in cartesian coordinates  (Angst):
   2.56766000  7.37560000  5.50764000
   2.59724000  9.39755000  6.60281000
   2.51101000 10.54480000  8.48841000
   1.56721000  8.23646000  1.96871000
  14.53983000  9.96042000  0.92243000
   6.00127000 10.00180000  3.36813000
   1.67564000 11.32770000  3.24742000
   5.33236000  7.72799000  5.79101000
   2.28138000  6.75977000  5.22890000
   1.45346000  9.48585000  4.48573000
   1.56245000  4.99966000 10.85660000
   4.21710000  9.05562000  3.84982000
   1.98571000  5.54263000  3.58065000
   1.29749000  8.71579000  4.60012000
   3.12886000  8.82442000  6.43271000
   4.36522000 10.42010000  5.73531000
   3.95202000  8.44120000  3.52541000
   1.97809000  8.80447000  2.15341000
   2.33950000 14.04760000  1.42459000
  10.48910000  9.07591000  5.84272000
   8.09815000  1.73974000  5.30050000
  11.65700000  3.89048000  3.55859000
   1.55093000  3.62872000  6.12222000
   6.02755000  2.46381000  0.61865200
   9.80878000  8.38831000  0.78325700
  10.55130000 12.64410000 10.80550000
  11.91320000  1.44998000  1.00896000
   5.69600000  6.26179000  0.25533100
  13.29320000  5.05831000  4.93431000
  13.94640000 12.86050000 10.31320000
   5.66227000  4.15900000 10.04140000
  14.12360000 11.30360000  1.45161000
   8.28539000 13.31150000 10.94020000
   8.52866000  2.81133000  7.40793000
   0.57216700  2.54267000  2.81926000
   8.22859000  2.17889000  1.46932000
   8.79444000 10.91060000  5.40527000
   4.74726000 11.39420000 10.81520000
   9.12906000 13.02540000  3.63861000
   3.64125000 11.69490000  8.59206000
   0.27983300  1.62638000  6.36342000
   9.66244000  4.76336000  6.66269000
   5.59660000  4.68061000  5.91180000
   7.62307000 13.16150000  7.62764000
  13.12050000 11.84390000  8.40668000
   0.13949500  2.25912000  9.85662000
  10.02940000  0.27759700  4.66442000
   7.29103000  7.40557000  9.68038000
  13.23330000  2.41753000  8.01511000
   7.13490000 10.84560000  7.14848000
   9.38026000  1.56589000  9.09140000
  12.25930000 10.44910000  5.14288000
  10.07840000  7.44322000  4.21030000
   3.73987000  3.35969000  9.02661000
   7.98929000  6.53242000  7.62218000
   9.98434000  9.17556000  9.58138000
   1.02972000  0.05023520 10.23530000
   6.70588000  0.14460400  6.02602000
   6.47121000  3.13377000  4.27266000
   7.75744000  7.51318000  3.82426000
   6.57760000  6.91667000  5.70411000
   9.82763000  5.07443000  4.33524000
  11.42640000  5.50498000  8.26713000
   7.08440000 11.19300000 10.83170000
   2.63157000  1.31381000  2.97498000
   7.49796000  9.78322000  3.59900000
  11.14140000 13.88030000  6.56698000
  12.46820000  4.76087000  1.35668000
  11.71580000  1.49778000  3.44134000
   2.36484000 13.71550000  8.50263000
   0.87524200  5.28941000  7.72264000
  10.26940000 11.65610000  1.91958000
  10.68560000  4.93245000 10.63740000
  12.19690000 10.38400000  2.65569000
   7.75320000 14.25760000  2.13044000
   0.94706100 12.51890000  2.72853000
   4.57301000 13.51830000  0.69217700
  13.85770000  1.03331000  4.22273000
   1.60935000  4.06503000  9.67586000
  13.17110000  6.50804000  2.74591000
   7.62271000  9.72577000  9.19877000
  13.01220000 12.48220000  6.12424000
   3.92762000  1.04591000  8.51711000
  12.02180000 14.26070000 10.42280000
   7.46472000  0.22959900  9.33224000
  10.99820000 11.13450000  9.09424000
  10.26210000  7.59213000  7.87656000
   8.83185000  6.40695000  0.17632200
   5.45242000  0.58603600 10.18820000
  13.19720000  4.67003000  7.24067000
   1.41570000 14.30960000  6.50006000
   5.06413000 13.36400000  4.79584000
   7.24628000  5.99112000  2.00248000
  10.03570000  2.56936000  0.09658250
  13.81270000  2.80636000  0.98868000
   3.19628000  0.31645800  5.07408000
   6.93639000  4.39588000  8.01869000
   4.88370000 11.55970000  6.45484000
   8.59140000 10.16160000  1.46297000
  11.47160000  0.76545800  8.34451000
   3.80354000  3.54113000  6.75585000
   0.90040600  4.49108000  4.07844000
   8.10074000  3.99297000  3.00502000
  11.50240000  8.21763000  2.42583000
   9.70843000 12.12160000  7.36376000
   5.45409000 14.35310000  2.68390000
   4.89288000  2.21627000  2.65144000
   0.07058520 13.46470000  4.78906000
   4.73842000  1.40536000  6.47878000



--------------------------------------------------------------------------------------------------------


 k-point     1 :   0.0000 0.0000 0.0000  plane waves:  218965
 k-point     2 :   0.5000 0.0000 0.0000  plane waves:  218998
 k-point     3 :   0.0000 0.5000 0.0000  plane waves:  218998
 k-point     4 :   0.5000 0.5000 0.0000  plane waves:  218900
 k-point     5 :   0.0000 0.0000 0.3333  plane waves:  218986
 k-point     6 :   0.5000 0.0000 0.3333  plane waves:  219022
 k-point     7 :   0.0000 0.5000 0.3333  plane waves:  219022
 k-point     8 :   0.5000 0.5000 0.3333  plane waves:  219112

 maximum and minimum number of plane-waves per node :     13724    13642

 maximum number of plane-waves:    219112
 maximum index in each direction: 
   IXMAX=   41   IYMAX=   41   IZMAX=   30
   IXMIN=  -41   IYMIN=  -41   IZMIN=  -31


 parallel 3D FFT for wavefunctions:
    minimum data exchange during FFTs selected (reduces bandwidth)
 parallel 3D FFT for charge:
    minimum data exchange during FFTs selected (reduces bandwidth)


 total amount of memory used by VASP MPI-rank0   198738. kBytes
=======================================================================

   base                                    :      30000. kBytes
   nonl-proj                               :      37954. kBytes
   fftplans                                :      42984. kBytes
   grid                                    :      33148. kBytes
   one-center                              :         21. kBytes
   wavefun                                 :      54631. kBytes

     INWAV:  cpu time     10.1894: real time     10.1950
 Broyden mixing: mesh for mixing (old mesh)
   NGX = 83   NGY = 83   NGZ = 61
  (NGX  =336   NGY  =336   NGZ  =252)
  gives a total of 420229 points

 initial charge density was supplied:
 number of electron     381.9999999 magnetization 
 keeping initial charge density in first step


--------------------------------------------------------------------------------------------------------


 Maximum index for augmentation-charges        11355 (set IRDMAX)


--------------------------------------------------------------------------------------------------------


 First call to EWALD:  gamma=   0.134
 Maximum number of real-space cells   3x   3x   3
 Maximum number of reciprocal cells   3x   3x   2

    FEWALD:  cpu time      0.0226: real time      0.0230


--------------------------------------- Ionic step        1  -------------------------------------------




--------------------------------------- Iteration      1(   1)  ---------------------------------------


    POTLOK:  cpu time      0.7656: real time      0.7660
    SETDIJ:  cpu time      1.4340: real time      1.4357
    EDDIAG:  cpu time     22.9462: real time     22.9646
     EDDAV:  cpu time    109.1955: real time    109.2857
       DOS:  cpu time      0.0101: real time      0.0101
    CHARGE:  cpu time     10.3109: real time     10.3204
    MIXING:  cpu time      0.0242: real time      0.0246
    --------------------------------------------
      LOOP:  cpu time    144.6865: real time    144.8071

 eigenvalue-minimisations  :  4048
 total energy-change (2. order) :-0.1002026E+04  (-0.1086194E+01)
 number of electron     381.9999999 magnetization 
 augmentation part      -20.0300959 magnetization 

 Broyden mixing:
  rms(total) = 0.12148E+01    rms(broyden)= 0.49108E+02
  rms(prec ) = 0.13157E+01
  weight for this iteration     100.00
  WARNING: grid for Broyden might be to small

 Free energy of the ion-electron system (eV)
  ---------------------------------------------------
  alpha Z        PSCENC =       133.29180986
  Ewald energy   TEWEN  =     -6746.55064016
  -Hartree energ DENC   =     -3850.01796670
  -exchange      EXHF   =         0.00000000
  -V(xc)+E(xc)   XCENC  =      -386.98330276
  PAW double counting   =     35050.37982283   -34143.51925329
  entropy T*S    EENTRO =        -0.15097438
  eigenvalues    EBANDS =      -662.34801819
  atomic energy  EATOM  =      9603.87257323
  Solvation  Ediel_sol  =         0.00000000
  ---------------------------------------------------
  free energy    TOTEN  =     -1002.02594955 eV

  energy without entropy =    -1001.87497517  energy(sigma->0) =    -1001.95046236


--------------------------------------------------------------------------------------------------------




--------------------------------------- Iteration      1(   2)  ---------------------------------------


    POTLOK:  cpu time      0.7450: real time      0.7702
    SETDIJ:  cpu time      1.4150: real time      1.4157
    EDDIAG:  cpu time     23.0991: real time     23.1199
     EDDAV:  cpu time    107.9668: real time    108.0620
       DOS:  cpu time      0.0044: real time      0.0044
    CHARGE:  cpu time     10.1027: real time     10.1108
    MIXING:  cpu time      0.0169: real time      0.0171
    --------------------------------------------
      LOOP:  cpu time    143.3500: real time    143.5001

 eigenvalue-minimisations  :  3968
 total energy-change (2. order) : 0.6800159E+02  (-0.1056306E+01)
 number of electron     381.9999999 magnetization 
 augmentation part      -19.9457575 magnetization 

 Broyden mixing:
  rms(total) = 0.81187E+00    rms(broyden)= 0.28329E+02
  rms(prec ) = 0.86410E+00
  weight for this iteration     100.00
  WARNING: grid for Broyden might be to small

 eigenvalues of (default mixing * dielectric matrix)
  average eigenvalue GAMMA=   0.6342
  0.6342

 Free energy of the ion-electron system (eV)
  ---------------------------------------------------
  alpha Z        PSCENC =       133.29180986
  Ewald energy   TEWEN  =     -6746.55064016
  -Hartree energ DENC   =     -3839.68978412
  -exchange      EXHF   =         0.00000000
  -V(xc)+E(xc)   XCENC  =      -378.34112016
  PAW double counting   =     41996.75832843   -41089.64654591
  entropy T*S    EENTRO =        -0.14770356
  eigenvalues    EBANDS =      -613.57128187
  atomic energy  EATOM  =      9603.87257323
  Solvation  Ediel_sol  =         0.00000000
  ---------------------------------------------------
  free energy    TOTEN  =      -934.02436426 eV

  energy without entropy =     -933.87666070  energy(sigma->0) =     -933.95051248


--------------------------------------------------------------------------------------------------------




--------------------------------------- Iteration      1(   3)  ---------------------------------------


    POTLOK:  cpu time      0.7484: real time      0.7730
    SETDIJ:  cpu time      1.4150: real time      1.4155
    EDDIAG:  cpu time     23.1152: real time     23.1358
     EDDAV:  cpu time    107.7907: real time    107.8843
       DOS:  cpu time      0.0045: real time      0.0050
    CHARGE:  cpu time     10.1023: real time     10.1102
    MIXING:  cpu time      0.0151: real time      0.0151
    --------------------------------------------
      LOOP:  cpu time    143.1913: real time    143.3388

 eigenvalue-minimisations  :  3968
 total energy-change (2. order) :-0.3086373E+01  (-0.8022606E+00)
 number of electron     381.9999999 magnetization 
 augmentation part      -19.8840264 magnetization 

 Broyden mixing:
  rms(total) = 0.47501E+00    rms(broyden)= 0.21417E+02
  rms(prec ) = 0.52743E+00
  weight for this iteration     100.00
  WARNING: grid for Broyden might be to small

 eigenvalues of (default mixing * dielectric matrix)
  average eigenvalue GAMMA=   0.6896
  0.7564  0.6228

 Free energy of the ion-electron system (eV)
  ---------------------------------------------------
  alpha Z        PSCENC =       133.29180986
  Ewald energy   TEWEN  =     -6746.55064016
  -Hartree energ DENC   =     -3843.14566625
  -exchange      EXHF   =         0.00000000
  -V(xc)+E(xc)   XCENC  =      -382.97613669
  PAW double counting   =     47680.14442065   -46773.12765747
  entropy T*S    EENTRO =        -0.16405133
  eigenvalues    EBANDS =      -608.45538959
  atomic energy  EATOM  =      9603.87257323
  Solvation  Ediel_sol  =         0.00000000
  ---------------------------------------------------
  free energy    TOTEN  =      -937.11073775 eV

  energy without entropy =     -936.94668642  energy(sigma->0) =     -937.02871209


--------------------------------------------------------------------------------------------------------




--------------------------------------- Iteration      1(   4)  ---------------------------------------


    POTLOK:  cpu time      0.7502: real time      0.7748
    SETDIJ:  cpu time      1.4162: real time      1.4174
    EDDIAG:  cpu time     23.2418: real time     23.3312
     EDDAV:  cpu time    110.7303: real time    110.8294
       DOS:  cpu time      0.0036: real time      0.0036
    CHARGE:  cpu time     10.0764: real time     10.0852
    MIXING:  cpu time      0.0152: real time      0.0152
    --------------------------------------------
      LOOP:  cpu time    146.2337: real time    146.4568

 eigenvalue-minimisations  :  4144
 total energy-change (2. order) :-0.3581675E+00  (-0.8522120E-01)
 number of electron     381.9999999 magnetization 
 augmentation part      -19.8720012 magnetization 

 Broyden mixing:
  rms(total) = 0.65279E-01    rms(broyden)= 0.17022E+01
  rms(prec ) = 0.11829E+00
  weight for this iteration     100.00
  WARNING: grid for Broyden might be to small

 eigenvalues of (default mixing * dielectric matrix)
  average eigenvalue GAMMA=   1.0109
  1.7188  0.6908  0.6231

 Free energy of the ion-electron system (eV)
  ---------------------------------------------------
  alpha Z        PSCENC =       133.29180986
  Ewald energy   TEWEN  =     -6746.55064016
  -Hartree energ DENC   =     -3848.93699476
  -exchange      EXHF   =         0.00000000
  -V(xc)+E(xc)   XCENC  =      -383.20719521
  PAW double counting   =     55936.15696931   -55029.20598537
  entropy T*S    EENTRO =        -0.13960687
  eigenvalues    EBANDS =      -602.74983525
  atomic energy  EATOM  =      9603.87257323
  Solvation  Ediel_sol  =         0.00000000
  ---------------------------------------------------
  free energy    TOTEN  =      -937.46890521 eV

  energy without entropy =     -937.32929834  energy(sigma->0) =     -937.39910177


--------------------------------------------------------------------------------------------------------




--------------------------------------- Iteration      1(   5)  ---------------------------------------


    POTLOK:  cpu time      0.7475: real time      0.7732
    SETDIJ:  cpu time      1.4754: real time      1.4759
    EDDIAG:  cpu time     23.1554: real time     23.1743
     EDDAV:  cpu time    122.0967: real time    122.2000
       DOS:  cpu time      0.0037: real time      0.0037
    CHARGE:  cpu time     10.2080: real time     10.2169
    MIXING:  cpu time      0.0155: real time      0.0155
    --------------------------------------------
      LOOP:  cpu time    157.7023: real time    157.8596

 eigenvalue-minimisations  :  4864
 total energy-change (2. order) :-0.3257890E-01  (-0.1343894E-01)
 number of electron     381.9999999 magnetization 
 augmentation part      -19.8728440 magnetization 

 Broyden mixing:
  rms(total) = 0.55863E-01    rms(broyden)= 0.95439E+00
  rms(prec ) = 0.10475E+00
  weight for this iteration     100.00
  WARNING: grid for Broyden might be to small

 eigenvalues of (default mixing * dielectric matrix)
  average eigenvalue GAMMA=   1.0980
  2.3352  0.8342  0.6113  0.6113

 Free energy of the ion-electron system (eV)
  ---------------------------------------------------
  alpha Z        PSCENC =       133.29180986
  Ewald energy   TEWEN  =     -6746.55064016
  -Hartree energ DENC   =     -3849.52803128
  -exchange      EXHF   =         0.00000000
  -V(xc)+E(xc)   XCENC  =      -384.23793524
  PAW double counting   =     55946.79666650   -55039.82856128
  entropy T*S    EENTRO =        -0.16662255
  eigenvalues    EBANDS =      -601.15074320
  atomic energy  EATOM  =      9603.87257323
  Solvation  Ediel_sol  =         0.00000000
  ---------------------------------------------------
  free energy    TOTEN  =      -937.50148411 eV

  energy without entropy =     -937.33486156  energy(sigma->0) =     -937.41817283


--------------------------------------------------------------------------------------------------------




--------------------------------------- Iteration      1(   6)  ---------------------------------------


    POTLOK:  cpu time      0.7447: real time      0.7713
    SETDIJ:  cpu time      1.4169: real time      1.4176
    EDDIAG:  cpu time     23.1042: real time     23.1239
     EDDAV:  cpu time    115.5038: real time    115.6615
       DOS:  cpu time      0.0036: real time      0.0036
    CHARGE:  cpu time     10.2503: real time     10.2590
    MIXING:  cpu time      0.0155: real time      0.0155
    --------------------------------------------
      LOOP:  cpu time    151.0389: real time    151.2525

 eigenvalue-minimisations  :  4440
 total energy-change (2. order) : 0.2721453E-02  (-0.4386293E-02)
 number of electron     381.9999999 magnetization 
 augmentation part      -19.8737995 magnetization 

 Broyden mixing:
  rms(total) = 0.24186E-01    rms(broyden)= 0.24827E+00
  rms(prec ) = 0.31954E-01
  weight for this iteration     100.00
  WARNING: grid for Broyden might be to small

 eigenvalues of (default mixing * dielectric matrix)
  average eigenvalue GAMMA=   1.0425
  2.5776  0.9521  0.6446  0.6332  0.4051

 Free energy of the ion-electron system (eV)
  ---------------------------------------------------
  alpha Z        PSCENC =       133.29180986
  Ewald energy   TEWEN  =     -6746.55064016
  -Hartree energ DENC   =     -3849.65079194
  -exchange      EXHF   =         0.00000000
  -V(xc)+E(xc)   XCENC  =      -384.56896170
  PAW double counting   =     55731.20238667   -54824.21684529
  entropy T*S    EENTRO =        -0.15516840
  eigenvalues    EBANDS =      -600.72312494
  atomic energy  EATOM  =      9603.87257323
  Solvation  Ediel_sol  =         0.00000000
  ---------------------------------------------------
  free energy    TOTEN  =      -937.49876266 eV

  energy without entropy =     -937.34359426  energy(sigma->0) =     -937.42117846


--------------------------------------------------------------------------------------------------------




--------------------------------------- Iteration      1(   7)  ---------------------------------------


    POTLOK:  cpu time      0.7466: real time      0.7738
    SETDIJ:  cpu time      1.4145: real time      1.4150
    EDDIAG:  cpu time     23.1258: real time     23.1475
     EDDAV:  cpu time    112.1643: real time    112.2655
       DOS:  cpu time      0.0052: real time      0.0052
    CHARGE:  cpu time     10.2210: real time     10.2291
    MIXING:  cpu time      0.0157: real time      0.0157
    --------------------------------------------
      LOOP:  cpu time    147.6931: real time    147.8520

 eigenvalue-minimisations  :  4232
 total energy-change (2. order) :-0.5678274E-03  (-0.9533032E-03)
 number of electron     381.9999999 magnetization 
 augmentation part      -19.8726167 magnetization 

 Broyden mixing:
  rms(total) = 0.16876E-01    rms(broyden)= 0.15684E+00
  rms(prec ) = 0.22560E-01
  weight for this iteration     100.00
  WARNING: grid for Broyden might be to small

 eigenvalues of (default mixing * dielectric matrix)
  average eigenvalue GAMMA=   1.0190
  2.5754  1.0938  0.7944  0.6281  0.6281  0.3940

 Free energy of the ion-electron system (eV)
  ---------------------------------------------------
  alpha Z        PSCENC =       133.29180986
  Ewald energy   TEWEN  =     -6746.55064016
  -Hartree energ DENC   =     -3849.88835174
  -exchange      EXHF   =         0.00000000
  -V(xc)+E(xc)   XCENC  =      -384.55754260
  PAW double counting   =     55694.16984680   -54787.17314719
  entropy T*S    EENTRO =        -0.15641723
  eigenvalues    EBANDS =      -600.50746146
  atomic energy  EATOM  =      9603.87257323
  Solvation  Ediel_sol  =         0.00000000
  ---------------------------------------------------
  free energy    TOTEN  =      -937.49933048 eV

  energy without entropy =     -937.34291326  energy(sigma->0) =     -937.42112187


--------------------------------------------------------------------------------------------------------




--------------------------------------- Iteration      1(   8)  ---------------------------------------


    POTLOK:  cpu time      0.7432: real time      0.7709
    SETDIJ:  cpu time      1.4154: real time      1.4160
    EDDIAG:  cpu time     23.1009: real time     23.1211
     EDDAV:  cpu time    117.5752: real time    117.6800
       DOS:  cpu time      0.0055: real time      0.0055
    CHARGE:  cpu time     10.2258: real time     10.2338
    MIXING:  cpu time      0.0159: real time      0.0159
    --------------------------------------------
      LOOP:  cpu time    153.0818: real time    153.2433

 eigenvalue-minimisations  :  4568
 total energy-change (2. order) :-0.6369615E-03  (-0.2226529E-03)
 number of electron     381.9999999 magnetization 
 augmentation part      -19.8715631 magnetization 

 Broyden mixing:
  rms(total) = 0.80984E-02    rms(broyden)= 0.96360E-01
  rms(prec ) = 0.11149E-01
  weight for this iteration     100.00
  WARNING: grid for Broyden might be to small

 eigenvalues of (default mixing * dielectric matrix)
  average eigenvalue GAMMA=   1.0032
  2.5593  1.4106  0.8830  0.6403  0.6403  0.4080  0.4806

 Free energy of the ion-electron system (eV)
  ---------------------------------------------------
  alpha Z        PSCENC =       133.29180986
  Ewald energy   TEWEN  =     -6746.55064016
  -Hartree energ DENC   =     -3850.17536605
  -exchange      EXHF   =         0.00000000
  -V(xc)+E(xc)   XCENC  =      -384.45077829
  PAW double counting   =     55692.12455933   -54785.11549388
  entropy T*S    EENTRO =        -0.15514857
  eigenvalues    EBANDS =      -600.34148293
  atomic energy  EATOM  =      9603.87257323
  Solvation  Ediel_sol  =         0.00000000
  ---------------------------------------------------
  free energy    TOTEN  =      -937.49996744 eV

  energy without entropy =     -937.34481888  energy(sigma->0) =     -937.42239316


--------------------------------------------------------------------------------------------------------




--------------------------------------- Iteration      1(   9)  ---------------------------------------


    POTLOK:  cpu time      0.7421: real time      0.7691
    SETDIJ:  cpu time      1.4148: real time      1.4154
    EDDIAG:  cpu time     23.1285: real time     23.1498
     EDDAV:  cpu time    116.1056: real time    116.2095
       DOS:  cpu time      0.0036: real time      0.0036
    CHARGE:  cpu time     10.4765: real time     10.4847
    MIXING:  cpu time      0.0159: real time      0.0159
    --------------------------------------------
      LOOP:  cpu time    151.8871: real time    152.0482

 eigenvalue-minimisations  :  4480
 total energy-change (2. order) :-0.2344959E-03  (-0.7484347E-04)
 number of electron     381.9999999 magnetization 
 augmentation part      -19.8708757 magnetization 

 Broyden mixing:
  rms(total) = 0.36857E-02    rms(broyden)= 0.20365E-01
  rms(prec ) = 0.62437E-02
  weight for this iteration     100.00
  WARNING: grid for Broyden might be to small

 eigenvalues of (default mixing * dielectric matrix)
  average eigenvalue GAMMA=   1.0036
  2.5648  1.7837  0.9534  0.6797  0.6131  0.6131  0.4105  0.4105

 Free energy of the ion-electron system (eV)
  ---------------------------------------------------
  alpha Z        PSCENC =       133.29180986
  Ewald energy   TEWEN  =     -6746.55064016
  -Hartree energ DENC   =     -3850.33065533
  -exchange      EXHF   =         0.00000000
  -V(xc)+E(xc)   XCENC  =      -384.39190860
  PAW double counting   =     55713.15290057   -54806.13626696
  entropy T*S    EENTRO =        -0.15731915
  eigenvalues    EBANDS =      -600.25069541
  atomic energy  EATOM  =      9603.87257323
  Solvation  Ediel_sol  =         0.00000000
  ---------------------------------------------------
  free energy    TOTEN  =      -937.50020194 eV

  energy without entropy =     -937.34288279  energy(sigma->0) =     -937.42154237


--------------------------------------------------------------------------------------------------------




--------------------------------------- Iteration      1(  10)  ---------------------------------------


    POTLOK:  cpu time      0.7447: real time      0.7724
    SETDIJ:  cpu time      1.4171: real time      1.4179
    EDDIAG:  cpu time     23.2528: real time     23.2712
     EDDAV:  cpu time    112.8880: real time    112.9806
       DOS:  cpu time      0.0035: real time      0.0035
    CHARGE:  cpu time     10.0854: real time     10.0923
    MIXING:  cpu time      0.0165: real time      0.0166
    --------------------------------------------
      LOOP:  cpu time    148.4080: real time    148.5543

 eigenvalue-minimisations  :  4264
 total energy-change (2. order) :-0.1332147E-04  (-0.2217870E-04)
 number of electron     381.9999999 magnetization 
 augmentation part      -19.8709796 magnetization 

 Broyden mixing:
  rms(total) = 0.15777E-02    rms(broyden)= 0.32469E-01
  rms(prec ) = 0.22295E-02
  weight for this iteration     100.00
  WARNING: grid for Broyden might be to small

 eigenvalues of (default mixing * dielectric matrix)
  average eigenvalue GAMMA=   1.0448
  2.6460  2.3190  1.0555  0.8485  0.6408  0.6326  0.4890  0.4007  0.3711

 Free energy of the ion-electron system (eV)
  ---------------------------------------------------
  alpha Z        PSCENC =       133.29180986
  Ewald energy   TEWEN  =     -6746.55064016
  -Hartree energ DENC   =     -3850.32807396
  -exchange      EXHF   =         0.00000000
  -V(xc)+E(xc)   XCENC  =      -384.40427907
  PAW double counting   =     55719.14756480   -54812.12852576
  entropy T*S    EENTRO =        -0.15653034
  eigenvalues    EBANDS =      -600.24411387
  atomic energy  EATOM  =      9603.87257323
  Solvation  Ediel_sol  =         0.00000000
  ---------------------------------------------------
  free energy    TOTEN  =      -937.50021526 eV

  energy without entropy =     -937.34368493  energy(sigma->0) =     -937.42195009


--------------------------------------------------------------------------------------------------------




--------------------------------------- Iteration      1(  11)  ---------------------------------------


    POTLOK:  cpu time      0.7689: real time      0.7704
    SETDIJ:  cpu time      1.4153: real time      1.4158
    EDDIAG:  cpu time     23.0652: real time     23.0819
     EDDAV:  cpu time    114.1971: real time    114.2991
       DOS:  cpu time      0.0049: real time      0.0049
    CHARGE:  cpu time     10.1269: real time     10.1357
    MIXING:  cpu time      0.0166: real time      0.0166
    --------------------------------------------
      LOOP:  cpu time    149.5949: real time    149.7243

 eigenvalue-minimisations  :  4360
 total energy-change (2. order) :-0.2078185E-04  (-0.6318313E-05)
 number of electron     381.9999999 magnetization 
 augmentation part      -19.8710484 magnetization 

 Broyden mixing:
  rms(total) = 0.93786E-03    rms(broyden)= 0.11364E-01
  rms(prec ) = 0.14157E-02
  weight for this iteration     100.00
  WARNING: grid for Broyden might be to small

 eigenvalues of (default mixing * dielectric matrix)
  average eigenvalue GAMMA=   1.1132
  3.0188  2.5760  1.2327  1.0139  0.7574  0.6433  0.6277  0.4808  0.3988  0.3824

 Free energy of the ion-electron system (eV)
  ---------------------------------------------------
  alpha Z        PSCENC =       133.29180986
  Ewald energy   TEWEN  =     -6746.55064016
  -Hartree energ DENC   =     -3850.28154299
  -exchange      EXHF   =         0.00000000
  -V(xc)+E(xc)   XCENC  =      -384.40985841
  PAW double counting   =     55717.66217866   -54810.64138073
  entropy T*S    EENTRO =        -0.15643826
  eigenvalues    EBANDS =      -600.28693725
  atomic energy  EATOM  =      9603.87257323
  Solvation  Ediel_sol  =         0.00000000
  ---------------------------------------------------
  free energy    TOTEN  =      -937.50023604 eV

  energy without entropy =     -937.34379778  energy(sigma->0) =     -937.42201691


--------------------------------------------------------------------------------------------------------




--------------------------------------- Iteration      1(  12)  ---------------------------------------


    POTLOK:  cpu time      0.7486: real time      0.7730
    SETDIJ:  cpu time      1.4163: real time      1.4177
    EDDIAG:  cpu time     23.2470: real time     23.2666
     EDDAV:  cpu time    119.3344: real time    119.4640
       DOS:  cpu time      0.0051: real time      0.0051
    CHARGE:  cpu time     10.0649: real time     10.0732
    MIXING:  cpu time      0.0169: real time      0.0170
    --------------------------------------------
      LOOP:  cpu time    154.8333: real time    155.0165

 eigenvalue-minimisations  :  4680
 total energy-change (2. order) :-0.1371256E-04  (-0.1536244E-05)
 number of electron     381.9999999 magnetization 
 augmentation part      -19.8710970 magnetization 

 Broyden mixing:
  rms(total) = 0.54617E-03    rms(broyden)= 0.45107E-02
  rms(prec ) = 0.83165E-03
  weight for this iteration     100.00
  WARNING: grid for Broyden might be to small

 eigenvalues of (default mixing * dielectric matrix)
  average eigenvalue GAMMA=   1.1343
  3.2974  2.5977  1.4909  1.0110  0.9021  0.6755  0.6387  0.6043  0.4764  0.3790
  0.4039

 Free energy of the ion-electron system (eV)
  ---------------------------------------------------
  alpha Z        PSCENC =       133.29180986
  Ewald energy   TEWEN  =     -6746.55064016
  -Hartree energ DENC   =     -3850.24026486
  -exchange      EXHF   =         0.00000000
  -V(xc)+E(xc)   XCENC  =      -384.41405253
  PAW double counting   =     55715.44437265   -54808.42268769
  entropy T*S    EENTRO =        -0.15652888
  eigenvalues    EBANDS =      -600.32483139
  atomic energy  EATOM  =      9603.87257323
  Solvation  Ediel_sol  =         0.00000000
  ---------------------------------------------------
  free energy    TOTEN  =      -937.50024976 eV

  energy without entropy =     -937.34372088  energy(sigma->0) =     -937.42198532


--------------------------------------------------------------------------------------------------------




--------------------------------------- Iteration      1(  13)  ---------------------------------------


    POTLOK:  cpu time      0.7437: real time      0.7718
    SETDIJ:  cpu time      1.4502: real time      1.4524
    EDDIAG:  cpu time     23.1448: real time     23.1690
     EDDAV:  cpu time    110.2138: real time    110.3160
       DOS:  cpu time      0.0063: real time      0.0063
    CHARGE:  cpu time     10.0909: real time     10.1002
    MIXING:  cpu time      0.0171: real time      0.0171
    --------------------------------------------
      LOOP:  cpu time    145.6669: real time    145.8328

 eigenvalue-minimisations  :  4104
 total energy-change (2. order) :-0.9936717E-05  (-0.1050126E-05)
 number of electron     381.9999999 magnetization 
 augmentation part      -19.8711633 magnetization 

 Broyden mixing:
  rms(total) = 0.28569E-03    rms(broyden)= 0.76433E-02
  rms(prec ) = 0.49780E-03
  weight for this iteration     100.00
  WARNING: grid for Broyden might be to small

 eigenvalues of (default mixing * dielectric matrix)
  average eigenvalue GAMMA=   1.1449
  3.4336  2.6029  1.6937  1.0614  1.0614  0.7729  0.6555  0.6291  0.3766  0.4070
  0.5713  0.4731

 Free energy of the ion-electron system (eV)
  ---------------------------------------------------
  alpha Z        PSCENC =       133.29180986
  Ewald energy   TEWEN  =     -6746.55064016
  -Hartree energ DENC   =     -3850.18582900
  -exchange      EXHF   =         0.00000000
  -V(xc)+E(xc)   XCENC  =      -384.42133047
  PAW double counting   =     55712.81834526   -54805.79625497
  entropy T*S    EENTRO =        -0.15658247
  eigenvalues    EBANDS =      -600.37235098
  atomic energy  EATOM  =      9603.87257323
  Solvation  Ediel_sol  =         0.00000000
  ---------------------------------------------------
  free energy    TOTEN  =      -937.50025969 eV

  energy without entropy =     -937.34367722  energy(sigma->0) =     -937.42196846


--------------------------------------------------------------------------------------------------------




[...]
   -.458E+02 0.145E+02 -.151E+02   0.441E+02 -.159E+02 0.154E+02   0.239E+01 0.173E+01 -.591E+00   0.263E-06 0.641E-04 0.489E-04
   0.187E+02 -.256E+01 0.951E+01   -.189E+02 -.275E+00 -.772E+01   0.170E+01 0.114E+01 -.197E+01   -.169E-03 -.103E-03 0.105E-03
   -.717E+02 0.644E+02 0.126E+01   0.703E+02 -.638E+02 -.504E+00   0.141E+01 -.630E-01 -.127E+01   -.246E-03 0.731E-04 0.678E-04
   -.705E+02 -.150E+02 0.430E+01   0.708E+02 0.161E+02 -.175E+01   -.373E+00 -.499E+00 -.271E+01   -.116E-03 0.465E-05 -.271E-04
   -.282E+00 0.667E+01 -.560E+00   -.140E+00 -.331E+01 0.178E+01   0.429E+00 -.352E+01 -.368E+00   0.452E-04 -.223E-04 0.161E-04
   0.420E+02 0.958E+01 -.577E+01   -.423E+02 -.887E+01 0.510E+01   -.528E+00 -.470E-01 0.136E+01   -.811E-04 -.229E-03 0.733E-04
   -.299E+02 -.762E+02 -.138E+02   0.318E+02 0.769E+02 0.158E+02   -.313E+00 -.864E+00 -.165E+01   -.339E-03 -.199E-03 -.184E-03
   -.931E+00 0.770E+02 -.146E+02   0.806E+00 -.740E+02 0.131E+02   0.119E+01 -.403E+01 0.752E+00   0.121E-03 -.158E-04 0.497E-04
   0.379E+02 0.935E+02 0.226E+02   -.377E+02 -.904E+02 -.219E+02   -.193E+00 -.259E+01 -.517E-01   -.435E-04 0.344E-04 -.280E-04
   0.795E+02 -.362E+02 -.565E+01   -.788E+02 0.345E+02 0.470E+01   0.322E+00 0.142E+01 0.751E+00   0.121E-03 -.337E-04 0.472E-04
   -.149E+02 -.369E+02 -.187E+01   0.139E+02 0.351E+02 0.165E+01   0.125E+01 0.257E+01 0.348E-01   -.590E-04 -.720E-04 0.277E-06
   -.503E+02 -.512E+02 0.123E+02   0.495E+02 0.494E+02 -.129E+02   -.136E+00 0.202E+01 -.356E+00   0.233E-04 -.133E-03 0.807E-04
   0.261E+02 0.351E+02 0.198E+02   -.248E+02 -.352E+02 -.172E+02   -.920E+00 -.505E-01 -.236E+01   0.105E-03 -.123E-03 -.663E-04
   0.410E+02 -.413E+02 -.214E+02   -.415E+02 0.400E+02 0.198E+02   0.221E+00 0.732E+00 0.904E+00   -.203E-04 -.240E-03 0.255E-04
   0.617E+02 0.604E+02 0.647E+01   -.626E+02 -.658E+02 -.822E+01   0.161E+01 0.506E+01 0.194E+01   0.495E-04 0.349E-03 0.909E-04
   0.460E+02 0.242E+02 -.109E+02   -.446E+02 -.241E+02 0.119E+02   -.299E+01 0.313E+00 0.130E+00   -.162E-03 0.167E-03 -.104E-03
   -.327E+02 -.116E+02 0.151E+02   0.318E+02 0.105E+02 -.148E+02   0.128E+01 0.101E+01 0.148E+00   -.629E-04 0.156E-04 0.353E-04
   0.331E+02 -.903E+02 0.198E+02   -.325E+02 0.885E+02 -.180E+02   -.590E+00 0.200E+01 -.217E+01   0.186E-03 -.338E-03 -.594E-04
   -.473E+02 -.974E+02 0.387E+02   0.474E+02 0.947E+02 -.361E+02   0.357E+00 0.290E+01 -.244E+01   -.103E-03 -.179E-03 -.166E-03
   0.331E+01 -.349E+02 0.121E+02   -.727E+01 0.344E+02 -.114E+02   0.374E+01 0.149E+01 -.122E+01   0.337E-04 -.116E-03 0.303E-04
   -.852E+02 0.643E+01 0.186E+02   0.850E+02 -.617E+01 -.186E+02   0.160E+00 -.127E+01 -.269E+00   0.338E-04 -.165E-03 0.661E-04
   -.218E+02 0.352E+02 0.610E+01   0.220E+02 -.332E+02 -.626E+01   0.258E+00 -.614E+00 -.446E+00   -.181E-03 0.573E-04 0.963E-04
   0.325E+02 0.468E+02 -.836E+01   -.314E+02 -.471E+02 0.609E+01   -.243E+00 0.446E-01 0.180E+01   -.921E-04 -.847E-04 -.105E-03
   0.594E+02 -.697E+02 0.575E+01   -.590E+02 0.688E+02 -.679E+01   -.626E+00 0.113E+00 0.148E+01   -.159E-04 -.245E-03 -.276E-04
   -.212E+02 0.850E+02 0.163E+02   0.208E+02 -.826E+02 -.150E+02   0.612E+00 -.268E+01 -.210E+01   0.104E-03 0.107E-03 -.893E-04
   0.828E+01 -.109E+02 0.118E+02   -.109E+02 0.106E+02 -.997E+01   0.274E+01 0.423E+00 -.280E+01   0.204E-04 -.165E-03 0.480E-04
 -----------------------------------------------------------------------------------------------
   -.930E+01 -.596E+01 0.666E+00   0.107E-13 -.444E-13 0.128E-12   0.930E+01 0.596E+01 -.671E+00   -.947E-03 -.231E-02 -.451E-04


 POSITION                                       TOTAL-FORCE (eV/Angst)
 -----------------------------------------------------------------------------------
      2.56766      7.37560      5.50764         0.155895      0.153675      0.090285
      2.59724      9.39755      6.60281         1.154927     -1.414193     -0.275767
      2.51101     10.54480      8.48841         1.143842      1.135735      0.050556
      1.56721      8.23646      1.96871        -0.358170     -0.554251     -0.206094
     14.53983      9.96042      0.92243         0.466344      0.441053      0.021671
      6.00127     10.00180      3.36813         0.696723      0.434249      0.431479
      1.67564     11.32770      3.24742         0.503914      0.047059     -0.007999
      5.33236      7.72799      5.79101         0.227919      0.376604      0.224158
      2.28138      6.75977      5.22890        -0.038160     -0.313460     -0.104669
      1.45346      9.48585      4.48573        -0.423723     -1.509873      0.220385
      1.56245      4.99966     10.85660         0.016166     -0.393695     -0.021120
      4.21710      9.05562      3.84982        -0.050953     -0.066852     -0.024317
      1.98571      5.54263      3.58065        -1.200572     -0.930158      0.237044
      1.29749      8.71579      4.60012         0.203307      1.637544     -0.253622
      3.12886      8.82442      6.43271        -1.236506      1.269692      0.516554
      4.36522     10.42010      5.73531        -0.504989     -0.435497     -0.429845
      3.95202      8.44120      3.52541        -0.035990     -0.003857     -0.005290
      1.97809      8.80447      2.15341         0.396969      0.477046      0.107492
      2.33950     14.04760      1.42459        -0.462325      0.597511     -0.681431
     10.48910      9.07591      5.84272        -0.225018     -0.585855      0.470263
      8.09815      1.73974      5.30050         0.736831     -0.548219      0.476311
     11.65700      3.89048      3.55859         1.102613      0.304946     -0.139408
      1.55093      3.62872      6.12222         0.162131      0.258873      0.592303
      6.02755      2.46381      0.61865         0.256861     -0.517265     -0.361087
      9.80878      8.38831      0.78326         0.988777     -0.510085     -0.057732
     10.55130     12.64410     10.80550        -1.324575     -0.175594      0.466363
     11.91320      1.44998      1.00896        -0.157702     -0.095414      0.893304
      5.69600      6.26179      0.25533         0.012811      0.212761     -0.907979
     13.29320      5.05831      4.93431        -0.167793      0.054128     -2.019161
     13.94640     12.86050     10.31320        -0.140370      0.114232      0.918787
      5.66227      4.15900     10.04140         0.248507      0.836141      0.392708
     14.12360     11.30360      1.45161        -1.620599     -0.431835     -1.540349
      8.28539     13.31150     10.94020        -0.398998     -0.402961      0.235481
      8.52866      2.81133      7.40793         0.110906      0.783246     -1.245205
      0.57217      2.54267      2.81926         0.878600     -0.662781      1.124865
      8.22859      2.17889      1.46932        -0.270463     -0.435871      0.685679
      8.79444     10.91060      5.40527        -0.262251     -0.264147     -0.205190
      4.74726     11.39420     10.81520        -0.255916     -0.318522     -0.340789
      9.12906     13.02540      3.63861         0.133729     -0.917059     -0.605711
      3.64125     11.69490      8.59206        -0.542691     -0.667684      0.082683
      0.27983      1.62638      6.36342        -1.687892      1.995928     -0.011242
      9.66244      4.76336      6.66269         0.060761     -0.455829      1.260796
      5.59660      4.68061      5.91180         1.415150      0.246041      0.099140
      7.62307     13.16150      7.62764        -0.107628      0.330691      0.157417
     13.12050     11.84390      8.40668         0.076859     -0.219174     -0.122874
      0.13949      2.25912      9.85662         0.216109      0.124134      0.276130
     10.02940      0.27760      4.66442         0.514440      1.186897      0.373312
      7.29103      7.40557      9.68038        -0.841873     -0.185694      0.130505
     13.23330      2.41753      8.01511         0.093089     -0.767202     -0.477389
      7.13490     10.84560      7.14848        -1.196264      0.810265     -0.128694
      9.38026      1.56589      9.09140         0.218075     -0.125937     -0.407553
     12.25930     10.44910      5.14288         0.035991      0.216314     -0.826866
     10.07840      7.44322      4.21030         0.029103     -0.130881     -0.729815
      3.73987      3.35969      9.02661        -0.950073      0.083132      0.317308
      7.98929      6.53242      7.62218        -0.085747      0.362853     -0.868939
      9.98434      9.17556      9.58138        -0.439828     -0.370849     -0.616860
      1.02972      0.05024     10.23530         0.225444     -0.995191      0.786751
      6.70588      0.14460      6.02602        -0.818514     -1.388350     -0.000361
      6.47121      3.13377      4.27266        -0.853530      0.079137      0.814581
      7.75744      7.51318      3.82426        -0.037085     -0.022904     -0.733941
      6.57760      6.91667      5.70411        -0.429901     -0.852660      0.609249
      9.82763      5.07443      4.33524         0.076410     -0.170878      0.083311
     11.42640      5.50498      8.26713        -2.368995      0.550944      0.268953
      7.08440     11.19300     10.83170         0.244872      0.591138      0.432006
      2.63157      1.31381      2.97498         0.223469      0.324315     -0.448829
      7.49796      9.78322      3.59900        -0.012935      0.170289     -0.861322
     11.14140     13.88030      6.56698        -0.246276     -0.435310     -0.253354
     12.46820      4.76087      1.35668        -0.329503     -0.149894      0.420807
     11.71580      1.49778      3.44134        -0.599795     -0.374347     -0.153755
      2.36484     13.71550      8.50263         0.550565      0.802231      0.634578
      0.87524      5.28941      7.72264         0.101088     -0.465952      0.137798
     10.26940     11.65610      1.91958         0.641020      0.448940      1.203905
     10.68560      4.93245     10.63740        -0.033743     -0.457751     -0.281595
     12.19690     10.38400      2.65569        -0.121114      1.236047      0.986448
      7.75320     14.25760      2.13044         0.392650      0.426585     -0.194282
      0.94706     12.51890      2.72853         1.121236      0.123607      1.055935
      4.57301     13.51830      0.69218        -0.661501      0.041898      0.491605
     13.85770      1.03331      4.22273         0.346856      0.908952      0.441799
      1.60935      4.06503      9.67586        -0.051110      0.621009     -0.564556
     13.17110      6.50804      2.74591        -0.325545      0.140242      0.468942
      7.62271      9.72577      9.19877         0.997445     -0.441094     -0.374426
     13.01220     12.48220      6.12424        -0.856419     -0.652068     -0.090272
      3.92762      1.04591      8.51711        -0.683109     -0.662889      1.204022
     12.02180     14.26070     10.42280         0.804060      0.323166     -0.307703
      7.46472      0.22960      9.33224         1.598171     -1.709961     -0.254981
     10.99820     11.13450      9.09424         0.040758      0.554449     -0.599057
     10.26210      7.59213      7.87656        -0.152411      0.485714     -0.286434
      8.83185      6.40695      0.17632         0.018046     -0.278969      0.841783
      5.45242      0.58604     10.18820        -0.826323      0.671688      0.763315
     13.19720      4.67003      7.24067         1.484130     -0.187015      0.247276
      1.41570     14.30960      6.50006         1.114337     -1.164843     -0.730735
      5.06413     13.36400      4.79584         0.044069      0.572198      0.702976
      7.24628      5.99112      2.00248         1.122231     -0.212175     -0.201965
     10.03570      2.56936      0.09658         0.307384      0.957297     -0.197611
     13.81270      2.80636      0.98868        -0.912979      0.363411     -0.963276
      3.19628      0.31646      5.07408         0.345885     -0.194655      0.198939
      6.93639      4.39588      8.01869        -0.189536     -0.472614     -0.685967
      4.88370     11.55970      6.45484         0.786744     -0.243353      0.246272
      8.59140     10.16160      1.46297        -1.696765      0.369752      1.219755
     11.47160      0.76546      8.34451         0.402952     -0.032427      0.444952
      3.80354      3.54113      6.75585         0.024452      0.273652     -0.520602
      0.90041      4.49108      4.07844         0.472968      0.345696      0.045934
      8.10074      3.99297      3.00502        -0.065112      1.162218     -0.525635
     11.50240      8.21763      2.42583        -0.146550     -1.052863     -0.298662
      9.70843     12.12160      7.36376         0.404084      1.450689     -0.667420
      5.45409     14.35310      2.68390         0.908711     -0.289496     -0.390464
      4.89288      2.21627      2.65144        -0.117651     -0.947675      0.505205
      0.07059     13.46470      4.78906         0.222098     -0.392239     -0.831278
      4.73842      1.40536      6.47878         0.243992      0.172250     -1.068598
 -----------------------------------------------------------------------------------
    total drift:                                0.004489     -0.002622     -0.004869


--------------------------------------------------------------------------------------------------------



  FREE ENERGIE OF THE ION-ELECTRON SYSTEM (eV)
  ---------------------------------------------------
  free  energy   TOTEN  =      -937.50026560 eV

  energy  without entropy=     -937.34373037  energy(sigma->0) =     -937.42199798



--------------------------------------------------------------------------------------------------------


    POTLOK:  cpu time      2.1520: real time      2.1529


--------------------------------------------------------------------------------------------------------


     LOOP+:  cpu time   2548.4774: real time   2551.2140
    4ORBIT:  cpu time      0.0000: real time      0.0000



 total charge

# of ion       s       p       d       tot
------------------------------------------
    1        0.620   0.035   0.000   0.655
    2        0.575   0.026   0.000   0.601
    3        0.516   0.011   0.000   0.527
    4        0.628   0.035   0.000   0.663
    5        0.558   0.015   0.000   0.573
    6        0.545   0.014   0.000   0.559
    7        0.566   0.016   0.000   0.582
    8        0.565   0.016   0.000   0.580
    9        0.624   0.034   0.000   0.658
   10        0.583   0.025   0.000   0.608
   11        0.559   0.014   0.000   0.573
   12        0.612   0.033   0.000   0.645
   13        0.519   0.012   0.000   0.531
   14        0.577   0.026   0.000   0.603
   15        0.580   0.025   0.000   0.605
   16        0.592   0.018   0.000   0.610
   17        0.613   0.032   0.000   0.646
   18        0.625   0.036   0.000   0.661
   19        0.754   0.870   0.000   1.624
   20        0.758   0.871   0.000   1.629
   21        0.761   0.921   0.000   1.682
   22        0.762   0.893   0.000   1.654
   23        0.753   0.948   0.000   1.701
   24        0.754   0.942   0.000   1.696
   25        0.757   0.980   0.000   1.736
   26        0.756   0.989   0.000   1.745
   27        0.753   0.938   0.000   1.691
   28        0.812   0.803   0.000   1.615
   29        0.764   0.868   0.000   1.632
   30        0.756   0.899   0.000   1.655
   31        0.754   0.934   0.000   1.688
   32        0.741   0.932   0.000   1.673
   33        0.762   0.915   0.000   1.677
   34        0.753   0.959   0.000   1.711
   35        0.747   0.947   0.000   1.694
   36        0.757   0.901   0.000   1.658
   37        0.743   0.842   0.000   1.585
   38        0.795   0.854   0.000   1.649
   39        0.770   0.871   0.000   1.641
   40        0.740   0.866   0.000   1.607
   41        0.759   0.944   0.000   1.703
   42        0.777   0.850   0.000   1.627
   43        0.763   0.890   0.000   1.653
   44        0.750   0.935   0.000   1.685
   45        0.784   0.864   0.000   1.647
   46        0.747   0.942   0.000   1.689
   47        0.754   0.907   0.000   1.661
   48        0.772   0.885   0.000   1.657
   49        0.758   0.898   0.000   1.656
   50        0.765   0.884   0.000   1.648
   51        0.750   0.971   0.000   1.721
   52        0.788   0.826   0.000   1.614
   53        0.749   0.933   0.000   1.681
   54        0.758   0.967   0.000   1.724
   55        0.743   0.924   0.000   1.667
   56        0.759   0.961   0.000   1.720
   57        0.749   0.886   0.000   1.635
   58        0.764   0.926   0.000   1.690
   59        0.753   0.930   0.000   1.682
   60        0.748   0.969   0.000   1.716
   61        0.743   0.956   0.000   1.698
   62        0.751   0.921   0.000   1.672
   63        0.760   0.895   0.000   1.655
   64        0.752   0.932   0.000   1.684
   65        0.750   0.886   0.000   1.635
   66        0.750   0.925   0.000   1.675
   67        0.762   0.922   0.000   1.684
   68        0.759   0.881   0.000   1.641
   69        0.753   0.908   0.000   1.661
   70        0.750   0.931   0.000   1.681
   71        0.813   0.836   0.000   1.650
   72        0.757   0.928   0.000   1.685
   73        0.754   0.844   0.000   1.597
   74        0.749   0.906   0.000   1.656
   75        0.762   0.879   0.000   1.641
   76        0.741   0.974   0.000   1.715
   77        0.755   0.946   0.000   1.700
   78        0.750   0.941   0.000   1.691
   79        0.742   0.959   0.000   1.700
   80        0.823   0.774   0.000   1.598
   81        0.757   0.923   0.000   1.679
   82        0.751   0.916   0.000   1.667
   83        0.759   0.968   0.000   1.727
   84        0.757   0.962   0.000   1.719
   85        0.754   0.983   0.000   1.737
   86        0.753   0.957   0.000   1.710
   87        0.767   0.845   0.000   1.612
   88        0.754   0.928   0.000   1.682
   89        0.756   0.971   0.000   1.728
   90        0.753   0.951   0.000   1.704
   91        0.754   0.999   0.000   1.753
   92        0.753   0.888   0.000   1.641
   93        0.758   0.898   0.000   1.656
   94        0.750   0.947   0.000   1.697
   95        0.750   0.965   0.000   1.715
   96        0.757   0.931   0.000   1.688
   97        0.775   0.870   0.000   1.646
   98        0.748   0.911   0.000   1.659
   99        0.755   0.960   0.000   1.716
  100        0.752   0.923   0.000   1.675
  101        0.767   0.954   0.000   1.720
  102        0.736   0.944   0.000   1.680
  103        0.758   0.938   0.000   1.696
  104        0.751   0.933   0.000   1.684
  105        0.785   0.873   0.000   1.658
  106        0.763   0.901   0.000   1.664
  107        0.758   0.881   0.000   1.638
  108        0.750   0.939   0.000   1.689
  109        0.763   0.972   0.000   1.735
--------------------------------------------------
tot         79.466  83.832   0.000 163.298


 total amount of memory used by VASP MPI-rank0   198738. kBytes
=======================================================================

   base                                    :      30000. kBytes
   nonl-proj                               :      37954. kBytes
   fftplans                                :      42984. kBytes
   grid                                    :      33148. kBytes
   one-center                              :         21. kBytes
   wavefun                                 :      54631. kBytes

  
  
 General timing and accounting informations for this job:
 ========================================================
  
                  Total CPU time used (sec):     2620.463
                            User time (sec):     2611.749
                          System time (sec):        8.714
                         Elapsed time (sec):     2623.249
  
                   Maximum memory used (kb):      368776.
                   Average memory used (kb):          N/A
  
                          Minor page faults:       270176
                          Major page faults:         1142
                 Voluntary context switches:         2517
