 vasp.6.5.0 16Dec24 (build Jan 20 2025 08:32:48) complex                         
 executed on        HPECrayEX_GCC date 2025.05.14  01:26:29
 running   64 mpi-ranks, with    1 threads/rank, on    1 nodes
 distrk:  each k-point on   64 cores,    1 groups
 distr:  one band on NCORE=  16 cores,    4 groups


--------------------------------------------------------------------------------------------------------


 INCAR:
   SYSTEM = a-Si SPC
   NCORE = 16
   ISTART = 1
   ICHARG = 1
   ISPIN = 1
   ISYM = 1
   EDIFF = 1E-6
   NELM = 150
   EDIFFG = -0.01
   NSW = 0
   ISIF = 2
   IBRION = -1
   PREC = Accurate
   ENCUT = 1200
   KSPACING = 0.23
   KGAMMA = .TRUE.
   METAGGA = SCAN
   LASPH = .TRUE.
   LDIAG = .FALSE.
   LMIXTAU = .TRUE.
   ADDGRID = .TRUE.
   ALGO = Normal
   ISMEAR = 0
   SIGMA = 0.1
   LORBIT = 11
   NEDOS = 2000
   LWAVE = .FALSE.
   LCHARG = .FALSE.

 POTCAR:    PAW_PBE Si 05Jan2001                  
 POTCAR:    PAW_PBE Si 05Jan2001                  
   SHA256 =  79d9987ad8750f624c4d6acb2a16d13abf6a777132adc04dc6c8399be72b42bb Si/POTCAR             
   COPYR  = (c) Copyright 05Jan2001 Georg Kresse                                                    
   COPYR  = This file is part of the software VASP. Any use, copying, and all other rights are regul
   COPYR  = If you do not have a valid VASP license, you may not use, copy or distribute this file. 
   VRHFIN =Si: s2p2                                                                                 
   LEXCH  = PE                                                                                      
   EATOM  =   103.0669 eV,    7.5752 Ry                                                             
                                                                                                    
   TITEL  = PAW_PBE Si 05Jan2001                                                                    
   LULTRA =        F    use ultrasoft PP ?                                                          
   IUNSCR =        1    unscreen: 0-lin 1-nonlin 2-no                                               
   RPACOR =    1.500    partial core radius                                                         
   POMASS =   28.085; ZVAL   =    4.000    mass and valenz                                          
   RCORE  =    1.900    outmost cutoff radius                                                       
   RWIGS  =    2.480; RWIGS  =    1.312    wigner-seitz radius (au A)                               
   ENMAX  =  245.345; ENMIN  =  184.009 eV                                                          
   ICORE  =        2    local potential                                                             
   LCOR   =        T    correct aug charges                                                         
   LPAW   =        T    paw PP                                                                      
   EAUG   =  322.069                                                                                
   DEXC   =    0.000                                                                                
   RMAX   =    1.950    core radius for proj-oper                                                   
   RAUG   =    1.300    factor for augmentation sphere                                              
   RDEP   =    1.993    radius for radial grids                                                     
   RDEPT  =    1.837    core radius for aug-charge                                                  
                                                                                                    
   Atomic configuration                                                                             
    6 entries                                                                                       
     n  l   j            E        occ.                                                              
     1  0  0.50     -1785.8828   2.0000                                                             
     2  0  0.50      -139.4969   2.0000                                                             
     2  1  1.50       -95.5546   6.0000                                                             
     3  0  0.50       -10.8127   2.0000                                                             
     3  1  0.50        -4.0811   2.0000                                                             
     3  2  1.50        -4.0817   0.0000                                                             
   Description                                                                                      
     l       E           TYP  RCUT    TYP  RCUT                                                     
     0    -10.8127223     23  1.900                                                                 
     0     -7.6451159     23  1.900                                                                 
     1     -4.0811372     23  1.900                                                                 
     1      2.4879257     23  1.900                                                                 
     2     -4.0817478      7  1.900                                                                 
  local pseudopotential read in
  partial core-charges read in
  partial kinetic energy density read in
  atomic valenz-charges read in
  non local Contribution for L=           0  read in
    real space projection operators read in
  non local Contribution for L=           0  read in
    real space projection operators read in
  non local Contribution for L=           1  read in
    real space projection operators read in
  non local Contribution for L=           1  read in
    real space projection operators read in
    PAW grid and wavefunctions read in

   number of l-projection  operators is LMAX  =           4
   number of lm-projection operators is LMMAX =           8

 -----------------------------------------------------------------------------
|                                                                             |
|               ----> ADVICE to this user running VASP <----                  |
|                                                                             |
|     You have a (more or less) 'large supercell' and for larger cells it     |
|     might be more efficient to use real-space projection operators.         |
|     Therefore, try LREAL= Auto in the INCAR file.                           |
|     Mind: For very accurate calculation, you might also keep the            |
|     reciprocal projection scheme (i.e. LREAL=.FALSE.).                      |
|                                                                             |
 -----------------------------------------------------------------------------

 -----------------------------------------------------------------------------
|                                                                             |
|               ----> ADVICE to this user running VASP <----                  |
|                                                                             |
|     You enforced a specific xc type in the INCAR file but a different       |
|     type was found in the POTCAR file.                                      |
|     I HOPE YOU KNOW WHAT YOU ARE DOING!                                     |
|                                                                             |
 -----------------------------------------------------------------------------

  PAW_PBE Si 05Jan2001                  :
 energy of atom  1       EATOM= -103.0669
 kinetic energy error for atom=    0.0001 (will be added to EATOM!!)


 POSCAR: Si
  positions in cartesian coordinates
  No initial velocities read in


 exchange-correlation table for SCAN
   RHO(1)=    0.500       N(1)  =     2000
   RHO(2)=  100.500       N(2)  =     4000



--------------------------------------------------------------------------------------------------------


 ion  position               nearest neighbor table
   1  0.000  0.000  0.299-  28 2.35  46 2.35   2 2.35
   2  0.000  0.875  0.356-   7 2.35   5 2.35   3 2.35   1 2.35
   3  0.875  0.750  0.356-   4 2.35   2 2.35  40 2.35  38 2.35
   4  0.875  0.625  0.414-   3 2.35  15 2.35  25 2.35  21 2.35
   5  0.125  0.750  0.356-   6 2.35   2 2.35  24 2.35  20 2.35
   6  0.125  0.625  0.414-   5 2.35  15 2.35  41 2.35  35 2.35
   7  0.000  0.000  0.414-   2 2.35  12 2.35  14 2.35   8 2.35
   8  0.000  0.875  0.471-  21 2.35  35 2.35   7 2.35 113 2.35
   9  0.000  0.500  0.299-  20 2.35  38 2.35  10 2.35
  10  0.000  0.375  0.356-  15 2.35  13 2.35  11 2.35   9 2.35
  11  0.875  0.250  0.356-  12 2.35  10 2.35  48 2.35  46 2.35
  12  0.875  0.125  0.414-  11 2.35   7 2.35  17 2.35  29 2.35
  13  0.125  0.250  0.356-  14 2.35  10 2.35  32 2.35  28 2.35
  14  0.125  0.125  0.414-  13 2.35   7 2.35  33 2.35  43 2.35
  15  0.000  0.500  0.414-  10 2.35   6 2.35   4 2.35  16 2.35
  16  0.000  0.375  0.471-  29 2.35  43 2.35  15 2.35 121 2.35
  17  0.750  0.000  0.414-  40 2.35  12 2.35  62 2.35  18 2.35
  18  0.750  0.875  0.471-  19 2.35  21 2.35  17 2.35  87 2.35
  19  0.625  0.750  0.471-  18 2.35  56 2.35  54 2.35  84 2.35
  20  0.125  0.625  0.299-   9 2.35  31 2.35   5 2.35
  21  0.875  0.750  0.471-   8 2.35  18 2.35   4 2.35  86 2.35
  22  0.375  0.625  0.299-  31 2.35  57 2.35  51 2.35
  23  0.250  0.000  0.299-  28 2.35  30 2.35  24 2.35
  24  0.250  0.875  0.356-  33 2.35   5 2.35  51 2.35  23 2.35
  25  0.750  0.500  0.414-  48 2.35   4 2.35  54 2.35  26 2.35
  26  0.750  0.375  0.471-  27 2.35  29 2.35  25 2.35  95 2.35
  27  0.625  0.250  0.471-  26 2.35  64 2.35  62 2.35  92 2.35
  28  0.125  0.125  0.299-   1 2.35  23 2.35  13 2.35
  29  0.875  0.250  0.471-  16 2.35  26 2.35  12 2.35  94 2.35
  30  0.375  0.125  0.299-  23 2.35  49 2.35  59 2.35
  31  0.250  0.500  0.299-  20 2.35  22 2.35  32 2.35
  32  0.250  0.375  0.356-  41 2.35  13 2.35  59 2.35  31 2.35
  33  0.250  0.000  0.414-  24 2.35  14 2.35  60 2.35  34 2.35
  34  0.250  0.875  0.471-  35 2.35  37 2.35  33 2.35 103 2.35
  35  0.125  0.750  0.471-   8 2.35  34 2.35   6 2.35 100 2.35
  36  0.625  0.625  0.299-  47 2.35  57 2.35  53 2.35
  37  0.375  0.750  0.471-  34 2.35  56 2.35  52 2.35 102 2.35
  38  0.875  0.625  0.299-   9 2.35  47 2.35   3 2.35
  39  0.750  0.000  0.299-  44 2.35  46 2.35  40 2.35
  40  0.750  0.875  0.356-  17 2.35   3 2.35  53 2.35  39 2.35
  41  0.250  0.500  0.414-  32 2.35   6 2.35  52 2.35  42 2.35
  42  0.250  0.375  0.471-  43 2.35  45 2.35  41 2.35 111 2.35
  43  0.125  0.250  0.471-  16 2.35  42 2.35  14 2.35 108 2.35
  44  0.625  0.125  0.299-  39 2.35  49 2.35  61 2.35
  45  0.375  0.250  0.471-  42 2.35  64 2.35  60 2.35 110 2.35
  46  0.875  0.125  0.299-   1 2.35  39 2.35  11 2.35
  47  0.750  0.500  0.299-  36 2.35  38 2.35  48 2.35
  48  0.750  0.375  0.356-  25 2.35  11 2.35  61 2.35  47 2.35
  49  0.500  0.000  0.299-  30 2.35  44 2.35  50 2.35
  50  0.500  0.875  0.356-  55 2.35  53 2.35  51 2.35  49 2.35
  51  0.375  0.750  0.356-  52 2.35  50 2.35  24 2.35  22 2.35
  52  0.375  0.625  0.414-  51 2.35  41 2.35  63 2.35  37 2.35
  53  0.625  0.750  0.356-  54 2.35  50 2.35  40 2.35  36 2.35
  54  0.625  0.625  0.414-  53 2.35  25 2.35  63 2.35  19 2.35
  55  0.500  0.000  0.414-  50 2.35  60 2.35  62 2.35  56 2.35
  56  0.500  0.875  0.471-  19 2.35  37 2.35  55 2.35  65 2.35
  57  0.500  0.500  0.299-  22 2.35  36 2.35  58 2.35
  58  0.500  0.375  0.356-  63 2.35  61 2.35  59 2.35  57 2.35
  59  0.375  0.250  0.356-  60 2.35  58 2.35  32 2.35  30 2.35
  60  0.375  0.125  0.414-  59 2.35  55 2.35  33 2.35  45 2.35
  61  0.625  0.250  0.356-  62 2.35  58 2.35  48 2.35  44 2.35
  62  0.625  0.125  0.414-  61 2.35  55 2.35  17 2.35  27 2.35
  63  0.500  0.500  0.414-  58 2.35  54 2.35  52 2.35  64 2.35
  64  0.500  0.375  0.471-  27 2.35  45 2.35  63 2.35  73 2.35
  65  0.500  0.000  0.529-  92 2.35 110 2.35  56 2.35  66 2.35
  66  0.500  0.875  0.586-  71 2.35  69 2.35  67 2.35  65 2.35
  67  0.375  0.750  0.586-  68 2.35  66 2.35 104 2.35 102 2.35
  68  0.375  0.625  0.644-  67 2.35  79 2.35  89 2.35  85 2.35
  69  0.625  0.750  0.586-  70 2.35  66 2.35  88 2.35  84 2.35
  70  0.625  0.625  0.644-  69 2.35  79 2.35 105 2.35  99 2.35
  71  0.500  0.000  0.644-  66 2.35  76 2.35  78 2.35  72 2.35
  72  0.500  0.875  0.701-  85 2.35  99 2.35  71 2.35
  73  0.500  0.500  0.529-  84 2.35 102 2.35  64 2.35  74 2.35
  74  0.500  0.375  0.586-  79 2.35  77 2.35  75 2.35  73 2.35
  75  0.375  0.250  0.586-  76 2.35  74 2.35 112 2.35 110 2.35
  76  0.375  0.125  0.644-  75 2.35  71 2.35  81 2.35  93 2.35
  77  0.625  0.250  0.586-  78 2.35  74 2.35  96 2.35  92 2.35
  78  0.625  0.125  0.644-  77 2.35  71 2.35  97 2.35 107 2.35
  79  0.500  0.500  0.644-  74 2.35  70 2.35  68 2.35  80 2.35
  80  0.500  0.375  0.701-  93 2.35 107 2.35  79 2.35
  81  0.250  0.000  0.644- 104 2.35  76 2.35 126 2.35  82 2.35
  82  0.250  0.875  0.701-  83 2.35  85 2.35  81 2.35
  83  0.125  0.750  0.701-  82 2.35 120 2.35 118 2.35
  84  0.625  0.625  0.529-  73 2.35  95 2.35  19 2.35  69 2.35
  85  0.375  0.750  0.701-  72 2.35  82 2.35  68 2.35
  86  0.875  0.625  0.529-  95 2.35 121 2.35 115 2.35  21 2.35
  87  0.750  0.000  0.529-  92 2.35  94 2.35  18 2.35  88 2.35
  88  0.750  0.875  0.586-  97 2.35  69 2.35 115 2.35  87 2.35
  89  0.250  0.500  0.644- 112 2.35  68 2.35 118 2.35  90 2.35
  90  0.250  0.375  0.701-  91 2.35  93 2.35  89 2.35
  91  0.125  0.250  0.701-  90 2.35 128 2.35 126 2.35
  92  0.625  0.125  0.529-  65 2.35  87 2.35  77 2.35  27 2.35
  93  0.375  0.250  0.701-  80 2.35  90 2.35  76 2.35
  94  0.875  0.125  0.529-  87 2.35 113 2.35  29 2.35 123 2.35
  95  0.750  0.500  0.529-  84 2.35  86 2.35  26 2.35  96 2.35
  96  0.750  0.375  0.586- 105 2.35  77 2.35 123 2.35  95 2.35
  97  0.750  0.000  0.644-  88 2.35  78 2.35 124 2.35  98 2.35
  98  0.750  0.875  0.701-  99 2.35 101 2.35  97 2.35
  99  0.625  0.750  0.701-  72 2.35  98 2.35  70 2.35
 100  0.125  0.625  0.529- 111 2.35 121 2.35 117 2.35  35 2.35
 101  0.875  0.750  0.701-  98 2.35 120 2.35 116 2.35
 102  0.375  0.625  0.529-  73 2.35 111 2.35  37 2.35  67 2.35
 103  0.250  0.000  0.529- 108 2.35 110 2.35  34 2.35 104 2.35
 104  0.250  0.875  0.586-  81 2.35  67 2.35 117 2.35 103 2.35
 105  0.750  0.500  0.644-  96 2.35  70 2.35 116 2.35 106 2.35
 106  0.750  0.375  0.701- 107 2.35 109 2.35 105 2.35
 107  0.625  0.250  0.701-  80 2.35 106 2.35  78 2.35
 108  0.125  0.125  0.529- 103 2.35 113 2.35  43 2.35 125 2.35
 109  0.875  0.250  0.701- 106 2.35 128 2.35 124 2.35
 110  0.375  0.125  0.529-  65 2.35 103 2.35  75 2.35  45 2.35
 111  0.250  0.500  0.529- 100 2.35 102 2.35  42 2.35 112 2.35
 112  0.250  0.375  0.586-  89 2.35  75 2.35 125 2.35 111 2.35
 113  0.000  0.000  0.529-  94 2.35 108 2.35   8 2.35 114 2.35
 114  0.000  0.875  0.586- 119 2.35 117 2.35 115 2.35 113 2.35
 115  0.875  0.750  0.586- 116 2.35 114 2.35  88 2.35  86 2.35
 116  0.875  0.625  0.644- 115 2.35 105 2.35 127 2.35 101 2.35
 117  0.125  0.750  0.586- 118 2.35 114 2.35 104 2.35 100 2.35
 118  0.125  0.625  0.644- 117 2.35  89 2.35 127 2.35  83 2.35
 119  0.000  0.000  0.644- 114 2.35 124 2.35 126 2.35 120 2.35
 120  0.000  0.875  0.701-  83 2.35 101 2.35 119 2.35
 121  0.000  0.500  0.529-  86 2.35 100 2.35  16 2.35 122 2.35
 122  0.000  0.375  0.586- 127 2.35 125 2.35 123 2.35 121 2.35
 123  0.875  0.250  0.586- 124 2.35 122 2.35  96 2.35  94 2.35
 124  0.875  0.125  0.644- 123 2.35 119 2.35  97 2.35 109 2.35
 125  0.125  0.250  0.586- 126 2.35 122 2.35 112 2.35 108 2.35
 126  0.125  0.125  0.644- 125 2.35 119 2.35  81 2.35  91 2.35
 127  0.000  0.500  0.644- 122 2.35 118 2.35 116 2.35 128 2.35
 128  0.000  0.375  0.701-  91 2.35 109 2.35 127 2.35

  LATTYP: Found a simple orthorhombic cell.
 ALAT       =    10.8600000000
 B/A-ratio  =     1.4142135624
 C/A-ratio  =     3.0790574932
  
  Lattice vectors:
  
 A1 = (   0.0000000000, -10.8600000000,   0.0000000000)
 A2 = (  15.3583592874,   0.0000000000,   0.0000000000)
 A3 = (   0.0000000000,   0.0000000000,  33.4385643765)


Analysis of symmetry for initial positions (statically):
=====================================================================
 Subroutine PRICEL returns following result:
 
  LATTYP: Found a simple orthorhombic cell.
 ALAT       =     3.8395898218
 B/A-ratio  =     1.4142135624
 C/A-ratio  =     8.7088897325
  
  Lattice vectors:
  
 A1 = (   3.8395898218,   0.0000000000,   0.0000000000)
 A2 = (   0.0000000000,   5.4300000000,   0.0000000000)
 A3 = (   0.0000000000,   0.0000000000,  33.4385643765)
 
   8 primitive cells build up your supercell.
 

 Routine SETGRP: Setting up the symmetry group for a 
 simple orthorhombic supercell.


 Subroutine GETGRP returns: Found  8 space group operations
 (whereof  2 operations were pure point group operations)
 out of a pool of  8 trial point group operations.


The static configuration has the point symmetry C_1h.
 The point group associated with its full space group is D_2h.


Analysis of symmetry for dynamics (positions and initial velocities):
=====================================================================
 Subroutine PRICEL returns following result:
 
  LATTYP: Found a simple orthorhombic cell.
 ALAT       =     3.8395898218
 B/A-ratio  =     1.4142135624
 C/A-ratio  =     8.7088897325
  
  Lattice vectors:
  
 A1 = (   3.8395898218,   0.0000000000,   0.0000000000)
 A2 = (   0.0000000000,   5.4300000000,   0.0000000000)
 A3 = (   0.0000000000,   0.0000000000,  33.4385643765)
 
   8 primitive cells build up your supercell.
 

 Routine SETGRP: Setting up the symmetry group for a 
 simple orthorhombic supercell.


 Subroutine GETGRP returns: Found  8 space group operations
 (whereof  2 operations were pure point group operations)
 out of a pool of  8 trial point group operations.


The dynamic configuration has the point symmetry C_1h.
 The point group associated with its full space group is D_2h.


 Subroutine INISYM returns: Found  8 space group operations
 (whereof  2 operations are pure point group operations),
 and found     8 'primitive' translations


----------------------------------------------------------------------------------------

                                     Primitive cell                                     

  volume of cell :     697.1597

  direct lattice vectors                    reciprocal lattice vectors
     3.839589822  0.000000000  0.000000000     0.260444487  0.000000000  0.000000000
     0.000000000  5.430000000  0.000000000     0.000000000  0.184162063  0.000000000
     0.000000000  0.000000000 33.438564376     0.000000000  0.000000000  0.029905590

  length of vectors
     3.839589822  5.430000000 33.438564376     0.260444487  0.184162063  0.029905590

  position of ions in fractional coordinates (direct lattice)
     0.000000000  0.000000000  0.299055901
     0.000000000  0.750000000  0.356468501
     0.500000000  0.500000000  0.356468501
     0.500000000  0.250000000  0.413881100
     0.000000000  0.000000000  0.413881100
     0.000000000  0.750000000  0.471293700
     0.500000000  0.500000000  0.471293700
     0.500000000  0.250000000  0.299055901
     0.000000000  0.000000000  0.528706300
     0.000000000  0.750000000  0.586118900
     0.500000000  0.500000000  0.586118900
     0.500000000  0.250000000  0.643531499
     0.000000000  0.000000000  0.643531499
     0.000000000  0.750000000  0.700944099
     0.500000000  0.500000000  0.700944099
     0.500000000  0.250000000  0.528706300

  ion indices of the primitive-cell ions
   primitive index   ion index
                 1           1
                 2           2
                 3           3
                 4          12
                 5           7
                 6           8
                 7          21
                 8          28
                 9         113
                10         114
                11         115
                12         124
                13         119
                14         120
                15          83
                16          94

----------------------------------------------------------------------------------------


 -----------------------------------------------------------------------------
|                                                                             |
|           W    W    AA    RRRRR   N    N  II  N    N   GGGG   !!!           |
|           W    W   A  A   R    R  NN   N  II  NN   N  G    G  !!!           |
|           W    W  A    A  R    R  N N  N  II  N N  N  G       !!!           |
|           W WW W  AAAAAA  RRRRR   N  N N  II  N  N N  G  GGG   !            |
|           WW  WW  A    A  R   R   N   NN  II  N   NN  G    G                |
|           W    W  A    A  R    R  N    N  II  N    N   GGGG   !!!           |
|                                                                             |
|     The requested file  could not be found or opened for reading            |
|     k-point information. Automatic k-point generation is used as a          |
|     fallback, which may lead to unwanted results.                           |
|                                                                             |
 -----------------------------------------------------------------------------



Automatic generation of k-mesh.
 Grid dimensions derived from KSPACING:
 generate k-points for:    2    3    1

 Generating k-lattice:

  Cartesian coordinates                     Fractional coordinates (reciprocal lattice)
     0.032555561  0.000000000  0.000000000     0.500000000  0.000000000  0.000000000
     0.000000000  0.030693677  0.000000000     0.000000000  0.333333333  0.000000000
     0.000000000  0.000000000  0.029905590     0.000000000  0.000000000  1.000000000

  Length of vectors
     0.032555561  0.030693677  0.029905590

  Shift w.r.t. Gamma in fractional coordinates (k-lattice)
     0.000000000  0.000000000  0.000000000

 
 Subroutine IBZKPT returns following result:
 ===========================================
 
 Found      4 irreducible k-points:
 
 Following reciprocal coordinates:
            Coordinates               Weight
  0.000000  0.000000  0.000000      1.000000
  0.500000  0.000000  0.000000      1.000000
  0.000000  0.333333  0.000000      2.000000
  0.500000  0.333333  0.000000      2.000000
 
 Following cartesian coordinates:
            Coordinates               Weight
  0.000000  0.000000  0.000000      1.000000
  0.032556  0.000000  0.000000      1.000000
  0.000000  0.030694  0.000000      2.000000
  0.032556  0.030694  0.000000      2.000000
 


--------------------------------------------------------------------------------------------------------




 Dimension of arrays:
   k-points           NKPTS =      4   k-points in BZ     NKDIM =      4   number of bands    NBANDS=    324
   number of dos      NEDOS =   2000   number of ions     NIONS =    128
   non local maximal  LDIM  =      4   non local SUM 2l+1 LMDIM =      8
   total plane-waves  NPLWV = ******
   max r-space proj   IRMAX =      1   max aug-charges    IRDMAX= 411304
   dimension x,y,z NGX =   180 NGY =  126 NGZ =  378
   dimension x,y,z NGXF=   360 NGYF=  252 NGZF=  756
   support grid    NGXF=   720 NGYF=  504 NGZF= 1512
   ions per type =             128
   NGX,Y,Z   is equivalent  to a cutoff of  19.48, 19.29, 18.79 a.u.
   NGXF,Y,Z  is equivalent  to a cutoff of  38.97, 38.58, 37.59 a.u.

 SYSTEM =  a-Si SPC                                
 POSCAR =  Si                                      

 Startparameter for this run:
   NWRITE =      2    write-flag & timer
   PREC   = accura    normal or accurate (medium, high low for compatibility)
   ISTART =      1    job   : 0-new  1-cont  2-samecut
   ICHARG =      1    charge: 1-file 2-atom 10-const
   ISPIN  =      1    spin polarized calculation?
   LNONCOLLINEAR =      F non collinear calculations
   LSORBIT =      F    spin-orbit coupling
   INIWAV =      1    electr: 0-lowe 1-rand  2-diag
   LASPH  =      T    aspherical Exc in radial PAW
 Electronic Relaxation 1
   ENCUT  = 1200.0 eV  88.20 Ry    9.39 a.u.  43.38 30.67 94.45*2*pi/ulx,y,z
   ENINI  = 1200.0     initial cutoff
   ENAUG  =  322.1 eV  augmentation charge cutoff
   NELM   =    150;   NELMIN=  2; NELMDL=  0     # of ELM steps 
   EDIFF  = 0.1E-05   stopping-criterion for ELM
   LREAL  =      F    real-space projection
   NLSPLINE    = F    spline interpolate recip. space projectors
   LCOMPAT=      F    compatible to vasp.4.4
   GGA_COMPAT  = T    GGA compatible to vasp.4.4-vasp.4.6
   LMAXPAW     = -100 max onsite density
   LMAXMIX     =    2 max onsite mixed and CHGCAR
   VOSKOWN=      0    Vosko Wilk Nusair interpolation
   ROPT   =    0.00000
 Ionic relaxation
   EDIFFG = -.1E-01   stopping-criterion for IOM
   NSW    =      0    number of steps for IOM
   NBLOCK =      1;   KBLOCK =      1    inner block; outer block 
   IBRION =     -1    ionic relax: 0-MD 1-quasi-New 2-CG
   NFREE  =      0    steps in history (QN), initial steepest desc. (CG)
   ISIF   =      2    stress and relaxation
   IWAVPR =     10    prediction:  0-non 1-charg 2-wave 3-comb
   ISYM   =      1    0-nonsym 1-usesym 2-fastsym
   LCORR  =      T    Harris-Foulkes like correction to forces

   POTIM  = 0.5000    time-step for ionic-motion
   TEIN   =    0.0    initial temperature
   TEBEG  =    0.0;   TEEND  =   0.0 temperature during run
   SMASS  =  -3.00    Nose mass-parameter (am)
   estimated Nose-frequenzy (Omega)   =  0.10E-29 period in steps = 0.13E+47 mass=  -0.539E-26a.u.
   SCALEE = 1.0000    scale energy and forces
   NPACO  =    256;   APACO  = 10.0  distance and # of slots for P.C.
   PSTRESS=    0.0 pullay stress

  Mass of Ions in am
   POMASS =  28.09
  Ionic Valenz
   ZVAL   =   4.00
  Atomic Wigner-Seitz radii
   RWIGS  =  -1.00
  virtual crystal weights 
   VCA    =   1.00
   NELECT =     512.0000    total number of electrons
   NUPDOWN=      -1.0000    fix difference up-down

 DOS related values:
   EMIN   =  10.00;   EMAX   =-10.00  energy-range for DOS
   EFERMI =   0.00;   METHOD = LEGACY      
   ISMEAR =     0;   SIGMA  =   0.10  broadening in eV -4-tet -1-fermi 0-gaus
   EFERMI_NEDOS =   21; number of points for ismear=-14 and -15

 Electronic relaxation 2 (details)
   IALGO  =     38    algorithm
   LDIAG  =      F    sub-space diagonalisation (order eigenvalues)
   LSUBROT=      F    optimize rotation matrix (better conditioning)
   TURBO    =      0    0=normal 1=particle mesh
   IRESTART =      0    0=no restart 2=restart with 2 vectors
   NREBOOT  =      0    no. of reboots
   NMIN     =      0    reboot dimension
   EREF     =   0.00    reference energy to select bands
   IMIX   =      4    mixing-type and parameters
     AMIX     =   0.40;   BMIX     =  1.00
     AMIX_MAG =   1.60;   BMIX_MAG =  1.00
     AMIN     =   0.10
     WC   =   100.;   INIMIX=   1;  MIXPRE=   1;  MAXMIX= -45

 Intra band minimization:
   WEIMIN = 0.0000     energy-eigenvalue tresh-hold
   EBREAK =  0.77E-09  absolut break condition
   DEPER  =   0.30     relativ break condition  

   TIME   =   0.40     timestep for ELM

  volume/ion in A,a.u.               =      43.57       294.04
  Fermi-wavevector in a.u.,A,eV,Ry     =   0.738512  1.395585  7.420612  0.545400
  Thomas-Fermi vector in A             =   1.832452

 Write flags
   LWAVE        =      F    write WAVECAR
   LDOWNSAMPLE  =      F    k-point downsampling of WAVECAR
   LCHARG       =      F    write CHGCAR
   LVTOT        =      F    write LOCPOT, total local potential
   LVHAR        =      F    write LOCPOT, Hartree potential only
   WRT_POTENTIAL= false  ! write potential to hdf5 file
   LELF         =      F    write electronic localiz. function (ELF)
   LORBIT       =     11    0 simple, 1 ext, 2 COOP (PROOUT), +10 PAW based schemes


 Python interface
   PLUGINS active      =      F    recompile with -DPLUGINS to activate

 Dipole corrections
   LMONO      =      F    monopole corrections only (constant potential shift)
   LDIPOL     =      F    correct potential (dipole corrections)
   IDIPOL     =      0    1-x, 2-y, 3-z, 4-all directions 
   EPSILON    =  1.0000000 bulk dielectric constant
   LVACPOTAV  =      F  vacuum potentials using an averaging scheme for the charge density
   VACPOTFLAT =  0.1000000 required flatness to determine vacuum potential

Coulomb truncation method
  LTRUNCATE          =      F  Coulomb kernel truncation to be used
  IDIMENSIONALITY    =      3  Dimensionality of cutoff (0 molecules / 2 surfaces)
  ISURFACE           =     -1  Direction of surface normal
  LCOARSEN           =      F  Coarsen the charge grid before padding, preferred


 Exchange correlation treatment:
   METAGGA = SCAN    functional components
   XC_C    = 1    coefficients multiplying the functional components
   LIBXC   =     F    Libxc                    
   VOSKOWN =     0    Vosko Wilk Nusair interpolation
   LHFCALC =     F    Hartree Fock is set to
   LHFONE  =     F    Hartree Fock one center treatment
   AEXX    =    0.0000 exact exchange contribution

 Parameters of functionals:
   SCAN:
     P1 =  0.000000E+00
     P2 =  0.000000E+00
     P3 =  0.000000E+00

 Accuracy and mixing parameters for tau-dependent meta-GGA functionals:
   LMAXTAU = 6
   LMIXTAU = T

 Van der Waals corrections
   IVDW    =     0    specifies the selected vdW correction

 Linear response parameters
   LEPSILON=     F    determine dielectric tensor
   LRPA    =     F    only Hartree local field effects (RPA)
   LNABLA  =     F    use nabla operator in PAW spheres
   LVEL    =     F    velocity operator in full k-point grid
   CSHIFT  =0.1000    complex shift for real part using Kramers Kronig
   OMEGAMAX=  -1.0    maximum frequency
   DEG_THRESHOLD= 0.2000000E-02 threshold for treating states as degnerate
   RTIME   =   -0.100 relaxation time in fs
  (WPLASMAI=    0.000 imaginary part of plasma frequency in eV, 0.658/RTIME)
   DFIELD  = 0.0000000 0.0000000 0.0000000 field for delta impulse in time

  Optional k-point grid parameters
   LKPOINTS_OPT  =     F    use optional k-point grid
   KPOINTS_OPT_MODE=     1    mode for optional k-point grid

 Orbital magnetization related:
   ORBITALMAG=     F  switch on orbital magnetization
   LCHIMAG   =     F  perturbation theory with respect to B field
   DQ        =  0.001000  dq finite difference perturbation B field
   LLRAUG    =     F  two centre corrections for induced B field
   LBONE     =     F  B-component reconstruction in AE one-centre
   LVGVCALC  =     T  calculate vGv susceptibility
   LVGVAPPL  =     F  apply vGv susceptibility instead of pGv for G=0

 Random number generation:
   RANDOM_GENERATOR = DEFAULT
   PCG_SEED         = not used


--------------------------------------------------------------------------------------------------------


 Static calculation
 charge density and potential will be updated during run
 non-spin polarized calculation
 Variant of blocked Davidson
 perform Loewdin sub-space diagonalisation
    ordering is kept fixed
    before iterative eigenvector-optimisation
 modified Broyden-mixing scheme, WC =      100.0
 initial mixing is a Kerker type mixing with AMIX =  0.4000 and BMIX =      1.0000
 Hartree-type preconditioning will be used
 using additional bands           68
 reciprocal scheme for non local part
 use partial core corrections
 calculate Harris-corrections to forces   (improved forces if not selfconsistent)
 use gradient corrections 
 use of overlap-Matrix (Vanderbilt PP)
 Gauss-broadening in eV      SIGMA  =   0.10


--------------------------------------------------------------------------------------------------------


  energy-cutoff  :     1200.00
  volume of cell :     5577.28
      direct lattice vectors                 reciprocal lattice vectors
    15.358359287  0.000000000  0.000000000     0.065111122  0.000000000  0.000000000
     0.000000000 10.860000000  0.000000000     0.000000000  0.092081031  0.000000000
     0.000000000  0.000000000 33.438564376     0.000000000  0.000000000  0.029905590

  length of vectors
    15.358359287 10.860000000 33.438564376     0.065111122  0.092081031  0.029905590



 old parameters found on file WAVECAR:
  energy-cutoff  :     1200.00
  volume of cell :     5577.28
      direct lattice vectors                 reciprocal lattice vectors
    15.358359287  0.000000000  0.000000000     0.065111122  0.000000000  0.000000000
     0.000000000 10.860000000  0.000000000     0.000000000  0.092081031  0.000000000
     0.000000000  0.000000000 33.438564376     0.000000000  0.000000000  0.029905590

  length of vectors


 k-points in units of 2pi/SCALE and weight: read from INCAR                         
   0.00000000  0.00000000  0.00000000       0.167
   0.03255556  0.00000000  0.00000000       0.167
   0.00000000  0.03069368  0.00000000       0.333
   0.03255556  0.03069368  0.00000000       0.333

 k-points in reciprocal lattice and weights: read from INCAR                         
   0.00000000  0.00000000  0.00000000       0.167
   0.50000000  0.00000000  0.00000000       0.167
   0.00000000  0.33333333  0.00000000       0.333
   0.50000000  0.33333333  0.00000000       0.333

 position of ions in fractional coordinates (direct lattice) 
   0.00000000  0.00000000  0.29905590
   0.00000000  0.87500000  0.35646850
   0.87500000  0.75000000  0.35646850
   0.87500000  0.62500000  0.41388110
   0.12500000  0.75000000  0.35646850
   0.12500000  0.62500000  0.41388110
   0.00000000  0.00000000  0.41388110
   0.00000000  0.87500000  0.47129370
   0.00000000  0.50000000  0.29905590
   0.00000000  0.37500000  0.35646850
   0.87500000  0.25000000  0.35646850
   0.87500000  0.12500000  0.41388110
   0.12500000  0.25000000  0.35646850
   0.12500000  0.12500000  0.41388110
   0.00000000  0.50000000  0.41388110
   0.00000000  0.37500000  0.47129370
   0.75000000  0.00000000  0.41388110
   0.75000000  0.87500000  0.47129370
   0.62500000  0.75000000  0.47129370
   0.12500000  0.62500000  0.29905590
   0.87500000  0.75000000  0.47129370
   0.37500000  0.62500000  0.29905590
   0.25000000  0.00000000  0.29905590
   0.25000000  0.87500000  0.35646850
   0.75000000  0.50000000  0.41388110
   0.75000000  0.37500000  0.47129370
   0.62500000  0.25000000  0.47129370
   0.12500000  0.12500000  0.29905590
   0.87500000  0.25000000  0.47129370
   0.37500000  0.12500000  0.29905590
   0.25000000  0.50000000  0.29905590
   0.25000000  0.37500000  0.35646850
   0.25000000  0.00000000  0.41388110
   0.25000000  0.87500000  0.47129370
   0.12500000  0.75000000  0.47129370
   0.62500000  0.62500000  0.29905590
   0.37500000  0.75000000  0.47129370
   0.87500000  0.62500000  0.29905590
   0.75000000  0.00000000  0.29905590
   0.75000000  0.87500000  0.35646850
   0.25000000  0.50000000  0.41388110
   0.25000000  0.37500000  0.47129370
   0.12500000  0.25000000  0.47129370
   0.62500000  0.12500000  0.29905590
   0.37500000  0.25000000  0.47129370
   0.87500000  0.12500000  0.29905590
   0.75000000  0.50000000  0.29905590
   0.75000000  0.37500000  0.35646850
   0.50000000  0.00000000  0.29905590
   0.50000000  0.87500000  0.35646850
   0.37500000  0.75000000  0.35646850
   0.37500000  0.62500000  0.41388110
   0.62500000  0.75000000  0.35646850
   0.62500000  0.62500000  0.41388110
   0.50000000  0.00000000  0.41388110
   0.50000000  0.87500000  0.47129370
   0.50000000  0.50000000  0.29905590
   0.50000000  0.37500000  0.35646850
   0.37500000  0.25000000  0.35646850
   0.37500000  0.12500000  0.41388110
   0.62500000  0.25000000  0.35646850
   0.62500000  0.12500000  0.41388110
   0.50000000  0.50000000  0.41388110
   0.50000000  0.37500000  0.47129370
   0.50000000  0.00000000  0.52870630
   0.50000000  0.87500000  0.58611890
   0.37500000  0.75000000  0.58611890
   0.37500000  0.62500000  0.64353150
   0.62500000  0.75000000  0.58611890
   0.62500000  0.62500000  0.64353150
   0.50000000  0.00000000  0.64353150
   0.50000000  0.87500000  0.70094410
   0.50000000  0.50000000  0.52870630
   0.50000000  0.37500000  0.58611890
   0.37500000  0.25000000  0.58611890
   0.37500000  0.12500000  0.64353150
   0.62500000  0.25000000  0.58611890
   0.62500000  0.12500000  0.64353150
   0.50000000  0.50000000  0.64353150
   0.50000000  0.37500000  0.70094410
   0.25000000  0.00000000  0.64353150
   0.25000000  0.87500000  0.70094410
   0.12500000  0.75000000  0.70094410
   0.62500000  0.62500000  0.52870630
   0.37500000  0.75000000  0.70094410
   0.87500000  0.62500000  0.52870630
   0.75000000  0.00000000  0.52870630
   0.75000000  0.87500000  0.58611890
   0.25000000  0.50000000  0.64353150
   0.25000000  0.37500000  0.70094410
   0.12500000  0.25000000  0.70094410
   0.62500000  0.12500000  0.52870630
   0.37500000  0.25000000  0.70094410
   0.87500000  0.12500000  0.52870630
   0.75000000  0.50000000  0.52870630
   0.75000000  0.37500000  0.58611890
   0.75000000  0.00000000  0.64353150
   0.75000000  0.87500000  0.70094410
   0.62500000  0.75000000  0.70094410
   0.12500000  0.62500000  0.52870630
   0.87500000  0.75000000  0.70094410
   0.37500000  0.62500000  0.52870630
   0.25000000  0.00000000  0.52870630
   0.25000000  0.87500000  0.58611890
   0.75000000  0.50000000  0.64353150
   0.75000000  0.37500000  0.70094410
   0.62500000  0.25000000  0.70094410
   0.12500000  0.12500000  0.52870630
   0.87500000  0.25000000  0.70094410
   0.37500000  0.12500000  0.52870630
   0.25000000  0.50000000  0.52870630
   0.25000000  0.37500000  0.58611890
   0.00000000  0.00000000  0.52870630
   0.00000000  0.87500000  0.58611890
   0.87500000  0.75000000  0.58611890
   0.87500000  0.62500000  0.64353150
   0.12500000  0.75000000  0.58611890
   0.12500000  0.62500000  0.64353150
   0.00000000  0.00000000  0.64353150
   0.00000000  0.87500000  0.70094410
   0.00000000  0.50000000  0.52870630
   0.00000000  0.37500000  0.58611890
   0.87500000  0.25000000  0.58611890
   0.87500000  0.12500000  0.64353150
   0.12500000  0.25000000  0.58611890
   0.12500000  0.12500000  0.64353150
   0.00000000  0.50000000  0.64353150
   0.00000000  0.37500000  0.70094410

 position of ions in cartesian coordinates  (Angst):
   0.00000000  0.00000000 10.00000000
   0.00000000  9.50250000 11.91979491
  13.43856438  8.14500000 11.91979491
  13.43856438  6.78750000 13.83958982
   1.91979491  8.14500000 11.91979491
   1.91979491  6.78750000 13.83958982
   0.00000000  0.00000000 13.83958982
   0.00000000  9.50250000 15.75938473
   0.00000000  5.43000000 10.00000000
   0.00000000  4.07250000 11.91979491
  13.43856438  2.71500000 11.91979491
  13.43856438  1.35750000 13.83958982
   1.91979491  2.71500000 11.91979491
   1.91979491  1.35750000 13.83958982
   0.00000000  5.43000000 13.83958982
   0.00000000  4.07250000 15.75938473
  11.51876947  0.00000000 13.83958982
  11.51876947  9.50250000 15.75938473
   9.59897455  8.14500000 15.75938473
   1.91979491  6.78750000 10.00000000
  13.43856438  8.14500000 15.75938473
   5.75938473  6.78750000 10.00000000
   3.83958982  0.00000000 10.00000000
   3.83958982  9.50250000 11.91979491
  11.51876947  5.43000000 13.83958982
  11.51876947  4.07250000 15.75938473
   9.59897455  2.71500000 15.75938473
   1.91979491  1.35750000 10.00000000
  13.43856438  2.71500000 15.75938473
   5.75938473  1.35750000 10.00000000
   3.83958982  5.43000000 10.00000000
   3.83958982  4.07250000 11.91979491
   3.83958982  0.00000000 13.83958982
   3.83958982  9.50250000 15.75938473
   1.91979491  8.14500000 15.75938473
   9.59897455  6.78750000 10.00000000
   5.75938473  8.14500000 15.75938473
  13.43856438  6.78750000 10.00000000
  11.51876947  0.00000000 10.00000000
  11.51876947  9.50250000 11.91979491
   3.83958982  5.43000000 13.83958982
   3.83958982  4.07250000 15.75938473
   1.91979491  2.71500000 15.75938473
   9.59897455  1.35750000 10.00000000
   5.75938473  2.71500000 15.75938473
  13.43856438  1.35750000 10.00000000
  11.51876947  5.43000000 10.00000000
  11.51876947  4.07250000 11.91979491
   7.67917964  0.00000000 10.00000000
   7.67917964  9.50250000 11.91979491
   5.75938473  8.14500000 11.91979491
   5.75938473  6.78750000 13.83958982
   9.59897455  8.14500000 11.91979491
   9.59897455  6.78750000 13.83958982
   7.67917964  0.00000000 13.83958982
   7.67917964  9.50250000 15.75938473
   7.67917964  5.43000000 10.00000000
   7.67917964  4.07250000 11.91979491
   5.75938473  2.71500000 11.91979491
   5.75938473  1.35750000 13.83958982
   9.59897455  2.71500000 11.91979491
   9.59897455  1.35750000 13.83958982
   7.67917964  5.43000000 13.83958982
   7.67917964  4.07250000 15.75938473
   7.67917964  0.00000000 17.67917964
   7.67917964  9.50250000 19.59897455
   5.75938473  8.14500000 19.59897455
   5.75938473  6.78750000 21.51876947
   9.59897455  8.14500000 19.59897455
   9.59897455  6.78750000 21.51876947
   7.67917964  0.00000000 21.51876947
   7.67917964  9.50250000 23.43856438
   7.67917964  5.43000000 17.67917964
   7.67917964  4.07250000 19.59897455
   5.75938473  2.71500000 19.59897455
   5.75938473  1.35750000 21.51876947
   9.59897455  2.71500000 19.59897455
   9.59897455  1.35750000 21.51876947
   7.67917964  5.43000000 21.51876947
   7.67917964  4.07250000 23.43856438
   3.83958982  0.00000000 21.51876947
   3.83958982  9.50250000 23.43856438
   1.91979491  8.14500000 23.43856438
   9.59897455  6.78750000 17.67917964
   5.75938473  8.14500000 23.43856438
  13.43856438  6.78750000 17.67917964
  11.51876947  0.00000000 17.67917964
  11.51876947  9.50250000 19.59897455
   3.83958982  5.43000000 21.51876947
   3.83958982  4.07250000 23.43856438
   1.91979491  2.71500000 23.43856438
   9.59897455  1.35750000 17.67917964
   5.75938473  2.71500000 23.43856438
  13.43856438  1.35750000 17.67917964
  11.51876947  5.43000000 17.67917964
  11.51876947  4.07250000 19.59897455
  11.51876947  0.00000000 21.51876947
  11.51876947  9.50250000 23.43856438
   9.59897455  8.14500000 23.43856438
   1.91979491  6.78750000 17.67917964
  13.43856438  8.14500000 23.43856438
   5.75938473  6.78750000 17.67917964
   3.83958982  0.00000000 17.67917964
   3.83958982  9.50250000 19.59897455
  11.51876947  5.43000000 21.51876947
  11.51876947  4.07250000 23.43856438
   9.59897455  2.71500000 23.43856438
   1.91979491  1.35750000 17.67917964
  13.43856438  2.71500000 23.43856438
   5.75938473  1.35750000 17.67917964
   3.83958982  5.43000000 17.67917964
   3.83958982  4.07250000 19.59897455
   0.00000000  0.00000000 17.67917964
   0.00000000  9.50250000 19.59897455
  13.43856438  8.14500000 19.59897455
  13.43856438  6.78750000 21.51876947
   1.91979491  8.14500000 19.59897455
   1.91979491  6.78750000 21.51876947
   0.00000000  0.00000000 21.51876947
   0.00000000  9.50250000 23.43856438
   0.00000000  5.43000000 17.67917964
   0.00000000  4.07250000 19.59897455
  13.43856438  2.71500000 19.59897455
  13.43856438  1.35750000 21.51876947
   1.91979491  2.71500000 19.59897455
   1.91979491  1.35750000 21.51876947
   0.00000000  5.43000000 21.51876947
   0.00000000  4.07250000 23.43856438



--------------------------------------------------------------------------------------------------------


 k-point     1 :   0.0000 0.0000 0.0000  plane waves:  526495
 k-point     2 :   0.5000 0.0000 0.0000  plane waves:  526498
 k-point     3 :   0.0000 0.3333 0.0000  plane waves:  526524
 k-point     4 :   0.5000 0.3333 0.0000  plane waves:  526386

 maximum and minimum number of plane-waves per node :     33010    32813

 maximum number of plane-waves:    526524
 maximum index in each direction: 
   IXMAX=   43   IYMAX=   30   IZMAX=   94
   IXMIN=  -43   IYMIN=  -31   IZMIN=  -94


 parallel 3D FFT for wavefunctions:
    minimum data exchange during FFTs selected (reduces bandwidth)
 parallel 3D FFT for charge:
    minimum data exchange during FFTs selected (reduces bandwidth)


 total amount of memory used by VASP MPI-rank0   562970. kBytes
=======================================================================

   base                                    :      30000. kBytes
   nonl-proj                               :      75875. kBytes
   fftplans                                :     180714. kBytes
   grid                                    :     105306. kBytes
   one-center                              :         24. kBytes
   wavefun                                 :     171051. kBytes

     INWAV:  cpu time     24.5371: real time     24.5489
 Broyden mixing: mesh for mixing (old mesh)
   NGX = 87   NGY = 61   NGZ =189
  (NGX  =360   NGY  =252   NGZ  =756)
  gives a total of ****** points

 initial charge density was supplied:
 number of electron     511.9999998 magnetization 
 keeping initial charge density in first step


--------------------------------------------------------------------------------------------------------


 Maximum index for augmentation-charges        12144 (set IRDMAX)


--------------------------------------------------------------------------------------------------------


 First call to EWALD:  gamma=   0.100
 Maximum number of real-space cells   3x   4x   2
 Maximum number of reciprocal cells   2x   2x   5

    FEWALD:  cpu time      0.0178: real time      0.0180


--------------------------------------- Ionic step        1  -------------------------------------------




--------------------------------------- Iteration      1(   1)  ---------------------------------------


    POTLOK:  cpu time      3.7359: real time      3.7388
    SETDIJ:  cpu time      2.6182: real time      2.6198
    EDDIAG:  cpu time     98.2159: real time     98.2720
     EDDAV:  cpu time    453.9916: real time    454.2460
       DOS:  cpu time      0.0068: real time      0.0069
    CHARGE:  cpu time    116.1292: real time    116.1931
    MIXING:  cpu time      0.0768: real time      0.0773
    --------------------------------------------
      LOOP:  cpu time    674.7746: real time    675.1542

 eigenvalue-minimisations  :  2612
 total energy-change (2. order) :-0.1322831E+04  (-0.1425462E+01)
 number of electron     511.9999998 magnetization 
 augmentation part      -28.6903631 magnetization 

 Broyden mixing:
  rms(total) = 0.14763E+01    rms(broyden)= 0.33401E+02
  rms(prec ) = 0.15143E+01
  weight for this iteration     100.00
  WARNING: grid for Broyden might be to small

 Free energy of the ion-electron system (eV)
  ---------------------------------------------------
  alpha Z        PSCENC =        98.88995334
  Ewald energy   TEWEN  =    102887.66452921
  -Hartree energ DENC   =   -115394.79779065
  -exchange      EXHF   =         0.00000000
  -V(xc)+E(xc)   XCENC  =      -627.37459328
  PAW double counting   =     49800.03434543   -48524.64431082
  entropy T*S    EENTRO =        -0.37532168
  eigenvalues    EBANDS =     -2754.78328545
  atomic energy  EATOM  =     13192.55497936
  Solvation  Ediel_sol  =         0.00000000
  ---------------------------------------------------
  free energy    TOTEN  =     -1322.83149453 eV

  energy without entropy =    -1322.45617285  energy(sigma->0) =    -1322.64383369


--------------------------------------------------------------------------------------------------------




--------------------------------------- Iteration      1(   2)  ---------------------------------------


    POTLOK:  cpu time      3.7272: real time      3.7369
    SETDIJ:  cpu time      2.6293: real time      2.6312
    EDDIAG:  cpu time     98.2571: real time     98.3114
     EDDAV:  cpu time    452.0547: real time    452.3101
       DOS:  cpu time      0.0048: real time      0.0048
    CHARGE:  cpu time    116.8909: real time    116.9746
    MIXING:  cpu time      0.0730: real time      0.0732
    --------------------------------------------
      LOOP:  cpu time    673.6367: real time    674.0420

 eigenvalue-minimisations  :  2592
 total energy-change (2. order) : 0.9135887E+02  (-0.1291157E+01)
 number of electron     511.9999998 magnetization 
 augmentation part      -28.5702776 magnetization 

 Broyden mixing:
  rms(total) = 0.97236E+00    rms(broyden)= 0.19289E+02
  rms(prec ) = 0.99201E+00
  weight for this iteration     100.00
  WARNING: grid for Broyden might be to small

 eigenvalues of (default mixing * dielectric matrix)
  average eigenvalue GAMMA=   0.6340
  0.6340

 Free energy of the ion-electron system (eV)
  ---------------------------------------------------
  alpha Z        PSCENC =        98.88995334
  Ewald energy   TEWEN  =    102887.66452921
  -Hartree energ DENC   =   -115385.73293036
  -exchange      EXHF   =         0.00000000
  -V(xc)+E(xc)   XCENC  =      -613.88415439
  PAW double counting   =     59803.00761280   -58527.24830907
  entropy T*S    EENTRO =        -0.37561650
  eigenvalues    EBANDS =     -2686.34868589
  atomic energy  EATOM  =     13192.55497936
  Solvation  Ediel_sol  =         0.00000000
  ---------------------------------------------------
  free energy    TOTEN  =     -1231.47262148 eV

  energy without entropy =    -1231.09700498  energy(sigma->0) =    -1231.28481323


--------------------------------------------------------------------------------------------------------




--------------------------------------- Iteration      1(   3)  ---------------------------------------


    POTLOK:  cpu time      3.7294: real time      3.7315
    SETDIJ:  cpu time      2.6216: real time      2.6234
    EDDIAG:  cpu time     98.3146: real time     98.3695
     EDDAV:  cpu time    454.5003: real time    454.7667
       DOS:  cpu time      0.0054: real time      0.0054
    CHARGE:  cpu time    117.0911: real time    117.2087
    MIXING:  cpu time      0.0733: real time      0.0733
    --------------------------------------------
      LOOP:  cpu time    676.3356: real time    676.7785

 eigenvalue-minimisations  :  2616
 total energy-change (2. order) :-0.6155960E+01  (-0.1066277E+01)
 number of electron     511.9999998 magnetization 
 augmentation part      -28.4769068 magnetization 

 Broyden mixing:
  rms(total) = 0.36883E+00    rms(broyden)= 0.31117E+02
  rms(prec ) = 0.48347E+00
  weight for this iteration     100.00
  WARNING: grid for Broyden might be to small

 eigenvalues of (default mixing * dielectric matrix)
  average eigenvalue GAMMA=   0.7917
  0.9561  0.6273

 Free energy of the ion-electron system (eV)
  ---------------------------------------------------
  alpha Z        PSCENC =        98.88995334
  Ewald energy   TEWEN  =    102887.66452921
  -Hartree energ DENC   =   -115374.76806105
  -exchange      EXHF   =         0.00000000
  -V(xc)+E(xc)   XCENC  =      -621.31172012
  PAW double counting   =     72093.58421914   -70817.97803761
  entropy T*S    EENTRO =        -0.37535921
  eigenvalues    EBANDS =     -2695.88908489
  atomic energy  EATOM  =     13192.55497936
  Solvation  Ediel_sol  =         0.00000000
  ---------------------------------------------------
  free energy    TOTEN  =     -1237.62858183 eV

  energy without entropy =    -1237.25322262  energy(sigma->0) =    -1237.44090223


--------------------------------------------------------------------------------------------------------




--------------------------------------- Iteration      1(   4)  ---------------------------------------


    POTLOK:  cpu time      3.7257: real time      3.7279
    SETDIJ:  cpu time      2.6284: real time      2.6300
    EDDIAG:  cpu time     98.3875: real time     98.4424
     EDDAV:  cpu time    461.7678: real time    462.0449
       DOS:  cpu time      0.0052: real time      0.0052
    CHARGE:  cpu time    116.5876: real time    116.6549
    MIXING:  cpu time      0.0751: real time      0.0751
    --------------------------------------------
      LOOP:  cpu time    683.1774: real time    683.5804

 eigenvalue-minimisations  :  2688
 total energy-change (2. order) : 0.7233442E+00  (-0.1142781E+00)
 number of electron     511.9999998 magnetization 
 augmentation part      -28.4661007 magnetization 

 Broyden mixing:
  rms(total) = 0.51992E-01    rms(broyden)= 0.26560E+01
  rms(prec ) = 0.59800E-01
  weight for this iteration     100.00
  WARNING: grid for Broyden might be to small

 eigenvalues of (default mixing * dielectric matrix)
  average eigenvalue GAMMA=   1.1699
  2.1547  0.7312  0.6237

 Free energy of the ion-electron system (eV)
  ---------------------------------------------------
  alpha Z        PSCENC =        98.88995334
  Ewald energy   TEWEN  =    102887.66452921
  -Hartree energ DENC   =   -115382.87331715
  -exchange      EXHF   =         0.00000000
  -V(xc)+E(xc)   XCENC  =      -622.36726666
  PAW double counting   =     80224.43928397   -78948.86950926
  entropy T*S    EENTRO =        -0.37577047
  eigenvalues    EBANDS =     -2685.96812002
  atomic energy  EATOM  =     13192.55497936
  Solvation  Ediel_sol  =         0.00000000
  ---------------------------------------------------
  free energy    TOTEN  =     -1236.90523767 eV

  energy without entropy =    -1236.52946720  energy(sigma->0) =    -1236.71735244


--------------------------------------------------------------------------------------------------------




--------------------------------------- Iteration      1(   5)  ---------------------------------------


    POTLOK:  cpu time      3.7315: real time      3.7329
    SETDIJ:  cpu time      2.6179: real time      2.6197
    EDDIAG:  cpu time     98.2302: real time     98.2888
     EDDAV:  cpu time    515.6413: real time    515.9403
       DOS:  cpu time      0.0050: real time      0.0051
    CHARGE:  cpu time    116.0661: real time    116.1282
    MIXING:  cpu time      0.0761: real time      0.0766
    --------------------------------------------
      LOOP:  cpu time    736.3682: real time    736.7916

 eigenvalue-minimisations  :  3224
 total energy-change (2. order) :-0.5114510E-01  (-0.9777266E-02)
 number of electron     511.9999998 magnetization 
 augmentation part      -28.4678605 magnetization 

 Broyden mixing:
  rms(total) = 0.34291E-01    rms(broyden)= 0.43094E+00
  rms(prec ) = 0.35789E-01
  weight for this iteration     100.00
  WARNING: grid for Broyden might be to small

 eigenvalues of (default mixing * dielectric matrix)
  average eigenvalue GAMMA=   1.1985
  2.5410  0.9590  0.6657  0.6283

 Free energy of the ion-electron system (eV)
  ---------------------------------------------------
  alpha Z        PSCENC =        98.88995334
  Ewald energy   TEWEN  =    102887.66452921
  -Hartree energ DENC   =   -115388.18894451
  -exchange      EXHF   =         0.00000000
  -V(xc)+E(xc)   XCENC  =      -623.81516888
  PAW double counting   =     79471.00373973   -78195.38101575
  entropy T*S    EENTRO =        -0.37611661
  eigenvalues    EBANDS =     -2679.30833867
  atomic energy  EATOM  =     13192.55497936
  Solvation  Ediel_sol  =         0.00000000
  ---------------------------------------------------
  free energy    TOTEN  =     -1236.95638277 eV

  energy without entropy =    -1236.58026616  energy(sigma->0) =    -1236.76832446


--------------------------------------------------------------------------------------------------------




--------------------------------------- Iteration      1(   6)  ---------------------------------------


    POTLOK:  cpu time      3.7346: real time      3.7362
    SETDIJ:  cpu time      2.6122: real time      2.6138
    EDDIAG:  cpu time     98.2558: real time     98.3165
     EDDAV:  cpu time    498.0354: real time    498.3240
       DOS:  cpu time      0.0059: real time      0.0066
    CHARGE:  cpu time    116.0724: real time    116.1403
    MIXING:  cpu time      0.0807: real time      0.0811
    --------------------------------------------
      LOOP:  cpu time    718.7971: real time    719.2185

 eigenvalue-minimisations  :  3048
 total energy-change (2. order) :-0.6870316E-02  (-0.1437375E-02)
 number of electron     511.9999998 magnetization 
 augmentation part      -28.4642349 magnetization 

 Broyden mixing:
  rms(total) = 0.17322E-01    rms(broyden)= 0.23869E+00
  rms(prec ) = 0.17863E-01
  weight for this iteration     100.00
  WARNING: grid for Broyden might be to small

 eigenvalues of (default mixing * dielectric matrix)
  average eigenvalue GAMMA=   1.1700
  2.5528  1.2145  0.8054  0.6444  0.6328

 Free energy of the ion-electron system (eV)
  ---------------------------------------------------
  alpha Z        PSCENC =        98.88995334
  Ewald energy   TEWEN  =    102887.66452921
  -Hartree energ DENC   =   -115385.88786862
  -exchange      EXHF   =         0.00000000
  -V(xc)+E(xc)   XCENC  =      -623.80501482
  PAW double counting   =     79390.10980507   -78114.44946828
  entropy T*S    EENTRO =        -0.37485261
  eigenvalues    EBANDS =     -2681.66531575
  atomic energy  EATOM  =     13192.55497936
  Solvation  Ediel_sol  =         0.00000000
  ---------------------------------------------------
  free energy    TOTEN  =     -1236.96325308 eV

  energy without entropy =    -1236.58840048  energy(sigma->0) =    -1236.77582678


--------------------------------------------------------------------------------------------------------




--------------------------------------- Iteration      1(   7)  ---------------------------------------


    POTLOK:  cpu time      3.7191: real time      3.7279
    SETDIJ:  cpu time      2.6291: real time      2.6310
    EDDIAG:  cpu time     98.2730: real time     98.3262
     EDDAV:  cpu time    469.3345: real time    469.6166
       DOS:  cpu time      0.0055: real time      0.0055
    CHARGE:  cpu time    116.5933: real time    116.6546
    MIXING:  cpu time      0.0787: real time      0.0788
    --------------------------------------------
      LOOP:  cpu time    690.6334: real time    691.0407

 eigenvalue-minimisations  :  2768
 total energy-change (2. order) :-0.2047916E-02  (-0.6201332E-03)
 number of electron     511.9999998 magnetization 
 augmentation part      -28.4603282 magnetization 

 Broyden mixing:
  rms(total) = 0.38933E-02    rms(broyden)= 0.16677E+00
  rms(prec ) = 0.44519E-02
  weight for this iteration     100.00
  WARNING: grid for Broyden might be to small

 eigenvalues of (default mixing * dielectric matrix)
  average eigenvalue GAMMA=   1.2262
  2.5696  1.7507  1.0029  0.7582  0.6286  0.6473

 Free energy of the ion-electron system (eV)
  ---------------------------------------------------
  alpha Z        PSCENC =        98.88995334
  Ewald energy   TEWEN  =    102887.66452921
  -Hartree energ DENC   =   -115386.14676444
  -exchange      EXHF   =         0.00000000
  -V(xc)+E(xc)   XCENC  =      -623.43529154
  PAW double counting   =     79433.63689303   -78157.93681875
  entropy T*S    EENTRO =        -0.37460340
  eigenvalues    EBANDS =     -2681.81817782
  atomic energy  EATOM  =     13192.55497936
  Solvation  Ediel_sol  =         0.00000000
  ---------------------------------------------------
  free energy    TOTEN  =     -1236.96530100 eV

  energy without entropy =    -1236.59069760  energy(sigma->0) =    -1236.77799930


--------------------------------------------------------------------------------------------------------




--------------------------------------- Iteration      1(   8)  ---------------------------------------


    POTLOK:  cpu time      3.7285: real time      3.7300
    SETDIJ:  cpu time      2.6273: real time      2.6290
    EDDIAG:  cpu time     98.3066: real time     98.3611
     EDDAV:  cpu time    483.7808: real time    484.0567
       DOS:  cpu time      0.0058: real time      0.0057
    CHARGE:  cpu time    116.7976: real time    116.8588
    MIXING:  cpu time      0.0799: real time      0.0799
    --------------------------------------------
      LOOP:  cpu time    705.3264: real time    705.7212

 eigenvalue-minimisations  :  2912
 total energy-change (2. order) : 0.1772931E-03  (-0.7303983E-04)
 number of electron     511.9999998 magnetization 
 augmentation part      -28.4622741 magnetization 

 Broyden mixing:
  rms(total) = 0.17877E-02    rms(broyden)= 0.52192E-01
  rms(prec ) = 0.19438E-02
  weight for this iteration     100.00
  WARNING: grid for Broyden might be to small

 eigenvalues of (default mixing * dielectric matrix)
  average eigenvalue GAMMA=   1.2893
  2.5461  2.5461  1.1024  0.8545  0.7058  0.6252  0.6447

 Free energy of the ion-electron system (eV)
  ---------------------------------------------------
  alpha Z        PSCENC =        98.88995334
  Ewald energy   TEWEN  =    102887.66452921
  -Hartree energ DENC   =   -115386.26501849
  -exchange      EXHF   =         0.00000000
  -V(xc)+E(xc)   XCENC  =      -623.65519928
  PAW double counting   =     79458.74778324   -78183.04945240
  entropy T*S    EENTRO =        -0.37464913
  eigenvalues    EBANDS =     -2681.47804957
  atomic energy  EATOM  =     13192.55497936
  Solvation  Ediel_sol  =         0.00000000
  ---------------------------------------------------
  free energy    TOTEN  =     -1236.96512371 eV

  energy without entropy =    -1236.59047458  energy(sigma->0) =    -1236.77779914


--------------------------------------------------------------------------------------------------------




--------------------------------------- Iteration      1(   9)  ---------------------------------------


    POTLOK:  cpu time      3.7117: real time      3.7231
    SETDIJ:  cpu time      2.6238: real time      2.6253
    EDDIAG:  cpu time     98.2938: real time     98.3520
     EDDAV:  cpu time    496.7727: real time    497.0507
       DOS:  cpu time      0.0083: real time      0.0083
    CHARGE:  cpu time    116.4843: real time    116.5490
    MIXING:  cpu time      0.0829: real time      0.0830
    --------------------------------------------
      LOOP:  cpu time    717.9777: real time    718.3916

 eigenvalue-minimisations  :  3048
 total energy-change (2. order) :-0.9765396E-04  (-0.1442627E-04)
 number of electron     511.9999998 magnetization 
 augmentation part      -28.4629029 magnetization 

 Broyden mixing:
  rms(total) = 0.13068E-02    rms(broyden)= 0.11545E-01
  rms(prec ) = 0.14255E-02
  weight for this iteration     100.00
  WARNING: grid for Broyden might be to small

 eigenvalues of (default mixing * dielectric matrix)
  average eigenvalue GAMMA=   1.3290
  2.8776  2.6469  1.2641  1.0499  0.8424  0.6892  0.6374  0.6248

 Free energy of the ion-electron system (eV)
  ---------------------------------------------------
  alpha Z        PSCENC =        98.88995334
  Ewald energy   TEWEN  =    102887.66452921
  -Hartree energ DENC   =   -115386.16972800
  -exchange      EXHF   =         0.00000000
  -V(xc)+E(xc)   XCENC  =      -623.73704202
  PAW double counting   =     79441.92858356   -78166.22872068
  entropy T*S    EENTRO =        -0.37472426
  eigenvalues    EBANDS =     -2681.49305189
  atomic energy  EATOM  =     13192.55497936
  Solvation  Ediel_sol  =         0.00000000
  ---------------------------------------------------
  free energy    TOTEN  =     -1236.96522136 eV

  energy without entropy =    -1236.59049710  energy(sigma->0) =    -1236.77785923


--------------------------------------------------------------------------------------------------------




--------------------------------------- Iteration      1(  10)  ---------------------------------------


    POTLOK:  cpu time      3.7274: real time      3.7294
    SETDIJ:  cpu time      2.6162: real time      2.6173
    EDDIAG:  cpu time     98.2942: real time     98.3484
     EDDAV:  cpu time    475.4315: real time    475.7037
       DOS:  cpu time      0.0041: real time      0.0041
    CHARGE:  cpu time    116.1050: real time    116.1648
    MIXING:  cpu time      0.0815: real time      0.0819
    --------------------------------------------
      LOOP:  cpu time    696.2598: real time    696.6496

 eigenvalue-minimisations  :  2832
 total energy-change (2. order) :-0.7954783E-04  (-0.5580649E-05)
 number of electron     511.9999998 magnetization 
 augmentation part      -28.4626361 magnetization 

 Broyden mixing:
  rms(total) = 0.32066E-03    rms(broyden)= 0.13422E-01
  rms(prec ) = 0.42946E-03
  weight for this iteration     100.00
  WARNING: grid for Broyden might be to small

 eigenvalues of (default mixing * dielectric matrix)
  average eigenvalue GAMMA=   1.3619
  3.2319  2.6658  1.6748  1.0459  0.8906  0.8078  0.6798  0.6303  0.6303

 Free energy of the ion-electron system (eV)
  ---------------------------------------------------
  alpha Z        PSCENC =        98.88995334
  Ewald energy   TEWEN  =    102887.66452921
  -Hartree energ DENC   =   -115385.81039047
  -exchange      EXHF   =         0.00000000
  -V(xc)+E(xc)   XCENC  =      -623.71823664
  PAW double counting   =     79437.76710257   -78162.06471816
  entropy T*S    EENTRO =        -0.37464130
  eigenvalues    EBANDS =     -2681.87387882
  atomic energy  EATOM  =     13192.55497936
  Solvation  Ediel_sol  =         0.00000000
  ---------------------------------------------------
  free energy    TOTEN  =     -1236.96530091 eV

  energy without entropy =    -1236.59065960  energy(sigma->0) =    -1236.77798026


--------------------------------------------------------------------------------------------------------




--------------------------------------- Iteration      1(  11)  ---------------------------------------


    POTLOK:  cpu time      3.7279: real time      3.7294
    SETDIJ:  cpu time      2.6188: real time      2.6202
    EDDIAG:  cpu time     98.3025: real time     98.3572
     EDDAV:  cpu time    452.8091: real time    453.0714
       DOS:  cpu time      0.0073: real time      0.0073
    CHARGE:  cpu time    116.0559: real time    116.1187
    MIXING:  cpu time      0.0838: real time      0.0844
    --------------------------------------------
      LOOP:  cpu time    673.6053: real time    673.9886

 eigenvalue-minimisations  :  2608
 total energy-change (2. order) :-0.3482713E-04  (-0.1231259E-05)
 number of electron     511.9999998 magnetization 
 augmentation part      -28.4627554 magnetization 

 Broyden mixing:
  rms(total) = 0.20753E-03    rms(broyden)= 0.75910E-02
  rms(prec ) = 0.29008E-03
  weight for this iteration     100.00
  WARNING: grid for Broyden might be to small

 eigenvalues of (default mixing * dielectric matrix)
  average eigenvalue GAMMA=   1.4119
  3.5677  2.6427  2.1236  1.1588  1.0608  0.8781  0.7569  0.6700  0.6280  0.6320

 Free energy of the ion-electron system (eV)
  ---------------------------------------------------
  alpha Z        PSCENC =        98.88995334
  Ewald energy   TEWEN  =    102887.66452921
  -Hartree energ DENC   =   -115385.61124216
  -exchange      EXHF   =         0.00000000
  -V(xc)+E(xc)   XCENC  =      -623.73195507
  PAW double counting   =     79440.44341082   -78164.74132175
  entropy T*S    EENTRO =        -0.37460362
  eigenvalues    EBANDS =     -2682.05908587
  atomic energy  EATOM  =     13192.55497936
  Solvation  Ediel_sol  =         0.00000000
  ---------------------------------------------------
  free energy    TOTEN  =     -1236.96533574 eV

  energy without entropy =    -1236.59073212  energy(sigma->0) =    -1236.77803393


--------------------------------------------------------------------------------------------------------




--------------------------------------- Iteration      1(  12)  ---------------------------------------


    POTLOK:  cpu time      3.7278: real time      3.7294
    SETDIJ:  cpu time      2.6420: real time      2.6435
    EDDIAG:  cpu time     98.2746: real time     98.3268
     EDDAV:  cpu time    430.3944: real time    430.6409
       DOS:  cpu time      0.0062: real time      0.0064
    CHARGE:  cpu time    116.0351: real time    116.0987
    MIXING:  cpu time      0.0890: real time      0.0890
    --------------------------------------------
      LOOP:  cpu time    651.1691: real time    651.5348

 eigenvalue-minimisations  :  2368
 total energy-change (2. order) :-0.3789357E-04  (-0.9195776E-06)
 number of electron     511.9999998 magnetization 
 augmentation part      -28.4628155 magnetization 

 Broyden mixing:
  rms(total) = 0.14330E-03    rms(broyden)= 0.18739E-02
  rms(prec ) = 0.19741E-03
  weight for this iteration     100.00
  WARNING: grid for Broyden might be to small

 eigenvalues of (default mixing * dielectric matrix)
  average eigenvalue GAMMA=   1.5274
  4.5112  2.6369  2.6369  1.5005  0.9928  0.9928  0.8893  0.7197  0.6273  0.6320
  0.6621

 Free energy of the ion-electron system (eV)
  ---------------------------------------------------
  alpha Z        PSCENC =        98.88995334
  Ewald energy   TEWEN  =    102887.66452921
  -Hartree energ DENC   =   -115385.46569560
  -exchange      EXHF   =         0.00000000
  -V(xc)+E(xc)   XCENC  =      -623.74004235
  PAW double counting   =     79439.67484764   -78163.97335298
  entropy T*S    EENTRO =        -0.37459455
  eigenvalues    EBANDS =     -2682.19599771
  atomic energy  EATOM  =     13192.55497936
  Solvation  Ediel_sol  =         0.00000000
  ---------------------------------------------------
  free energy    TOTEN  =     -1236.96537363 eV

  energy without entropy =    -1236.59077908  energy(sigma->0) =    -1236.77807636


--------------------------------------------------------------------------------------------------------




--------------------------------------- Iteration      1(  13)  ---------------------------------------


    POTLOK:  cpu time      3.7218: real time      3.7303
    SETDIJ:  cpu time      2.6163: real time      2.6178
    EDDIAG:  cpu time     98.2852: real time     98.3394
     EDDAV:  cpu time    411.7857: real time    412.0197
       DOS:  cpu time      0.0043: real time      0.0043
    CHARGE:  cpu time    116.0692: real time    116.1326
    MIXING:  cpu time      0.0866: real time      0.0866
    --------------------------------------------
      LOOP:  cpu time    632.5691: real time    632.9307

 eigenvalue-minimisations  :  2184
 total energy-change (2. order) :-0.4221051E-04  (-0.9390256E-06)
 number of electron     511.9999998 magnetization 
 augmentation part      -28.4628069 magnetization 

 Broyden mixing:
  rms(total) = 0.67260E-04    rms(broyden)= 0.29321E-02
  rms(prec ) = 0.11208E-03
  weight for this iteration     100.00
  WARNING: grid for Broyden might be to small

 eigenvalues of (default mixing * dielectric matrix)
  average eigenvalue GAMMA=   1.5236
  4.8363  2.7134  2.7134  1.5966  1.0634  1.0041  0.9382  0.8054  0.7018  0.6282
  0.6282  0.6537

 Free energy of the ion-electron system (eV)
  ---------------------------------------------------
  alpha Z        PSCENC =        98.88995334
  Ewald energy   TEWEN  =    102887.66452921
  -Hartree energ DENC   =   -115385.29875679
  -exchange      EXHF   =         0.00000000
  -V(xc)+E(xc)   XCENC  =      -623.73843314
  PAW double counting   =     79440.45665039   -78164.75557329
  entropy T*S    EENTRO =        -0.37458637
  eigenvalues    EBANDS =     -2682.36417855
  atomic energy  EATOM  =     13192.55497936
  Solvation  Ediel_sol  =         0.00000000
  ---------------------------------------------------
  free energy    TOTEN  =     -1236.96541584 eV

  energy without entropy =    -1236.59082947  energy(sigma->0) =    -1236.77812266


--------------------------------------------------------------------------------------------------------




--------------------------------------- Iteration      1(  14)  ---------------------------------------


    POTLOK:  cpu time      3.7220: real time      3.7241
    SETDIJ:  cpu time      2.6193: real time      2.6205
    EDDIAG:  cpu time     98.2606: real time     98.3165
     EDDAV:  cpu time    385.3209: real time    385.5443
       DOS:  cpu time      0.0044: real time      0.0044
    CHARGE:  cpu time    116.0701: real time    116.1295
    MIXING:  cpu time      0.0886: real time      0.0886
    --------------------------------------------
      LOOP:  cpu time    606.0859: real time    606.4279

 eigenvalue-minimisations  :  1920
 total energy-change (2. order) :-0.2453355E-04  (-0.4431883E-06)
 number of electron     511.9999998 magnetization 
 augmentation part      -28.4628087 magnetization 

 Broyden mixing:
  rms(total) = 0.54292E-04    rms(broyden)= 0.96882E-03
  rms(prec ) = 0.75531E-04
  weight for this iteration     100.00
  WARNING: grid for Broyden might be to small

 eigenvalues of (default mixing * dielectric matrix)
  average eigenvalue GAMMA=   1.5282
  4.9578  2.7650  2.7650  1.7853  1.3556  0.9739  0.9558  0.9558  0.7573  0.6902
  0.6250  0.6304  0.6491

 Free energy of the ion-electron system (eV)
  ---------------------------------------------------
  alpha Z        PSCENC =        98.88995334
  Ewald energy   TEWEN  =    102887.66452921
  -Hartree energ DENC   =   -115385.18505815
  -exchange      EXHF   =         0.00000000
  -V(xc)+E(xc)   XCENC  =      -623.73862775
  PAW double counting   =     79441.07255181   -78165.37165703
  entropy T*S    EENTRO =        -0.37457789
  eigenvalues    EBANDS =     -2682.47753328
  atomic energy  EATOM  =     13192.55497936
  Solvation  Ediel_sol  =         0.00000000
  ---------------------------------------------------
  free energy    TOTEN  =     -1236.96544037 eV

  energy without entropy =    -1236.59086248  energy(sigma->0) =    -1236.77815143


--------------------------------------------------------------------------------------------------------




--------------------------------------- Iteration      1(  15)  ---------------------------------------


    POTLOK:  cpu time      3.7317: real time      3.7335
    SETDIJ:  cpu time      2.6149: real time      2.6163
    EDDIAG:  cpu time     98.2800: real time     98.3298
     EDDAV:  cpu time    379.6877: real time    379.9124
       DOS:  cpu time      0.0076: real time      0.0076
    CHARGE:  cpu time    116.3019: real time    116.3634
    MIXING:  cpu time      0.0922: real time      0.0922
    --------------------------------------------
      LOOP:  cpu time    600.7158: real time    601.0552

 eigenvalue-minimisations  :  1864
 total energy-change (2. order) :-0.1655090E-04  (-0.2752337E-06)
 number of electron     511.9999998 magnetization 
 augmentation part      -28.4628220 magnetization 

 Broyden mixing:
  rms(total) = 0.36077E-04    rms(broyden)= 0.92985E-03
  rms(prec ) = 0.48284E-04
  weight for this iteration     100.00
  WARNING: grid for Broyden might be to small

 eigenvalues of (default mixing * dielectric matrix)
  average eigenvalue GAMMA=   1.5352
  5.0199  2.8260  2.8260  2.0995  1.5124  1.0688  0.9841  0.9841  0.8543  0.7345
  0.6819  0.6255  0.6315  0.6452

 Free energy of the ion-electron system (eV)
  ---------------------------------------------------
  alpha Z        PSCENC =        98.88995334
  Ewald energy   TEWEN  =    102887.66452921
  -Hartree energ DENC   =   -115385.07869880
  -exchange      EXHF   =         0.00000000
  -V(xc)+E(xc)   XCENC  =      -623.74010084
  PAW double counting   =     79440.27683273   -78164.57583357
  entropy T*S    EENTRO =        -0.37457176
  eigenvalues    EBANDS =     -2682.58254661
  atomic energy  EATOM  =     13192.55497936
  Solvation  Ediel_sol  =         0.00000000
  ---------------------------------------------------
  free energy    TOTEN  =     -1236.96545692 eV

  energy without entropy =    -1236.59088517  energy(sigma->0) =    -1236.77817105


--------------------------------------------------------------------------------------------------------




--------------------------------------- Iteration      1(  16)  ---------------------------------------


    POTLOK:  cpu time      3.7339: real time      3.7357
    SETDIJ:  cpu time      2.6179: real time      2.6194
    EDDIAG:  cpu time     98.2670: real time     98.3185
     EDDAV:  cpu time    372.7404: real time    372.9531
       DOS:  cpu time      0.0056: real time      0.0056
    CHARGE:  cpu time    116.0853: real time    116.1508
    MIXING:  cpu time      0.0956: real time      0.0956
    --------------------------------------------
      LOOP:  cpu time    593.5456: real time    593.8786

 eigenvalue-minimisations  :  1800
 total energy-change (2. order) :-0.5889255E-05  (-0.8925921E-07)
 number of electron     511.9999998 magnetization 
 augmentation part      -28.4628250 magnetization 

 Broyden mixing:
  rms(total) = 0.23619E-04    rms(broyden)= 0.49565E-03
  rms(prec ) = 0.28888E-04
  weight for this iteration     100.00
  WARNING: grid for Broyden might be to small

 eigenvalues of (default mixing * dielectric matrix)
  average eigenvalue GAMMA=   1.5398
  5.0493  2.9439  2.8220  2.3598  1.6112  1.2593  1.0138  1.0138  0.9422  0.7921
  0.7185  0.6708  0.6276  0.6276  0.6449

 Free energy of the ion-electron system (eV)
  ---------------------------------------------------
  alpha Z        PSCENC =        98.88995334
  Ewald energy   TEWEN  =    102887.66452921
  -Hartree energ DENC   =   -115385.04961749
  -exchange      EXHF   =         0.00000000
  -V(xc)+E(xc)   XCENC  =      -623.73990805
  PAW double counting   =     79440.26119483   -78164.56006566
  entropy T*S    EENTRO =        -0.37457245
  eigenvalues    EBANDS =     -2682.61195592
  atomic energy  EATOM  =     13192.55497936
  Solvation  Ediel_sol  =         0.00000000
  ---------------------------------------------------
  free energy    TOTEN  =     -1236.96546281 eV

  energy without entropy =    -1236.59089037  energy(sigma->0) =    -1236.77817659


--------------------------------------------------------------------------------------------------------




--------------------------------------- Iteration      1(  17)  ---------------------------------------


    POTLOK:  cpu time      3.7360: real time      3.7379
    SETDIJ:  cpu time      2.6210: real time      2.6226
    EDDIAG:  cpu time     98.2907: real time     98.3440
     EDDAV:  cpu time    368.0776: real time    368.2886
       DOS:  cpu time      0.0041: real time      0.0041
    CHARGE:  cpu time    116.5128: real time    116.5795
    MIXING:  cpu time      0.0978: real time      0.0979
    --------------------------------------------
      LOOP:  cpu time    589.3401: real time    589.6745

 eigenvalue-minimisations  :  1752
 total energy-change (2. order) :-0.1860295E-05  (-0.4289374E-07)
 number of electron     511.9999998 magnetization 
 augmentation part      -28.4628297 magnetization 

 Broyden mixing:
  rms(total) = 0.15552E-04    rms(broyden)= 0.27051E-03
  rms(prec ) = 0.18014E-04
  weight for this iteration     100.00
  WARNING: grid for Broyden might be to small

 eigenvalues of (default mixing * dielectric matrix)
  average eigenvalue GAMMA=   1.5500
  5.0625  3.1576  2.7255  2.5714  1.7766  1.4431  1.1220  1.0118  1.0118  0.8825
  0.7680  0.7055  0.6670  0.6269  0.6292  0.6392

 Free energy of the ion-electron system (eV)
  ---------------------------------------------------
  alpha Z        PSCENC =        98.88995334
  Ewald energy   TEWEN  =    102887.66452921
  -Hartree energ DENC   =   -115385.04395444
  -exchange      EXHF   =         0.00000000
  -V(xc)+E(xc)   XCENC  =      -623.74032411
  PAW double counting   =     79440.61429496   -78164.91314770
  entropy T*S    EENTRO =        -0.37457464
  eigenvalues    EBANDS =     -2682.61722066
  atomic energy  EATOM  =     13192.55497936
  Solvation  Ediel_sol  =         0.00000000
  ---------------------------------------------------
  free energy    TOTEN  =     -1236.96546467 eV

  energy without entropy =    -1236.59089004  energy(sigma->0) =    -1236.77817736


--------------------------------------------------------------------------------------------------------




--------------------------------------- Iteration      1(  18)  ---------------------------------------


    POTLOK:  cpu time      3.7330: real time      3.7351
    SETDIJ:  cpu time      2.6246: real time      2.6258
    EDDIAG:  cpu time     98.2699: real time     98.3256
     EDDAV:  cpu time    361.0255: real time    361.2287
[...]
   -.116E-08 -.505E-01 -.225E+03   0.183E-13 0.161E+00 0.225E+03   0.115E-23 -.225E+00 -.982E-01   -.156E-13 0.445E-05 -.212E-04
   -.361E-08 0.520E-01 -.225E+03   -.483E-15 -.161E+00 0.225E+03   0.151E-23 0.225E+00 -.982E-01   -.363E-13 -.445E-05 -.212E-04
   0.150E-08 0.736E+00 -.377E+03   -.113E-13 -.140E+01 0.377E+03   -.567E-23 0.483E+00 0.491E+00   -.203E-13 -.315E-06 -.570E-04
   0.704E-09 0.520E-01 -.225E+03   -.401E-13 -.161E+00 0.225E+03   -.232E-23 0.225E+00 -.982E-01   0.135E-13 -.445E-05 -.212E-04
   0.756E-09 0.736E+00 -.377E+03   -.167E-13 -.140E+01 0.377E+03   -.121E-22 0.483E+00 0.491E+00   0.271E-13 -.315E-06 -.570E-04
   -.952E-09 -.735E+00 -.377E+03   -.226E-13 0.140E+01 0.377E+03   0.757E-23 -.483E+00 0.491E+00   -.441E-14 0.315E-06 -.570E-04
   -.128E-08 -.179E+02 -.518E+03   0.507E-14 0.169E+02 0.516E+03   -.387E-21 0.439E+00 0.179E+01   0.170E-13 -.122E-05 -.680E-04
 -----------------------------------------------------------------------------------------------
   -.109E-08 -.121E+00 -.188E-05   -.635E-13 0.249E-13 0.512E-11   -.302E-20 0.389E-15 0.122E-13   0.222E-12 0.127E-12 0.742E-11


 POSITION                                       TOTAL-FORCE (eV/Angst)
 -----------------------------------------------------------------------------------
      0.00000      0.00000     10.00000         0.000000      0.749069      0.293706
      0.00000      9.50250     11.91979         0.000000     -0.147275     -0.283881
     13.43856      8.14500     11.91979         0.000000      0.147275     -0.283881
     13.43856      6.78750     13.83959        -0.000000     -0.127132     -0.017119
      1.91979      8.14500     11.91979        -0.000000      0.147275     -0.283881
      1.91979      6.78750     13.83959        -0.000000     -0.127132     -0.017119
      0.00000      0.00000     13.83959        -0.000000      0.127132     -0.017119
      0.00000      9.50250     15.75938         0.000000     -0.062896      0.010903
      0.00000      5.43000     10.00000        -0.000000      0.749069      0.293706
      0.00000      4.07250     11.91979         0.000000     -0.147275     -0.283881
     13.43856      2.71500     11.91979         0.000000      0.147275     -0.283881
     13.43856      1.35750     13.83959        -0.000000     -0.127132     -0.017119
      1.91979      2.71500     11.91979         0.000000      0.147275     -0.283881
      1.91979      1.35750     13.83959        -0.000000     -0.127132     -0.017119
      0.00000      5.43000     13.83959        -0.000000      0.127132     -0.017119
      0.00000      4.07250     15.75938        -0.000000     -0.062896      0.010903
     11.51877      0.00000     13.83959         0.000000      0.127132     -0.017119
     11.51877      9.50250     15.75938         0.000000     -0.062896      0.010903
      9.59897      8.14500     15.75938        -0.000000      0.062896      0.010903
      1.91979      6.78750     10.00000         0.000000     -0.749069      0.293706
     13.43856      8.14500     15.75938         0.000000      0.062896      0.010903
      5.75938      6.78750     10.00000        -0.000000     -0.749069      0.293706
      3.83959      0.00000     10.00000        -0.000000      0.749069      0.293706
      3.83959      9.50250     11.91979        -0.000000     -0.147275     -0.283881
     11.51877      5.43000     13.83959         0.000000      0.127132     -0.017119
     11.51877      4.07250     15.75938         0.000000     -0.062896      0.010903
      9.59897      2.71500     15.75938        -0.000000      0.062896      0.010903
      1.91979      1.35750     10.00000         0.000000     -0.749069      0.293706
     13.43856      2.71500     15.75938         0.000000      0.062896      0.010903
      5.75938      1.35750     10.00000         0.000000     -0.749069      0.293706
      3.83959      5.43000     10.00000        -0.000000      0.749069      0.293706
      3.83959      4.07250     11.91979         0.000000     -0.147275     -0.283881
      3.83959      0.00000     13.83959        -0.000000      0.127132     -0.017119
      3.83959      9.50250     15.75938         0.000000     -0.062896      0.010903
      1.91979      8.14500     15.75938        -0.000000      0.062896      0.010903
      9.59897      6.78750     10.00000         0.000000     -0.749069      0.293706
      5.75938      8.14500     15.75938        -0.000000      0.062896      0.010903
     13.43856      6.78750     10.00000         0.000000     -0.749069      0.293706
     11.51877      0.00000     10.00000        -0.000000      0.749069      0.293706
     11.51877      9.50250     11.91979         0.000000     -0.147275     -0.283881
      3.83959      5.43000     13.83959        -0.000000      0.127132     -0.017119
      3.83959      4.07250     15.75938         0.000000     -0.062896      0.010903
      1.91979      2.71500     15.75938         0.000000      0.062896      0.010903
      9.59897      1.35750     10.00000        -0.000000     -0.749069      0.293706
      5.75938      2.71500     15.75938         0.000000      0.062896      0.010903
     13.43856      1.35750     10.00000        -0.000000     -0.749069      0.293706
     11.51877      5.43000     10.00000        -0.000000      0.749069      0.293706
     11.51877      4.07250     11.91979        -0.000000     -0.147275     -0.283881
      7.67918      0.00000     10.00000        -0.000000      0.749069      0.293706
      7.67918      9.50250     11.91979         0.000000     -0.147275     -0.283881
      5.75938      8.14500     11.91979        -0.000000      0.147275     -0.283881
      5.75938      6.78750     13.83959         0.000000     -0.127132     -0.017119
      9.59897      8.14500     11.91979        -0.000000      0.147275     -0.283881
      9.59897      6.78750     13.83959         0.000000     -0.127132     -0.017119
      7.67918      0.00000     13.83959         0.000000      0.127132     -0.017119
      7.67918      9.50250     15.75938        -0.000000     -0.062896      0.010903
      7.67918      5.43000     10.00000         0.000000      0.749069      0.293706
      7.67918      4.07250     11.91979        -0.000000     -0.147275     -0.283881
      5.75938      2.71500     11.91979         0.000000      0.147275     -0.283881
      5.75938      1.35750     13.83959         0.000000     -0.127132     -0.017119
      9.59897      2.71500     11.91979        -0.000000      0.147275     -0.283881
      9.59897      1.35750     13.83959         0.000000     -0.127132     -0.017119
      7.67918      5.43000     13.83959         0.000000      0.127132     -0.017119
      7.67918      4.07250     15.75938         0.000000     -0.062896      0.010903
      7.67918      0.00000     17.67918        -0.000000      0.062896     -0.010903
      7.67918      9.50250     19.59897         0.000000     -0.127132      0.017119
      5.75938      8.14500     19.59897         0.000000      0.127132      0.017119
      5.75938      6.78750     21.51877        -0.000000     -0.147275      0.283881
      9.59897      8.14500     19.59897         0.000000      0.127132      0.017119
      9.59897      6.78750     21.51877         0.000000     -0.147275      0.283881
      7.67918      0.00000     21.51877         0.000000      0.147275      0.283881
      7.67918      9.50250     23.43856        -0.000000     -0.749069     -0.293706
      7.67918      5.43000     17.67918        -0.000000      0.062896     -0.010903
      7.67918      4.07250     19.59897         0.000000     -0.127132      0.017119
      5.75938      2.71500     19.59897         0.000000      0.127132      0.017119
      5.75938      1.35750     21.51877        -0.000000     -0.147275      0.283881
      9.59897      2.71500     19.59897         0.000000      0.127132      0.017119
      9.59897      1.35750     21.51877        -0.000000     -0.147275      0.283881
      7.67918      5.43000     21.51877         0.000000      0.147275      0.283881
      7.67918      4.07250     23.43856         0.000000     -0.749069     -0.293706
      3.83959      0.00000     21.51877         0.000000      0.147275      0.283881
      3.83959      9.50250     23.43856        -0.000000     -0.749069     -0.293706
      1.91979      8.14500     23.43856         0.000000      0.749069     -0.293706
      9.59897      6.78750     17.67918        -0.000000     -0.062896     -0.010903
      5.75938      8.14500     23.43856         0.000000      0.749069     -0.293706
     13.43856      6.78750     17.67918         0.000000     -0.062896     -0.010903
     11.51877      0.00000     17.67918         0.000000      0.062896     -0.010903
     11.51877      9.50250     19.59897         0.000000     -0.127132      0.017119
      3.83959      5.43000     21.51877         0.000000      0.147275      0.283881
      3.83959      4.07250     23.43856        -0.000000     -0.749069     -0.293706
      1.91979      2.71500     23.43856        -0.000000      0.749069     -0.293706
      9.59897      1.35750     17.67918        -0.000000     -0.062896     -0.010903
      5.75938      2.71500     23.43856         0.000000      0.749069     -0.293706
     13.43856      1.35750     17.67918         0.000000     -0.062896     -0.010903
     11.51877      5.43000     17.67918         0.000000      0.062896     -0.010903
     11.51877      4.07250     19.59897         0.000000     -0.127132      0.017119
     11.51877      0.00000     21.51877         0.000000      0.147275      0.283881
     11.51877      9.50250     23.43856        -0.000000     -0.749069     -0.293706
      9.59897      8.14500     23.43856        -0.000000      0.749069     -0.293706
      1.91979      6.78750     17.67918        -0.000000     -0.062896     -0.010903
     13.43856      8.14500     23.43856         0.000000      0.749069     -0.293706
      5.75938      6.78750     17.67918        -0.000000     -0.062896     -0.010903
      3.83959      0.00000     17.67918         0.000000      0.062896     -0.010903
      3.83959      9.50250     19.59897        -0.000000     -0.127132      0.017119
     11.51877      5.43000     21.51877         0.000000      0.147275      0.283881
     11.51877      4.07250     23.43856        -0.000000     -0.749069     -0.293706
      9.59897      2.71500     23.43856        -0.000000      0.749069     -0.293706
      1.91979      1.35750     17.67918        -0.000000     -0.062896     -0.010903
     13.43856      2.71500     23.43856         0.000000      0.749069     -0.293706
      5.75938      1.35750     17.67918         0.000000     -0.062896     -0.010903
      3.83959      5.43000     17.67918         0.000000      0.062896     -0.010903
      3.83959      4.07250     19.59897        -0.000000     -0.127132      0.017119
      0.00000      0.00000     17.67918         0.000000      0.062896     -0.010903
      0.00000      9.50250     19.59897        -0.000000     -0.127132      0.017119
     13.43856      8.14500     19.59897         0.000000      0.127132      0.017119
     13.43856      6.78750     21.51877         0.000000     -0.147275      0.283881
      1.91979      8.14500     19.59897        -0.000000      0.127132      0.017119
      1.91979      6.78750     21.51877         0.000000     -0.147275      0.283881
      0.00000      0.00000     21.51877         0.000000      0.147275      0.283881
      0.00000      9.50250     23.43856         0.000000     -0.749069     -0.293706
      0.00000      5.43000     17.67918         0.000000      0.062896     -0.010903
      0.00000      4.07250     19.59897        -0.000000     -0.127132      0.017119
     13.43856      2.71500     19.59897        -0.000000      0.127132      0.017119
     13.43856      1.35750     21.51877         0.000000     -0.147275      0.283881
      1.91979      2.71500     19.59897        -0.000000      0.127132      0.017119
      1.91979      1.35750     21.51877        -0.000000     -0.147275      0.283881
      0.00000      5.43000     21.51877         0.000000      0.147275      0.283881
      0.00000      4.07250     23.43856        -0.000000     -0.749069     -0.293706
 -----------------------------------------------------------------------------------
    total drift:                               -0.000000     -0.121494     -0.000002


--------------------------------------------------------------------------------------------------------



  FREE ENERGIE OF THE ION-ELECTRON SYSTEM (eV)
  ---------------------------------------------------
  free  energy   TOTEN  =     -1236.96546505 eV

  energy  without entropy=    -1236.59088937  energy(sigma->0) =    -1236.77817721



--------------------------------------------------------------------------------------------------------


    POTLOK:  cpu time      6.3310: real time      6.3468


--------------------------------------------------------------------------------------------------------


     LOOP+:  cpu time  12974.6561: real time  12982.2864
    4ORBIT:  cpu time      0.0000: real time      0.0000



 total charge

# of ion       s       p       d       tot
------------------------------------------
    1        0.782   0.861   0.000   1.643
    2        0.754   0.933   0.000   1.686
    3        0.754   0.933   0.000   1.686
    4        0.749   0.955   0.000   1.704
    5        0.754   0.933   0.000   1.686
    6        0.749   0.955   0.000   1.704
    7        0.749   0.955   0.000   1.704
    8        0.746   0.959   0.000   1.705
    9        0.782   0.861   0.000   1.643
   10        0.754   0.933   0.000   1.686
   11        0.754   0.933   0.000   1.686
   12        0.749   0.955   0.000   1.704
   13        0.754   0.933   0.000   1.686
   14        0.749   0.955   0.000   1.704
   15        0.749   0.955   0.000   1.704
   16        0.746   0.959   0.000   1.705
   17        0.749   0.955   0.000   1.704
   18        0.746   0.959   0.000   1.705
   19        0.746   0.959   0.000   1.705
   20        0.782   0.861   0.000   1.643
   21        0.746   0.959   0.000   1.705
   22        0.782   0.861   0.000   1.643
   23        0.782   0.861   0.000   1.643
   24        0.754   0.933   0.000   1.686
   25        0.749   0.955   0.000   1.704
   26        0.746   0.959   0.000   1.705
   27        0.746   0.959   0.000   1.705
   28        0.782   0.861   0.000   1.643
   29        0.746   0.959   0.000   1.705
   30        0.782   0.861   0.000   1.643
   31        0.782   0.861   0.000   1.643
   32        0.754   0.933   0.000   1.686
   33        0.749   0.955   0.000   1.704
   34        0.746   0.959   0.000   1.705
   35        0.746   0.959   0.000   1.705
   36        0.782   0.861   0.000   1.643
   37        0.746   0.959   0.000   1.705
   38        0.782   0.861   0.000   1.643
   39        0.782   0.861   0.000   1.643
   40        0.754   0.933   0.000   1.686
   41        0.749   0.955   0.000   1.704
   42        0.746   0.959   0.000   1.705
   43        0.746   0.959   0.000   1.705
   44        0.782   0.861   0.000   1.643
   45        0.746   0.959   0.000   1.705
   46        0.782   0.861   0.000   1.643
   47        0.782   0.861   0.000   1.643
   48        0.754   0.933   0.000   1.686
   49        0.782   0.861   0.000   1.643
   50        0.754   0.933   0.000   1.686
   51        0.754   0.933   0.000   1.686
   52        0.749   0.955   0.000   1.704
   53        0.754   0.933   0.000   1.686
   54        0.749   0.955   0.000   1.704
   55        0.749   0.955   0.000   1.704
   56        0.746   0.959   0.000   1.705
   57        0.782   0.861   0.000   1.643
   58        0.754   0.933   0.000   1.686
   59        0.754   0.933   0.000   1.686
   60        0.749   0.955   0.000   1.704
   61        0.754   0.933   0.000   1.686
   62        0.749   0.955   0.000   1.704
   63        0.749   0.955   0.000   1.704
   64        0.746   0.959   0.000   1.705
   65        0.746   0.959   0.000   1.705
   66        0.749   0.955   0.000   1.704
   67        0.749   0.955   0.000   1.704
   68        0.754   0.933   0.000   1.686
   69        0.749   0.955   0.000   1.704
   70        0.754   0.933   0.000   1.686
   71        0.754   0.933   0.000   1.686
   72        0.782   0.861   0.000   1.643
   73        0.746   0.959   0.000   1.705
   74        0.749   0.955   0.000   1.704
   75        0.749   0.955   0.000   1.704
   76        0.754   0.933   0.000   1.686
   77        0.749   0.955   0.000   1.704
   78        0.754   0.933   0.000   1.686
   79        0.754   0.933   0.000   1.686
   80        0.782   0.861   0.000   1.643
   81        0.754   0.933   0.000   1.686
   82        0.782   0.861   0.000   1.643
   83        0.782   0.861   0.000   1.643
   84        0.746   0.959   0.000   1.705
   85        0.782   0.861   0.000   1.643
   86        0.746   0.959   0.000   1.705
   87        0.746   0.959   0.000   1.705
   88        0.749   0.955   0.000   1.704
   89        0.754   0.933   0.000   1.686
   90        0.782   0.861   0.000   1.643
   91        0.782   0.861   0.000   1.643
   92        0.746   0.959   0.000   1.705
   93        0.782   0.861   0.000   1.643
   94        0.746   0.959   0.000   1.705
   95        0.746   0.959   0.000   1.705
   96        0.749   0.955   0.000   1.704
   97        0.754   0.933   0.000   1.686
   98        0.782   0.861   0.000   1.643
   99        0.782   0.861   0.000   1.643
  100        0.746   0.959   0.000   1.705
  101        0.782   0.861   0.000   1.643
  102        0.746   0.959   0.000   1.705
  103        0.746   0.959   0.000   1.705
  104        0.749   0.955   0.000   1.704
  105        0.754   0.933   0.000   1.686
  106        0.782   0.861   0.000   1.643
  107        0.782   0.861   0.000   1.643
  108        0.746   0.959   0.000   1.705
  109        0.782   0.861   0.000   1.643
  110        0.746   0.959   0.000   1.705
  111        0.746   0.959   0.000   1.705
  112        0.749   0.955   0.000   1.704
  113        0.746   0.959   0.000   1.705
  114        0.749   0.955   0.000   1.704
  115        0.749   0.955   0.000   1.704
  116        0.754   0.933   0.000   1.686
  117        0.749   0.955   0.000   1.704
  118        0.754   0.933   0.000   1.686
  119        0.754   0.933   0.000   1.686
  120        0.782   0.861   0.000   1.643
  121        0.746   0.959   0.000   1.705
  122        0.749   0.955   0.000   1.704
  123        0.749   0.955   0.000   1.704
  124        0.754   0.933   0.000   1.686
  125        0.749   0.955   0.000   1.704
  126        0.754   0.933   0.000   1.686
  127        0.754   0.933   0.000   1.686
  128        0.782   0.861   0.000   1.643
--------------------------------------------------
tot         96.987 118.637   0.000 215.624


 total amount of memory used by VASP MPI-rank0   562970. kBytes
=======================================================================

   base                                    :      30000. kBytes
   nonl-proj                               :      75875. kBytes
   fftplans                                :     180714. kBytes
   grid                                    :     105306. kBytes
   one-center                              :         24. kBytes
   wavefun                                 :     171051. kBytes

  
  
 General timing and accounting informations for this job:
 ========================================================
  
                  Total CPU time used (sec):    13140.080
                            User time (sec):    12090.338
                          System time (sec):     1049.742
                         Elapsed time (sec):    13147.857
  
                   Maximum memory used (kb):     2341824.
                   Average memory used (kb):          N/A
  
                          Minor page faults:     24392115
                          Major page faults:         1187
                 Voluntary context switches:         1683
