ITEM: TIMESTEP
300828
ITEM: NUMBER OF ATOMS
14000
ITEM: BOX BOUNDS pp pp pp
-1.6097402315502287e+00 5.9530923837727613e+01
-1.6097402315502287e+00 5.9530923837727613e+01
-1.6097402315502287e+00 6.9425044179917563e+01
ITEM: ATOMS id type xs ys zs
1 2 0.96693 0.0342818 0.324814
2 2 0.760587 0.400437 0.184719
3 2 0.463727 0.519482 0.48675
4 2 0.888047 0.983806 0.506018
5 2 0.274903 0.124995 0.463785
6 2 0.336798 0.880223 0.126279
7 2 0.0155764 0.296695 0.593267
8 2 0.422469 0.154302 0.332545
9 2 0.190273 0.356025 0.495614
10 2 0.137235 0.108381 0.353695
11 2 0.338394 0.199047 0.0641441
12 2 0.255918 0.316133 0.26417
13 2 0.184012 0.44158 0.0411265
14 2 0.0578784 0.385733 0.598659
15 2 0.541842 0.257774 0.477405
16 2 0.353593 0.140676 0.69194
17 2 0.29684 0.237434 0.0440726
18 2 0.0622809 0.144442 0.897801
19 2 0.0679831 0.342513 0.521735
20 2 0.279252 0.148894 0.276778
21 2 0.0439598 0.0650488 0.102102
22 2 0.46381 0.0673317 0.524456
23 2 0.866976 0.0689668 0.653524
24 2 0.59176 0.0757493 0.511044
25 2 0.143144 0.337042 0.437592
26 2 0.729881 0.210637 0.0892004
27 2 0.81347 0.114288 0.0232792
28 2 0.220381 0.315607 0.364705
29 2 0.18779 0.135726 0.0341125
30 2 0.157734 0.243252 0.577737
31 2 0.41873 0.141994 0.479201
32 2 0.30471 0.455741 0.0583396
33 2 0.163953 0.473767 0.29262
34 2 0.235104 0.0721171 0.705053
35 2 0.135041 0.29376 0.942906
36 2 0.338384 0.940706 0.991364
37 2 0.535572 0.0408647 0.0296482
38 2 0.31347 0.551804 0.66281
39 2 0.927353 0.660034 0.124052
40 2 0.942562 0.207369 0.475176
41 2 0.788443 0.494263 0.0411113
42 2 0.894042 0.661714 0.0724584
43 2 0.0826273 0.202077 0.0210355
44 2 0.349999 0.320136 0.241497
45 2 0.99995 0.796509 0.0795558
46 2 0.932153 0.453582 0.22506
47 2 0.996978 0.72187 0.529344
48 2 0.355323 0.519191 0.5077
49 2 0.207857 0.0182629 0.0167082
50 2 0.255129 0.141045 0.302132
51 2 0.536864 0.0600697 0.545845
52 2 0.261718 0.0936386 0.633512
53 2 0.348463 0.88522 0.305277
54 2 0.408407 0.445079 0.353603
55 2 0.900552 0.419083 0.549153
56 2 0.113226 0.396967 0.740636
57 2 0.500343 0.229473 0.80822
58 2 0.0975677 0.245054 0.603144
59 2 0.705796 0.445154 0.443423
60 2 0.33605 0.187469 0.500538
61 2 0.0573421 0.174647 0.530325
62 2 0.349426 0.391808 0.482066
63 2 0.909854 0.413123 0.344741
64 2 0.962357 0.75397 0.943809
65 2 0.548634 0.465244 0.797604
66 2 0.510173 0.266837 0.251883
67 2 0.288383 0.202104 0.365148
68 2 0.734785 0.337421 0.0275812
69 2 0.869071 0.711937 0.420168
70 2 0.548787 0.318468 0.110597
71 2 0.3178 0.519582 0.154679
72 2 0.039542 0.149063 0.300425
73 2 0.267799 0.0264835 0.414987
74 2 0.472823 0.358571 0.488235
75 2 0.507181 0.478525 0.281731
76 2 0.467069 0.190338 0.267306
77 2 0.399186 0.261515 0.330322
78 2 0.0492211 0.183406 0.0156982
79 2 0.225358 0.0550821 0.320215
80 2 0.499054 0.230303 0.348215
81 2 0.152909 0.552123 0.995172
82 2 0.193806 0.411176 0.265656
83 2 0.286896 0.915906 0.00201826
84 2 0.848377 0.400825 0.0273159
85 2 0.13908 0.486396 0.238915
86 2 0.324905 0.327811 0.191302
87 2 0.624766 0.656625 0.18694
88 2 0.675255 0.183701 0.62492
89 2 0.402068 0.35827 0.30636
90 2 0.296639 0.141022 0.351036
91 2 0.228689 0.225633 0.318822
92 2 0.402728 0.172496 0.65905
93 2 0.379151 0.300902 0.255299
94 2 0.326241 0.20632 0.425673
95 2 0.131459 0.630527 0.0309702
96 2 0.115483 0.405127 0.524272
97 2 0.799129 0.391505 0.13953
98 2 0.404142 0.413244 0.783962
99 2 0.756937 0.910088 0.509613
100 2 0.13621 0.604937 0.365806
101 2 0.357383 0.373595 0.268616
102 2 0.538298 0.098441 0.333888
103 2 0.413343 0.0934095 0.411904
104 2 0.298211 0.00468298 0.564649
105 2 0.485261 0.233984 0.542234
106 2 0.178707 0.0783944 0.863219
107 2 0.399428 0.356286 0.945813
108 2 0.203286 0.873006 0.341915
109 2 0.208039 0.653882 0.970343
110 2 0.4105 0.3859 0.47472
111 2 0.265343 0.429929 0.214988
112 2 0.482924 0.373656 0.679225
113 2 0.283242 0.416126 0.240092
114 2 0.285845 0.571746 0.40349
115 2 0.833003 0.961535 0.289742
116 2 0.885438 0.966367 0.360534
117 2 0.448567 0.377175 0.574275
118 2 0.283113 0.240999 0.746651
119 2 0.111097 0.45534 0.335268
120 2 0.41013 0.0950182 0.35231
121 2 0.307217 0.864381 0.229308
122 2 0.915817 0.49591 0.515102
123 2 0.835181 0.803583 0.160147
124 2 0.728972 0.391205 0.382834
125 2 0.191749 0.269737 0.344913
126 2 0.22565 0.110774 0.113246
127 2 0.294741 0.611197 0.125417
128 2 0.548936 0.362754 0.372557
129 2 0.362636 0.34991 0.587339
130 2 0.909107 0.893698 0.494387
131 2 0.0121789 0.331165 0.898003
132 2 0.415469 0.329894 0.769161
133 2 0.736042 0.693955 0.526564
134 2 0.407231 0.550566 0.607397
135 2 0.144162 0.671965 0.880801
136 2 0.69401 0.156764 0.355083
137 2 0.136507 0.131569 0.562574
138 2 0.29067 0.105217 0.361749
139 2 0.371851 0.504497 0.190065
140 2 0.310334 0.249281 0.567938
141 2 0.916777 0.297351 0.640554
142 2 0.0118155 0.735967 0.502164
143 2 0.103431 0.0607919 0.124327
144 2 0.961409 0.487437 0.440779
145 2 0.206511 0.310721 0.231811
146 2 0.237481 0.00162988 0.166514
147 2 0.102552 0.343765 0.392995
148 2 0.356253 0.365056 0.54317
149 2 0.526189 0.207538 0.575918
150 2 0.131702 0.235916 0.400315
151 2 0.836068 0.306918 0.920982
152 2 0.476561 0.474039 0.892369
153 2 0.303281 0.155632 0.457453
154 2 0.251844 0.305653 0.447332
155 2 0.488759 0.1439 0.831833
156 2 0.363593 0.157083 0.582859
157 2 0.452334 0.53831 0.328127
158 2 0.16854 0.467518 0.738376
159 2 0.0868448 0.119455 0.0372289
160 2 0.314676 0.913548 0.161146
161 2 0.226793 0.295994 0.312019
162 2 0.969993 0.255546 0.431243
163 2 0.531148 0.565985 0.134212
164 2 0.00802166 0.094527 0.306531
165 2 0.240466 0.124643 0.0643098
166 2 0.28185 0.580492 0.568865
167 2 0.787658 0.227978 0.998934
168 2 0.320828 0.0943897 0.408405
169 2 0.899695 0.591823 0.415235
170 2 0.540163 0.293465 0.88444
171 2 0.459425 0.307932 0.312914
172 2 0.128786 0.030991 0.878664
173 2 0.375959 0.240829 0.509245
174 2 0.372095 0.188154 0.978551
175 2 0.242578 0.246664 0.461385
176 2 0.268593 0.259368 0.890947
177 2 0.60172 0.157986 0.469763
178 2 0.885523 0.279922 0.310615
179 2 0.382646 0.799928 0.160691
180 2 0.363256 0.313627 0.620548
181 2 0.991898 0.379257 0.203985
182 2 0.513342 0.344173 0.0624288
183 2 0.0513427 0.325234 0.368886
184 2 0.382976 0.271672 0.472184
185 2 0.0137631 0.955698 0.525825
186 2 0.152505 0.485948 0.322187
187 2 0.426901 0.290645 0.279039
188 2 0.164823 0.15786 0.953965
189 2 0.337234 0.292303 0.30154
190 2 0.247346 0.219383 0.290363
191 2 0.182315 0.307468 0.747924
192 2 0.28779 0.786287 0.0808249
193 2 0.584088 0.475241 0.589428
194 2 0.424295 0.622155 0.543423
195 2 0.213696 0.196389 0.472472
196 2 0.644706 0.0365041 0.965595
197 2 0.228534 0.146656 0.971025
198 2 0.788571 0.144418 0.73246
199 2 0.0646826 0.419875 0.731103
200 2 0.315639 0.229001 0.830916
201 2 0.327301 0.548423 0.0430755
202 2 0.753521 0.287638 0.16207
203 2 0.879131 0.168913 0.99888
204 2 0.692775 0.0960964 0.466663
205 2 0.195314 0.459656 0.46673
206 2 0.259897 0.673142 0.179648
207 2 0.167547 0.906696 0.989128
208 2 0.0678528 0.934282 0.117585
209 2 0.410098 0.881006 0.517339
210 2 0.979294 0.50588 0.871142
211 2 0.0431591 0.973159 0.592057
212 2 0.977725 0.965753 0.638155
213 2 0.352832 0.412535 0.372668
214 2 0.49445 0.193914 0.921607
215 2 0.982014 0.918667 0.261376
216 2 0.180017 0.96586 0.069134
217 2 0.149392 0.868016 0.377449
218 2 0.883328 0.218782 0.383576
219 2 0.269318 0.086028 0.853899
220 2 0.23799 0.139301 0.416394
221 2 0.846634 0.273921 0.803717
222 2 0.811297 0.200115 0.989353
223 2 0.171336 0.0530637 0.414071
224 2 0.355428 0.857234 0.105537
225 2 0.415495 0.640817 0.20006
226 2 0.425484 0.363199 0.754168
227 2 0.226732 0.517536 0.116453
228 2 0.13306 0.203233 0.69154
229 2 0.75765 0.350395 0.174455
230 2 0.4833 0.413962 0.457608
231 2 0.210027 0.325838 0.505926
232 2 0.32024 0.239395 0.325328
233 2 0.175637 0.928617 0.579225
234 2 0.513336 0.608165 0.65567
235 2 0.310396 0.844531 0.00512139
236 2 0.361175 0.9831 0.612899
237 2 0.0544575 0.898944 0.339709
238 2 0.162203 0.387233 0.302574
239 2 0.926412 0.21075 0.0213404
240 2 0.857504 0.424608 0.881865
241 2 0.202855 0.305368 0.336099
242 2 0.101111 0.330825 0.336885
243 2 0.761668 0.279444 0.0883048
244 2 0.420639 0.440443 0.0487583
245 2 0.914328 0.289397 0.607707
246 2 0.108284 0.221754 0.301238
247 2 0.445965 0.728963 0.390497
248 2 0.212543 0.37147 0.987253
249 2 0.518702 0.828178 0.34559
250 2 0.944656 0.642125 0.472086
251 2 0.683165 0.959779 0.0569291
252 2 0.287697 0.875867 0.963434
253 2 0.358938 0.931279 0.937984
254 2 0.230279 0.0865388 0.536843
255 2 0.599669 0.357045 0.306112
256 2 0.133124 0.547616 0.0720857
257 2 0.481458 0.0898493 0.546643
258 2 0.513916 0.901428 0.874195
259 2 0.541521 0.600156 0.311431
260 2 0.484365 0.300712 0.377893
261 2 0.110686 0.0650114 0.982913
262 2 0.229984 0.262691 0.253893
263 2 0.348151 0.396307 0.623665
264 2 0.412084 0.847522 0.874721
265 2 0.43414 0.961695 0.81682
266 2 0.504232 0.086764 0.214405
267 2 0.296811 0.391167 0.811184
268 2 0.224879 0.416707 0.492647
269 2 0.884299 0.020144 0.598782
270 2 0.156719 0.682637 0.348956
271 2 0.320298 0.0805161 0.253746
272 2 0.335952 0.55827 0.0743753
273 2 0.508297 0.230839 0.0464347
274 2 0.280297 0.0815547 0.337129
275 2 0.369633 0.409694 0.267153
276 2 0.601586 0.939089 0.531052
277 2 0.759677 0.349207 0.0735938
278 2 0.618188 0.525756 0.50947
279 2 0.703206 0.247041 0.424348
280 2 0.00589764 0.32999 0.459842
281 2 0.960636 0.512366 0.0544074
282 2 0.27954 0.531037 0.0936388
283 2 0.339044 0.945297 0.498123
284 2 0.505088 0.930439 0.526158
285 2 0.537337 0.236899 0.505101
286 2 0.154279 0.178946 0.522786
287 2 0.113759 0.174636 0.4061
288 2 0.42328 0.734048 0.125058
289 2 0.311631 0.319693 0.306743
290 2 0.289059 0.0342701 0.897128
291 2 0.819464 0.465595 0.137333
292 2 0.25539 0.357178 0.208516
293 2 0.401962 0.876508 0.216551
294 2 0.160389 0.48414 0.381693
295 2 0.498269 0.266703 0.336982
296 2 0.98191 0.933474 0.347094
297 2 0.462062 0.202251 0.576831
298 2 0.149948 0.995832 0.122212
299 2 0.397651 0.359436 0.356327
300 2 0.598904 0.974308 0.388029
301 2 0.0182056 0.497525 0.242065
302 2 0.454934 0.118199 0.224212
303 2 0.166092 0.183791 0.683566
304 2 0.238977 0.32301 0.96995
305 2 0.440238 0.0312942 0.43181
306 2 0.0224569 0.291673 0.0454338
307 2 0.34619 0.556586 0.58214
308 2 0.177981 0.296505 0.251439
309 2 0.379101 0.671454 0.0907013
310 2 0.884509 0.426604 0.985676
311 2 0.810643 0.359893 0.761212
312 2 0.136318 0.417165 0.581273
313 2 0.292289 0.414277 0.411227
314 2 0.744962 0.0155871 0.860024
315 2 0.490913 0.366994 0.304026
316 2 0.398252 0.390752 0.0144916
317 2 0.241276 0.312011 0.879672
318 2 0.0260644 0.122722 0.540038
319 2 0.153552 0.101082 0.293699
320 2 0.423349 0.146444 0.596133
321 2 0.343727 0.793697 0.157664
322 2 0.069918 0.281508 0.327945
323 2 0.319592 0.08612 0.375788
324 2 0.917316 0.195677 0.420077
325 2 0.190196 0.236397 0.390151
326 2 0.421666 0.323078 0.31766
327 2 0.433704 0.0683431 0.337839
328 2 0.502487 0.174501 0.389278
329 2 0.183727 0.353926 0.263986
330 2 0.335353 0.366003 0.341835
331 2 0.199541 0.34828 0.233555
332 2 0.905213 0.592295 0.1345
333 2 0.108931 0.354049 0.974346
334 2 0.614769 0.322279 0.413954
335 2 0.524948 0.601557 0.963773
336 2 0.959609 0.968011 0.288693
337 2 0.968607 0.176767 0.741245
338 2 0.406488 0.348762 0.0528782
339 2 0.357264 0.140493 0.236027
340 2 0.335793 0.486289 0.452713
341 2 0.186048 0.985481 0.119342
342 2 0.244179 0.375078 0.0577199
343 2 0.489462 0.0321205 0.4225
344 2 0.723204 0.494044 0.0320011
345 2 0.375076 0.212324 0.258815
346 2 0.317862 0.0388526 0.324839
347 2 0.522171 0.529498 0.13835
348 2 0.951002 0.418413 0.448095
349 2 0.957479 0.602967 0.921731
350 2 0.87404 0.459101 0.0316423
351 2 0.303989 0.168072 0.855522
352 2 0.147557 0.954193 0.320499
353 2 0.324363 0.878921 0.644648
354 2 0.163949 0.0114292 0.618178
355 2 0.388189 0.152436 0.499361
356 2 0.710228 0.498959 0.34894
357 2 0.418178 0.53347 0.146086
358 2 0.222534 0.773187 0.685616
359 2 0.671113 0.102125 0.528176
360 2 0.0721853 0.113779 0.108323
361 2 0.895987 0.776965 0.422718
362 2 0.418491 0.293159 0.602735
363 2 0.720184 0.268026 0.448636
364 2 0.359945 0.161881 0.288672
365 2 0.539152 0.363008 0.492639
366 2 0.177696 0.536409 0.755586
367 2 0.365249 0.0202658 0.355001
368 2 0.469764 0.978601 0.980901
369 2 0.277674 0.995833 0.369077
370 2 0.943404 0.177611 0.965692
371 2 0.689945 0.272059 0.401754
372 2 0.0373774 0.147888 0.026268
373 2 0.165014 0.105155 0.127149
374 2 0.187389 0.359253 0.31213
375 2 0.516689 0.977279 0.341316
376 2 0.271823 0.449007 0.720427
377 2 0.314092 0.187129 0.0174867
378 2 0.313371 0.66346 0.028117
379 2 0.257184 0.244086 0.333852
380 2 0.371323 0.298648 0.288064
381 2 0.264234 0.000872591 0.3185
382 2 0.318394 0.0823574 0.560102
383 2 0.408189 0.413721 0.425124
384 2 0.99032 0.377011 0.429389
385 2 0.32675 0.0177355 0.443834
386 2 0.122162 0.394445 0.346817
387 2 0.297173 0.312147 0.337253
388 2 0.583076 0.469859 0.366986
389 2 0.303572 0.41797 0.877861
390 2 0.990295 0.570119 0.883057
391 2 0.425295 0.542655 0.636392
392 2 0.171814 0.326573 0.32329
393 2 0.12041 0.175843 0.0564542
394 2 0.985038 0.578994 0.577273
395 2 0.22522 0.927565 0.993201
396 2 0.543731 0.112126 0.504698
397 2 0.976279 0.808882 0.34304
398 2 0.699842 0.0169155 0.0608237
399 2 0.560877 0.257078 0.0751023
400 2 0.825899 0.969958 0.021667
401 2 0.530279 0.0687044 0.461038
402 2 0.264683 0.49707 0.012106
403 2 0.544094 0.395019 0.715307
404 2 0.701896 0.358862 0.35101
405 2 0.717391 0.102707 0.702196
406 2 0.530546 0.997134 0.315506
407 2 0.581025 0.450187 0.459463
408 2 0.133274 0.0682193 0.616246
409 2 0.126171 0.333813 0.902938
410 2 0.855324 0.748755 0.969984
411 2 0.309628 0.170011 0.372426
412 2 0.954778 0.354967 0.890276
413 2 0.265167 0.655416 0.547729
414 2 0.179674 0.308051 0.844229
415 2 0.097272 0.0449915 0.353818
416 2 0.910496 0.956629 0.773315
417 2 0.0505601 0.0802711 0.358709
418 2 0.119074 0.199582 0.349499
419 2 0.550246 0.553607 0.555935
420 2 0.0829227 0.208679 0.857863
421 2 0.168795 0.0396455 0.0652449
422 2 0.561401 0.947138 0.561427
423 2 0.826329 0.200824 0.534244
424 2 0.0305189 0.112611 0.353579
425 2 0.178501 0.1083 0.389388
426 2 0.00652425 0.35033 0.989165
427 2 0.0986399 0.979094 0.672095
428 2 0.0549595 0.0103164 0.375978
429 2 0.104923 0.246459 0.0530848
430 2 0.299832 0.610222 0.0192351
431 2 0.410225 0.997555 0.511302
432 2 0.274981 0.43089 0.0183756
433 2 0.74188 0.971912 0.0613289
434 2 0.399385 0.312599 0.398265
435 2 0.107469 0.135106 0.319797
436 2 0.0192113 0.185716 0.466134
437 2 0.290771 0.30897 0.278716
438 2 0.233135 0.408926 0.226772
439 2 0.964563 0.222362 0.247864
440 2 0.25112 0.21607 0.510367
441 2 0.273862 0.0787296 0.129144
442 2 0.158702 0.4948 0.0659415
443 2 0.21615 0.229871 0.621039
444 2 0.115872 0.89565 0.501622
445 2 0.505431 0.412868 0.273166
446 2 0.0634114 0.492249 0.535212
447 2 0.218658 0.0901839 0.929579
448 2 0.233221 0.448404 0.390626
449 2 0.371051 0.61302 0.596486
450 2 0.387681 0.429759 0.378251
451 2 0.636038 0.998946 0.329634
452 2 0.251421 0.579923 0.507202
453 2 0.0574447 0.136388 0.0517994
454 2 0.694999 0.990638 0.3738
455 2 0.575566 0.384843 0.0962167
456 2 0.324783 0.468815 0.20301
457 2 0.238995 0.115065 0.346588
458 2 0.547133 0.346089 0.342864
459 2 0.358125 0.0925609 0.0620472
460 2 0.437264 0.302943 0.463735
461 2 0.806548 0.792538 0.851065
462 2 0.487376 0.407194 0.975114
463 2 0.0119349 0.958642 0.343484
464 2 0.0569886 0.238754 0.366989
465 2 0.984452 0.182443 0.85705
466 2 0.550833 0.336372 0.448258
467 2 0.394434 0.0523645 0.944195
468 2 0.624337 0.170716 0.806724
469 2 0.156002 0.489134 0.627905
470 2 0.306138 0.194245 0.28709
471 2 0.427843 0.997708 0.481464
472 2 0.995612 0.0556792 0.0628484
473 2 0.240457 0.0770695 0.38698
474 2 0.376574 0.0910819 0.40389
475 2 0.426832 0.13574 0.00192312
476 2 0.756446 0.157214 0.336806
477 2 0.825915 0.686436 0.469836
478 2 0.266932 0.294687 0.214688
479 2 0.290937 0.0192932 0.0739989
480 2 0.714485 0.15039 0.476679
481 2 0.42073 0.15815 0.0277883
482 2 0.684073 0.194323 0.122211
483 2 0.751403 0.168872 0.385496
484 2 0.389536 0.284856 0.874247
485 2 0.122492 0.277531 0.447305
486 2 0.464388 0.2904 0.283611
487 2 0.320837 0.231904 0.749699
488 2 0.855961 0.182581 0.422432
489 2 0.750771 0.601719 0.38598
490 2 0.408448 0.485114 0.507941
491 2 0.313987 0.0290922 0.586223
492 2 0.374395 0.425351 0.438058
493 2 0.326814 0.442896 0.650382
494 2 0.195564 0.475076 0.996912
495 2 0.309326 0.0925329 0.699138
496 2 0.193678 0.303922 0.779302
497 2 0.00989908 0.209135 0.758267
498 2 0.0308012 0.429112 0.41459
499 2 0.291974 0.354311 0.645992
500 2 0.610429 0.475888 0.0696639
501 2 0.9919 0.187147 0.0239661
502 2 0.0434949 0.11713 0.00467473
503 2 0.259089 0.00902019 0.0570197
504 2 0.729522 0.982232 0.438694
505 2 0.500658 0.0206808 0.818851
506 2 0.229459 0.304451 0.629928
507 2 0.374726 0.314948 0.735401
508 2 0.17909 0.339301 0.0335101
509 2 0.044005 0.560154 0.86259
510 2 0.323143 0.357768 0.947696
511 2 0.303811 0.243895 0.993199
512 2 0.960833 0.351294 0.2364
513 2 0.90672 0.363536 0.323789
514 2 0.647684 0.338658 0.955057
515 2 0.289345 0.0463698 0.346526
516 2 0.370921 0.362743 0.184838
517 2 0.115064 0.228517 0.895251
518 2 0.283252 0.532089 0.451548
519 2 0.143989 0.784113 0.352402
520 2 0.592071 0.449464 0.428078
521 2 0.326435 0.134545 0.331425
522 2 0.34979 0.836747 0.047821
523 2 0.032896 0.407827 0.459366
524 2 0.14019 0.336532 0.812583
525 2 0.385283 0.767316 0.204989
526 2 0.378557 0.956323 0.789451
527 2 0.141949 0.293494 0.526129
528 2 0.521101 0.442536 0.290297
529 2 0.605762 0.167426 0.172845
530 2 0.29809 0.96911 0.031085
531 2 0.103426 0.362355 0.0323019
532 2 0.495609 0.762539 0.430708
533 2 0.120199 0.534202 0.101028
534 2 0.193411 0.208874 0.273935
535 2 0.563397 0.205159 0.582696
536 2 0.928266 0.340692 0.22144
537 2 0.141604 0.131751 0.839913
538 2 0.603929 0.922447 0.280002
539 2 0.498043 0.0417308 0.379629
540 2 0.198394 0.103942 0.752544
541 2 0.920683 0.961517 0.805658
542 2 0.174789 0.373482 0.988407
543 2 0.229789 0.452851 0.33717
544 2 0.190563 0.207364 0.666409
545 2 0.329033 0.429658 0.984058
546 2 0.490633 0.417756 0.243001
547 2 0.382847 0.263856 0.654811
548 2 0.663572 0.361391 0.358566
549 2 0.724185 0.940857 0.743688
550 2 0.890707 0.204144 0.659811
551 2 0.26565 0.56184 0.209779
552 2 0.254899 0.393176 0.250931
553 2 0.784004 0.0918614 0.958135
554 2 0.592101 0.962566 0.937747
555 2 0.468015 0.393922 0.826331
556 2 0.200922 0.286119 0.0528789
557 2 0.278599 0.362253 0.858561
558 2 0.922031 0.40721 0.275811
559 2 0.580521 0.322318 0.305799
560 2 0.697194 0.113988 0.391575
561 2 0.835944 0.299485 0.756632
562 2 0.145382 0.426473 0.531444
563 2 0.307094 0.141233 0.523287
564 2 0.176123 0.0213689 0.314822
565 2 0.0875216 0.200131 0.10416
566 2 0.420067 0.599762 0.38798
567 2 0.419778 0.312645 0.649205
568 2 0.142457 0.892386 0.301747
569 2 0.974072 0.317657 0.335653
570 2 0.239533 0.072612 0.442765
571 2 0.417402 0.52964 0.930441
572 2 0.101022 0.280349 0.346615
573 2 0.550412 0.358705 0.421664
574 2 0.45884 0.427334 0.931877
575 2 0.982351 0.117592 0.978032
576 2 0.256526 0.110768 0.375828
577 2 0.80157 0.582833 0.365643
578 2 0.414755 0.889387 0.0769807
579 2 0.685948 0.166453 0.772281
580 2 0.0854692 0.310423 0.282688
581 2 0.571832 0.163566 0.538609
582 2 0.130641 0.196837 0.28384
583 2 0.279969 0.860432 0.180385
584 2 0.485229 0.143454 0.0402087
585 2 0.118037 0.540108 0.785418
586 2 0.350981 0.543021 0.430326
587 2 0.557841 0.479915 0.130142
588 2 0.0402044 0.576778 0.368819
589 2 0.900027 0.394108 0.89739
590 2 0.397513 0.820849 0.486834
591 2 0.285751 0.0862009 0.419085
592 2 0.107073 0.515487 0.0145248
593 2 0.0428082 0.828765 0.967784
594 2 0.106939 0.639605 0.690978
595 2 0.938594 0.886222 0.0151658
596 2 0.897416 0.163444 0.367709
597 2 0.128217 0.43137 0.258526
598 2 0.192471 0.671087 0.594739
599 2 0.109234 0.141785 0.857014
600 2 0.896184 0.298627 0.929857
601 2 0.438416 0.210857 0.351862
602 2 0.924753 0.350852 0.406007
603 2 0.430209 0.584105 0.0881803
604 2 0.301822 0.559856 0.197301
605 2 0.0399203 0.593312 0.0112327
606 2 0.625011 0.510983 0.0697109
607 2 0.406652 0.380919 0.442776
608 2 0.123741 0.583278 0.843752
609 2 0.179395 0.417472 0.316609
610 2 0.136746 0.334909 0.220304
611 2 0.271982 0.999013 0.0269247
612 2 0.211946 0.148993 0.0787426
613 2 0.364538 0.306462 0.837931
614 2 0.204429 0.261935 0.534867
615 2 0.136284 0.30865 0.714859
616 2 0.473966 0.94834 0.0629371
617 2 0.176171 0.268707 0.441567
618 2 0.970123 0.998324 0.0245101
619 2 0.169784 0.351882 0.213415
620 2 0.17678 0.530824 0.50271
621 2 0.301313 0.263192 0.245546
622 2 0.0842555 0.483412 0.335982
623 2 0.515605 0.630232 0.388205
624 2 0.412187 0.487844 0.233811
625 2 0.228492 0.319004 0.552728
626 2 0.0801749 0.114573 0.529988
627 2 0.388434 0.208043 0.919964
628 2 0.366893 0.848053 0.195738
629 2 0.780427 0.291033 0.44269
630 2 0.587286 0.178839 0.634172
631 2 0.472593 0.202188 0.813487
632 2 0.205541 0.217498 0.415429
633 2 0.0799414 0.307892 0.650021
634 2 0.718321 0.707361 0.166367
635 2 0.68166 0.418524 0.873678
636 2 0.299873 0.418632 0.603623
637 2 0.332201 0.279996 0.921694
638 2 0.156595 0.0310433 0.132225
639 2 0.1569 0.261751 0.0837262
640 2 0.359474 0.47114 0.476959
641 2 0.491066 0.0038298 0.492597
642 2 0.112527 0.400153 0.491555
643 2 0.437958 0.96015 0.47589
644 2 0.747402 0.25171 0.83151
645 2 0.360872 0.616819 0.20826
646 2 0.0448176 0.172379 0.625754
647 2 0.444273 0.0333187 0.348526
648 2 0.378649 0.454955 0.336085
649 2 0.13565 0.275648 0.304631
650 2 0.354848 0.0275683 0.237005
651 2 0.239115 0.355811 0.906283
652 2 0.127111 0.842541 0.968038
653 2 0.337085 0.131216 0.944722
654 2 0.252152 0.37566 0.381891
655 2 0.480419 0.333116 0.914671
656 2 0.162029 0.248608 0.723613
657 2 0.256096 0.138811 0.891225
658 2 0.198315 0.495749 0.918101
659 2 0.992804 0.00787971 0.998885
660 2 0.151687 0.461982 0.605929
661 2 0.333277 0.179402 0.899136
662 2 0.256928 0.35332 0.323741
663 2 0.755288 0.902338 0.389114
664 2 0.399576 0.286617 0.422794
665 2 0.474159 0.438087 0.320959
666 2 0.982907 0.666826 0.035233
667 2 0.274889 0.319381 0.405117
668 2 0.898519 0.295547 0.252844
669 2 0.327391 0.38582 0.830828
670 2 0.833299 0.1277 0.551068
671 2 0.142365 0.573298 0.383777
672 2 0.873632 0.576252 0.546062
673 2 0.0705953 0.522021 0.374892
674 2 0.535313 0.214022 0.346468
675 2 0.430528 0.0940192 0.209816
676 2 0.175122 0.376842 0.519565
677 2 0.177928 0.7956 0.0880807
678 2 0.0188825 0.648315 0.871977
679 2 0.280408 0.274213 0.290402
680 2 0.952339 0.330783 0.613914
681 2 0.907702 0.380381 0.604818
682 2 0.213718 0.111395 0.0200636
683 2 0.0744872 0.634069 0.441999
684 2 0.000367813 0.663566 0.176998
685 2 0.289117 0.961816 0.0809767
686 2 0.608324 0.395174 0.510149
687 2 0.433226 0.564855 0.930756
688 2 0.0578318 0.34287 0.690408
689 2 0.56049 0.240216 0.809093
690 2 0.0563822 0.0624988 0.534115
691 2 0.47779 0.206165 0.437262
692 2 0.596951 0.250044 0.523313
693 2 0.279791 0.343407 0.348446
694 2 0.210416 0.482215 0.348912
695 2 0.389138 0.254167 0.0683276
696 2 0.852927 0.114332 0.812162
697 2 0.048699 0.429453 0.285302
698 2 0.598036 0.936519 0.874806
699 2 0.272942 0.117304 0.938324
700 2 0.225416 0.316502 0.284151
701 2 0.597225 0.722882 0.710811
702 2 0.907858 0.345352 0.0569411
703 2 0.617723 0.434851 0.558068
704 2 0.375236 0.327899 0.456028
705 2 0.192539 0.0350048 0.392192
706 2 0.189868 0.261591 0.0293369
707 2 0.00294069 0.1684 0.884629
708 2 0.145192 0.501702 0.863803
709 2 0.101073 0.502696 0.0440835
710 2 0.247504 0.50475 0.530216
711 2 0.824385 0.908183 0.890261
712 2 0.303239 0.316924 0.651331
713 2 0.873614 0.24362 0.107733
714 2 0.349069 0.401876 0.340639
715 2 0.625669 0.0709425 0.322119
716 2 0.040501 0.542075 0.058959
717 2 0.236413 0.882878 0.353958
718 2 0.207588 0.87719 0.163754
719 2 0.0756964 0.339933 0.204561
720 2 0.0435122 0.368809 0.406751
721 2 0.118173 0.471521 0.593521
722 2 0.459442 0.342026 0.717528
723 2 0.16356 0.281318 0.786586
724 2 0.482359 0.0964815 0.748395
725 2 0.820503 0.717086 0.164598
726 2 0.49755 0.0820622 0.475124
727 2 0.10272 0.364572 0.295254
728 2 0.595124 0.0881446 0.0621515
729 2 0.23092 0.849183 0.582791
730 2 0.197686 0.207995 0.369849
731 2 0.392176 0.134493 0.985685
732 2 0.300771 0.15534 0.402607
733 2 0.511324 0.622395 0.313158
734 2 0.132103 0.393682 0.251807
735 2 0.0809267 0.23617 0.11233
736 2 0.924811 0.700026 0.481118
737 2 0.980899 0.780044 0.127614
738 2 0.225033 0.228864 0.487841
739 2 0.137825 0.158886 0.979142
740 2 0.422307 0.342901 0.402985
741 2 0.236841 0.79535 0.107668
742 2 0.454344 0.379257 0.305752
743 2 0.10439 0.304587 0.254236
744 2 0.431453 0.828258 0.0708513
745 2 0.995287 0.302151 0.481871
746 2 0.761562 0.420817 0.490455
747 2 0.351379 0.431096 0.290958
748 2 0.524034 0.143153 0.435906
749 2 0.926397 0.0730799 0.660287
750 2 0.063205 0.592646 0.0800067
751 2 0.837945 0.211311 0.438895
752 2 0.0815866 0.195612 0.344209
753 2 0.403912 0.290383 0.306192
754 2 0.903825 0.982125 0.956882
755 2 0.321717 0.0578746 0.986203
756 2 0.480804 0.452167 0.00838635
757 2 0.270017 0.200963 0.0798133
758 2 0.107199 0.282428 0.603562
759 2 0.434344 0.320124 0.620151
760 2 0.395511 0.12342 0.331993
761 2 0.0277921 0.280298 0.923327
762 2 0.484552 0.198274 0.081767
763 2 0.996306 0.140603 0.6297
764 2 0.107002 0.0988087 0.371745
765 2 0.932258 0.575136 0.0924029
766 2 0.354988 0.553139 0.376606
767 2 0.986201 0.0238892 0.517578
768 2 0.29035 0.405975 0.351189
769 2 0.0712212 0.351334 0.966434
770 2 0.430054 0.00407897 0.32818
771 2 0.512029 0.430383 0.320827
772 2 0.253822 0.645423 0.227832
773 2 0.232249 0.0376639 0.0618246
774 2 0.224368 0.594014 0.160397
775 2 0.2508 0.33996 0.369414
776 2 0.665968 0.295887 0.417512
777 2 0.0715127 0.305743 0.893289
778 2 0.091873 0.589797 0.957359
779 2 0.9669 0.263872 0.604889
780 2 0.824229 0.398699 0.0904441
781 2 0.342103 0.625861 0.614693
782 2 0.976636 0.194622 0.313772
783 2 0.310326 0.970791 0.414079
784 2 0.869947 0.0789704 0.249911
785 2 0.443274 0.331386 0.486197
786 2 0.983604 0.862999 0.805834
787 2 0.131371 0.059181 0.448387
788 2 0.498152 0.99803 0.11322
789 2 0.151377 0.39537 0.840185
790 2 0.382375 0.132789 0.631055
791 2 0.256673 0.994109 0.118097
792 2 0.129966 0.422415 0.440107
793 2 0.238779 0.43774 0.0113053
794 2 0.478818 0.114847 0.466882
795 2 0.558192 0.0350184 0.562862
796 2 0.194422 0.161838 0.107837
797 2 0.414915 0.249578 0.251504
798 2 0.393276 0.212869 0.997408
799 2 0.0500844 0.478702 0.951435
800 2 0.0908798 0.255457 0.947706
801 2 0.465831 0.058447 0.476882
802 2 0.400955 0.607533 0.432689
803 2 0.933793 0.498447 0.976092
804 2 0.382008 0.0408722 0.256642
805 2 0.719348 0.144696 0.0790384
806 2 0.548122 0.277919 0.372053
807 2 0.12191 0.310338 0.391974
808 2 0.849822 0.343587 0.0243147
809 2 0.982221 0.142649 0.490621
810 2 0.139506 0.596338 0.429833
811 2 0.179643 0.318019 0.983638
812 2 0.214164 0.183617 0.0661853
813 2 0.755661 0.195246 0.195189
814 2 0.255872 0.182203 0.377827
815 2 0.144707 0.999185 0.436353
816 2 0.559053 0.164324 0.813589
817 2 0.369211 0.476554 0.91454
818 2 0.480957 0.390829 0.399843
819 2 0.0440654 0.00650623 0.519189
820 2 0.553839 0.612539 0.0810586
821 2 0.169212 0.129375 0.31196
822 2 0.256808 0.464429 0.944711
823 2 0.359221 0.7314 0.52116
824 2 0.297314 0.944881 0.109853
825 2 0.263524 0.176973 0.744234
826 2 0.259232 0.248986 0.271868
827 2 0.461302 0.272702 0.328547
828 2 0.326985 0.732195 0.164066
829 2 0.153744 0.267484 0.246566
830 2 0.919933 0.528586 0.438676
831 2 0.175738 0.197384 0.427537
832 2 0.873158 0.132636 0.658658
833 2 0.437098 0.153534 0.662987
834 2 0.93959 0.195677 0.0803106
835 2 0.0416264 0.338096 0.317233
836 2 0.547279 0.126193 0.107017
837 2 0.0530906 0.970436 0.0401903
838 2 0.311148 0.470578 0.946625
839 2 0.963472 0.8654 0.0342661
840 2 0.225858 0.095586 0.0818813
841 2 0.241393 0.294629 0.239396
842 2 0.185506 0.158232 0.295077
843 2 0.0710113 0.589097 0.468697
844 2 0.302639 0.294694 0.227665
845 2 0.908948 0.923251 0.606941
846 2 0.363773 0.343174 0.35047
847 2 0.504685 0.254276 0.428294
848 2 0.2381 0.0978623 0.806926
849 2 0.304168 0.369987 0.360577
850 2 0.32915 0.130769 0.414341
851 2 0.692821 0.326065 0.753004
852 2 0.975524 0.055424 0.374893
853 2 0.25645 0.444483 0.751993
854 2 0.322902 0.238209 0.692732
855 2 0.205951 0.00521542 0.409783
856 2 0.289895 5.00209e-05 0.913688
857 2 0.730466 0.0415591 0.0145111
858 2 0.176827 0.161525 0.712724
859 2 0.881131 0.370826 0.0636713
860 2 0.58875 0.230832 0.593262
861 2 0.256238 0.177089 0.618432
862 2 0.149902 0.449431 0.235916
863 2 0.546173 0.306085 0.507905
864 2 0.617159 0.19108 0.128284
865 2 0.0512181 0.80009 0.696531
866 2 0.290043 0.120131 0.789536
867 2 0.329181 0.403195 0.6936
868 2 0.172677 0.899177 0.378091
869 2 0.989189 0.964441 0.073517
870 2 0.122246 0.441488 0.386642
871 2 0.947387 0.599499 0.696331
872 2 0.559621 0.0817236 0.92518
873 2 0.907101 0.489853 0.260084
874 2 0.195087 0.628039 0.118614
875 2 0.366677 0.825731 0.0200065
876 2 0.109413 0.328395 0.303636
877 2 0.0360653 0.622875 0.314066
878 2 0.952866 0.923072 0.472217
879 2 0.123425 0.388739 0.194241
880 2 0.0249359 0.242074 0.00767284
881 2 0.0447152 0.351144 0.610063
882 2 0.588325 0.954859 0.29001
883 2 0.706446 0.0762683 0.494998
884 2 0.988286 0.288868 0.318189
885 2 0.170823 0.961389 0.821999
886 2 0.201394 0.257886 0.502184
887 2 0.65437 0.929911 0.503799
888 2 0.194597 0.961213 0.017003
889 2 0.00349874 0.234542 0.952087
890 2 0.454936 0.147965 0.421404
891 2 0.253452 0.400069 0.356696
892 2 0.174529 0.984605 0.357479
893 2 0.135108 0.0420213 0.350355
894 2 0.312137 0.556195 0.504622
895 2 0.140652 0.26551 0.676136
896 2 0.97262 0.9371 0.616429
897 2 0.377805 0.481472 0.218105
898 2 0.22936 0.428538 0.362631
899 2 0.427192 0.351113 0.434431
900 2 0.4751 0.872433 0.553143
901 2 0.250371 0.533438 0.349789
902 2 0.0298601 0.232163 0.975516
903 2 0.575864 0.212844 0.394425