 vasp.6.5.0 16Dec24 (build Jan 20 2025 08:32:48) complex                         
 executed on        HPECrayEX_GCC date 2025.07.22  13:42:58
 running  128 mpi-ranks, with    1 threads/rank, on    1 nodes
 distrk:  each k-point on  128 cores,    1 groups
 distr:  one band on NCORE=  16 cores,    8 groups


--------------------------------------------------------------------------------------------------------


 INCAR:
   SYSTEM = a-Si SPC
   NCORE = 16
   ISTART = 1
   ICHARG = 1
   ISPIN = 1
   ISYM = 1
   EDIFF = 1E-6
   NELM = 150
   EDIFFG = -0.01
   NSW = 0
   ISIF = 2
   IBRION = -1
   PREC = Accurate
   ENCUT = 1200
   KSPACING = 0.23
   KGAMMA = .TRUE.
   METAGGA = SCAN
   LASPH = .TRUE.
   LDIAG = .FALSE.
   LMIXTAU = .TRUE.
   ADDGRID = .TRUE.
   ALGO = Normal
   ISMEAR = 0
   SIGMA = 0.1
   LORBIT = 11
   NEDOS = 2000
   LWAVE = .FALSE.
   LCHARG = .FALSE.

 POTCAR:    PAW_PBE H 15Jun2001                   
 POTCAR:    PAW_PBE Si 05Jan2001                  
 POTCAR:    PAW_PBE H 15Jun2001                   
   SHA256 =  030f79b5d3ab3cf0e668861823c8fb652ff669f3e15e46930bd03bfd63a607b6 H/POTCAR              
   COPYR  = (c) Copyright 15Jun2001 Georg Kresse                                                    
   COPYR  = This file is part of the software VASP. Any use, copying, and all other rights are regul
   COPYR  = If you do not have a valid VASP license, you may not use, copy or distribute this file. 
   VRHFIN =H: ultrasoft test                                                                        
   LEXCH  = PE                                                                                      
   EATOM  =    12.4884 eV,    0.9179 Ry                                                             
                                                                                                    
   TITEL  = PAW_PBE H 15Jun2001                                                                     
   LULTRA =        F    use ultrasoft PP ?                                                          
   IUNSCR =        0    unscreen: 0-lin 1-nonlin 2-no                                               
   RPACOR =    0.000    partial core radius                                                         
   POMASS =    1.000; ZVAL   =    1.000    mass and valenz                                          
   RCORE  =    1.100    outmost cutoff radius                                                       
   RWIGS  =    0.700; RWIGS  =    0.370    wigner-seitz radius (au A)                               
   ENMAX  =  250.000; ENMIN  =  200.000 eV                                                          
   RCLOC  =    0.701    cutoff for local pot                                                        
   LCOR   =        T    correct aug charges                                                         
   LPAW   =        T    paw PP                                                                      
   EAUG   =  400.000                                                                                
   RMAX   =    1.123    core radius for proj-oper                                                   
   RAUG   =    1.200    factor for augmentation sphere                                              
   RDEP   =    1.112    radius for radial grids                                                     
   RDEPT  =    0.926    core radius for aug-charge                                                  
                                                                                                    
   Atomic configuration                                                                             
    2 entries                                                                                       
     n  l   j            E        occ.                                                              
     1  0  0.50        -6.4927   1.0000                                                             
     2  1  0.50        -3.4015   0.0000                                                             
   Description                                                                                      
     l       E           TYP  RCUT    TYP  RCUT                                                     
     0     -6.4927494     23  1.100                                                                 
     0      6.8029130     23  1.100                                                                 
     1     -4.0817478     23  1.100                                                                 
  local pseudopotential read in
  atomic valenz-charges read in
  non local Contribution for L=           0  read in
    real space projection operators read in
  non local Contribution for L=           0  read in
    real space projection operators read in
  non local Contribution for L=           1  read in
    real space projection operators read in
    PAW grid and wavefunctions read in

   number of l-projection  operators is LMAX  =           3
   number of lm-projection operators is LMMAX =           5

 POTCAR:    PAW_PBE Si 05Jan2001                  
   SHA256 =  79d9987ad8750f624c4d6acb2a16d13abf6a777132adc04dc6c8399be72b42bb Si/POTCAR             
   COPYR  = (c) Copyright 05Jan2001 Georg Kresse                                                    
   COPYR  = This file is part of the software VASP. Any use, copying, and all other rights are regul
   COPYR  = If you do not have a valid VASP license, you may not use, copy or distribute this file. 
   VRHFIN =Si: s2p2                                                                                 
   LEXCH  = PE                                                                                      
   EATOM  =   103.0669 eV,    7.5752 Ry                                                             
                                                                                                    
   TITEL  = PAW_PBE Si 05Jan2001                                                                    
   LULTRA =        F    use ultrasoft PP ?                                                          
   IUNSCR =        1    unscreen: 0-lin 1-nonlin 2-no                                               
   RPACOR =    1.500    partial core radius                                                         
   POMASS =   28.085; ZVAL   =    4.000    mass and valenz                                          
   RCORE  =    1.900    outmost cutoff radius                                                       
   RWIGS  =    2.480; RWIGS  =    1.312    wigner-seitz radius (au A)                               
   ENMAX  =  245.345; ENMIN  =  184.009 eV                                                          
   ICORE  =        2    local potential                                                             
   LCOR   =        T    correct aug charges                                                         
   LPAW   =        T    paw PP                                                                      
   EAUG   =  322.069                                                                                
   DEXC   =    0.000                                                                                
   RMAX   =    1.950    core radius for proj-oper                                                   
   RAUG   =    1.300    factor for augmentation sphere                                              
   RDEP   =    1.993    radius for radial grids                                                     
   RDEPT  =    1.837    core radius for aug-charge                                                  
                                                                                                    
   Atomic configuration                                                                             
    6 entries                                                                                       
     n  l   j            E        occ.                                                              
     1  0  0.50     -1785.8828   2.0000                                                             
     2  0  0.50      -139.4969   2.0000                                                             
     2  1  1.50       -95.5546   6.0000                                                             
     3  0  0.50       -10.8127   2.0000                                                             
     3  1  0.50        -4.0811   2.0000                                                             
     3  2  1.50        -4.0817   0.0000                                                             
   Description                                                                                      
     l       E           TYP  RCUT    TYP  RCUT                                                     
     0    -10.8127223     23  1.900                                                                 
     0     -7.6451159     23  1.900                                                                 
     1     -4.0811372     23  1.900                                                                 
     1      2.4879257     23  1.900                                                                 
     2     -4.0817478      7  1.900                                                                 
  local pseudopotential read in
  partial core-charges read in
  partial kinetic energy density read in
  atomic valenz-charges read in
  non local Contribution for L=           0  read in
    real space projection operators read in
  non local Contribution for L=           0  read in
    real space projection operators read in
  non local Contribution for L=           1  read in
    real space projection operators read in
  non local Contribution for L=           1  read in
    real space projection operators read in
    PAW grid and wavefunctions read in

   number of l-projection  operators is LMAX  =           4
   number of lm-projection operators is LMMAX =           8

 -----------------------------------------------------------------------------
|                                                                             |
|               ----> ADVICE to this user running VASP <----                  |
|                                                                             |
|     You have a (more or less) 'large supercell' and for larger cells it     |
|     might be more efficient to use real-space projection operators.         |
|     Therefore, try LREAL= Auto in the INCAR file.                           |
|     Mind: For very accurate calculation, you might also keep the            |
|     reciprocal projection scheme (i.e. LREAL=.FALSE.).                      |
|                                                                             |
 -----------------------------------------------------------------------------

 -----------------------------------------------------------------------------
|                                                                             |
|               ----> ADVICE to this user running VASP <----                  |
|                                                                             |
|     You enforced a specific xc type in the INCAR file but a different       |
|     type was found in the POTCAR file.                                      |
|     I HOPE YOU KNOW WHAT YOU ARE DOING!                                     |
|                                                                             |
 -----------------------------------------------------------------------------

  PAW_PBE H 15Jun2001                   :
 energy of atom  1       EATOM=  -12.4884
 kinetic energy error for atom=    0.0000 (will be added to EATOM!!)
  PAW_PBE Si 05Jan2001                  :
 energy of atom  2       EATOM= -103.0669
 kinetic energy error for atom=    0.0001 (will be added to EATOM!!)


 POSCAR:  H Si
  positions in cartesian coordinates
  No initial velocities read in


 exchange-correlation table for SCAN
   RHO(1)=    0.500       N(1)  =     2000
   RHO(2)=  100.500       N(2)  =     4000



--------------------------------------------------------------------------------------------------------


 ion  position               nearest neighbor table
   1  0.286  0.903  0.531-   3 0.82
   2  0.940  0.857  0.268-  32 0.80
   3  0.259  0.894  0.437-   1 0.82
   4  0.556  0.907  0.672-  35 0.86
   5  0.139  0.025  0.109-  25 0.84
   6  0.720  0.901  0.230-  36 0.77
   7  0.987  0.955  0.631-  17 0.77
   8  0.921  0.738  0.074-  94 1.53
   9  0.128  0.768  0.232-  95 1.51
  10  0.587  0.980  0.383-  84 1.50
  11  0.813  0.057  0.667-  59 1.53
  12  0.251  0.864  0.091-  27 0.79
  13  0.835  0.706  0.487-  92 1.51
  14  0.121  0.085  0.792-  72 1.52
  15  0.714  0.010  0.942-  64 1.48
  16  0.272  0.108  0.541-  58 1.42
  17  0.938  0.939  0.616-   7 0.77
  18  0.541  0.733  0.912-  63 1.52
  19  0.349  0.891  0.882-  26 0.77
  20  0.048  0.743  0.586-  90 1.52
  21  0.328  0.039  0.304-  58 1.49
  22  0.717  0.022  0.474-  84 1.39
  23  0.794  0.871  0.546-  45 0.76
  24  0.356  0.773  0.215-  76 1.45
  25  0.082  0.022  0.100-   5 0.84
  26  0.361  0.852  0.818-  19 0.77
  27  0.241  0.915  0.121-  12 0.79
  28  0.093  0.963  0.459-  41 0.81
  29  0.294  0.076  0.042-  82 1.44
  30  0.902  0.935  0.934-  33 0.75
  31  0.604  0.722  0.337-  34 0.70
  32  0.921  0.821  0.340-   2 0.80
  33  0.877  0.957  0.859-  30 0.75
  34  0.581  0.763  0.354-  31 0.70
  35  0.522  0.867  0.724-   4 0.86
  36  0.706  0.860  0.171-   6 0.77
  37  0.484  0.017  0.096-  43 0.79
  38  0.597  0.867  0.023-  39 0.74
  39  0.582  0.827  0.969-  38 0.74
  40  0.656  0.671  0.660-  78 1.42
  41  0.105  0.941  0.363-  28 0.81
  42  0.978  0.070  0.297-  80 1.47
  43  0.480  0.045  0.185-  37 0.79
  44  0.338  0.058  0.757-  82 1.45
  45  0.836  0.849  0.589-  23 0.76
  46  0.636  0.298  0.218-  55 2.33  56 2.33  62 2.37  74 2.56
  47  0.275  0.385  0.253-  65 2.25  51 2.32  77 2.36  60 2.40
  48  0.960  0.438  0.843-  85 2.17  70 2.28  50 2.50  86 2.52
  49  0.142  0.303  0.614-  86 2.31  61 2.37  72 2.43  60 2.47
  50  0.827  0.439  0.052-  52 2.35  55 2.37  68 2.46  48 2.50
  51  0.293  0.493  0.474-  61 2.30  47 2.32  67 2.36  54 2.52
  52  0.885  0.545  0.258-  92 2.32  50 2.35  87 2.42  94 2.42
  53  0.548  0.511  0.950-  68 2.22  75 2.27  62 2.32  63 2.47
  54  0.137  0.559  0.410-  90 2.30  95 2.34  87 2.36  51 2.52
  55  0.795  0.297  0.194-  46 2.33  50 2.37  89 2.39  93 2.41  80 3.12
  56  0.592  0.208  0.977-  46 2.33  71 2.35  81 2.39  64 2.51
  57  0.423  0.230  0.466-  58 2.32  65 2.34  79 2.41  74 2.43
  58  0.307  0.133  0.372-  16 1.42  21 1.49  57 2.32  60 2.41
  59  0.823  0.159  0.699-  11 1.53  89 2.40  93 2.43  71 2.46
  60  0.191  0.247  0.320-  66 2.37  47 2.40  58 2.41  49 2.47
  61  0.257  0.404  0.716-  51 2.30  77 2.34  49 2.37  79 2.47
  62  0.539  0.429  0.213-  65 2.26  53 2.32  69 2.33  46 2.37
  63  0.467  0.659  0.919-  18 1.52  91 2.23  76 2.34  53 2.47
  64  0.706  0.088  0.066-  15 1.48  89 2.29  84 2.34  56 2.51
  65  0.419  0.332  0.225-  47 2.25  62 2.26  57 2.34  81 2.43
  66  0.088  0.235  0.079-  72 2.31  60 2.37  80 2.43  70 2.50
  67  0.404  0.608  0.428-  76 2.27  91 2.28  51 2.36  69 2.43
  68  0.696  0.499  0.883-  88 2.18  53 2.22  78 2.35  50 2.46
  69  0.544  0.520  0.467-  62 2.33  75 2.36  67 2.43  78 2.59
  70  0.066  0.404  0.055-  48 2.28  87 2.31  77 2.40  66 2.50
  71  0.669  0.227  0.707-  88 2.29  74 2.31  56 2.35  59 2.46
  72  0.160  0.180  0.829-  14 1.52  66 2.31  82 2.42  49 2.43
  73  0.232  0.703  0.790-  83 2.27  91 2.34  90 2.36
  74  0.584  0.187  0.460-  71 2.31  84 2.32  57 2.43  46 2.56
  75  0.512  0.424  0.711-  79 2.22  53 2.27  88 2.35  69 2.36
  76  0.373  0.678  0.167-  24 1.45  67 2.27  83 2.27  63 2.34
  77  0.218  0.459  0.997-  61 2.34  47 2.36  83 2.37  70 2.40
  78  0.690  0.582  0.618-  40 1.42  68 2.35  92 2.41  69 2.59  88 2.98
  79  0.403  0.318  0.733-  75 2.22  81 2.35  57 2.41  61 2.47
  80  0.959  0.161  0.224-  42 1.47  89 2.38  93 2.39  66 2.43  55 3.12
  81  0.429  0.224  0.980-  82 2.28  79 2.35  56 2.39  65 2.43
  82  0.315  0.128  0.886-  29 1.44  44 1.45  81 2.28  72 2.42
  83  0.246  0.617  0.040-  76 2.27  73 2.27  95 2.30  77 2.37
  84  0.654  0.056  0.352-  22 1.39  10 1.50  74 2.32  64 2.34
  85  0.962  0.581  0.767-  48 2.17  94 2.42  92 2.47  90 2.48
  86  0.993  0.350  0.564-  49 2.31  87 2.38  93 2.39  48 2.52
  87  0.020  0.455  0.330-  70 2.31  54 2.36  86 2.38  52 2.42
  88  0.668  0.384  0.705-  68 2.18  71 2.29  75 2.35  78 2.98
  89  0.837  0.170  0.015-  64 2.29  80 2.38  55 2.39  59 2.40
  90  0.099  0.656  0.638-  20 1.52  54 2.30  73 2.36  85 2.48
  91  0.381  0.689  0.682-  63 2.23  67 2.28  73 2.34
  92  0.847  0.606  0.531-  13 1.51  52 2.32  78 2.41  85 2.47
  93  0.881  0.246  0.449-  86 2.39  80 2.39  55 2.41  59 2.43
  94  0.970  0.645  0.063-   8 1.53  95 2.35  52 2.42  85 2.42
  95  0.117  0.668  0.185-   9 1.51  83 2.30  54 2.34  94 2.35

  LATTYP: Found a simple tetragonal cell.
 ALAT       =    14.5871822212
 C/A-ratio  =     0.5178994426
  
  Lattice vectors:
  
 A1 = (  14.5871822212,   0.0000000000,   0.0000000000)
 A2 = (   0.0000000000,  14.5871822212,   0.0000000000)
 A3 = (   0.0000000000,   0.0000000000,   7.5546935416)


Analysis of symmetry for initial positions (statically):
=====================================================================
 Subroutine PRICEL returns:
 Original cell was already a primitive cell.
 

 Routine SETGRP: Setting up the symmetry group for a 
 simple tetragonal supercell.


 Subroutine GETGRP returns: Found  1 space group operations
 (whereof  1 operations were pure point group operations)
 out of a pool of 16 trial point group operations.


The static configuration has the point symmetry C_1 .


Analysis of symmetry for dynamics (positions and initial velocities):
=====================================================================
 Subroutine PRICEL returns:
 Original cell was already a primitive cell.
 

 Routine SETGRP: Setting up the symmetry group for a 
 simple tetragonal supercell.


 Subroutine GETGRP returns: Found  1 space group operations
 (whereof  1 operations were pure point group operations)
 out of a pool of 16 trial point group operations.


The dynamic configuration has the point symmetry C_1 .


 Subroutine INISYM returns: Found  1 space group operations
 (whereof  1 operations are pure point group operations),
 and found     1 'primitive' translations


----------------------------------------------------------------------------------------

                                     Primitive cell                                     

  volume of cell :    1607.5322

  direct lattice vectors                    reciprocal lattice vectors
    14.587182221  0.000000000  0.000000000     0.068553336  0.000000000  0.000000000
     0.000000000 14.587182221  0.000000000     0.000000000  0.068553336  0.000000000
     0.000000000  0.000000000  7.554693542     0.000000000  0.000000000  0.132368043

  length of vectors
    14.587182221 14.587182221  7.554693542     0.068553336  0.068553336  0.132368043

  position of ions in fractional coordinates (direct lattice)
     0.286051818  0.902998249  0.530766732
     0.939681139  0.857218331  0.268282226
     0.259272829  0.894189145  0.436769537
     0.555553491  0.907323964  0.671517643
     0.139244164  0.024547373  0.109175044
     0.719995119  0.901229573  0.229514274
     0.987030928  0.955160482  0.631170540
     0.921418530  0.737976659  0.073532698
     0.127742971  0.767900190  0.231679815
     0.586714409  0.979969934  0.383419921
     0.812782059  0.056509680  0.666614731
     0.251476944  0.864121652  0.091480614
     0.835432081  0.705818289  0.487400313
     0.120679921  0.084764143  0.792468942
     0.714373746  0.009651693  0.942128223
     0.272381598  0.107571838  0.541112618
     0.937597117  0.938769379  0.615634503
     0.540769278  0.732636354  0.912154803
     0.349338887  0.891172798  0.882244920
     0.048374730  0.743371807  0.585718001
     0.327715794  0.038869878  0.304242652
     0.716738836  0.022123875  0.473882889
     0.794080709  0.870593087  0.546251145
     0.355801410  0.772849741  0.214919373
     0.081677872  0.021550975  0.100416515
     0.360507596  0.851850605  0.818391900
     0.241116478  0.914714014  0.121000673
     0.092802707  0.963263486  0.458996779
     0.294097238  0.076428743  0.042066299
     0.902415545  0.934731588  0.934141135
     0.604253780  0.722044864  0.337187734
     0.921240291  0.821495188  0.340074682
     0.877002824  0.956997711  0.858934908
     0.580565175  0.762875231  0.354210265
     0.521882149  0.866877496  0.724071727
     0.706147345  0.860056439  0.170643586
     0.483737016  0.016983609  0.095766691
     0.596874014  0.866685547  0.023337413
     0.581509840  0.827150838  0.969217343
     0.655989612  0.671233817  0.659971179
     0.104606906  0.940928809  0.363153050
     0.978064151  0.069513768  0.296509711
     0.480348425  0.044783221  0.185062437
     0.337614210  0.057847224  0.757469508
     0.836103904  0.849060484  0.588990139
     0.635831503  0.298002721  0.217951925
     0.274850889  0.384737087  0.252613821
     0.959753555  0.437968067  0.843282387
     0.142095298  0.302676688  0.614182425
     0.826924612  0.438938782  0.052123491
     0.293293107  0.493267986  0.474375298
     0.885160671  0.544510919  0.258148129
     0.547898140  0.511076086  0.950471381
     0.136821490  0.558889296  0.410441533
     0.795026745  0.297399452  0.194318935
     0.591953255  0.207701525  0.977282528
     0.422996704  0.230381711  0.466003019
     0.306831020  0.132863220  0.371938317
     0.823215877  0.159307669  0.699284487
     0.190940235  0.247306159  0.319889879
     0.257131908  0.404084895  0.715907266
     0.539403010  0.428814826  0.213097989
     0.467379505  0.659038864  0.918950578
     0.706099358  0.087929936  0.066402958
     0.418905441  0.331598655  0.225376449
     0.088051961  0.234558666  0.078841583
     0.404437259  0.608447188  0.428050454
     0.695603842  0.498830404  0.883322396
     0.544153756  0.519712436  0.466748251
     0.065827724  0.404013600  0.054894351
     0.668820054  0.227340000  0.706752692
     0.160095347  0.179675551  0.828504818
     0.232153815  0.702952760  0.790487393
     0.583883157  0.187109475  0.460070284
     0.512189392  0.424104526  0.710967291
     0.372880102  0.677912283  0.166917426
     0.217884438  0.458597822  0.997246334
     0.690476053  0.582495637  0.618015804
     0.403078532  0.318190993  0.732912589
     0.958958337  0.161380037  0.224177194
     0.428991008  0.224287320  0.979923270
     0.315104037  0.128479920  0.885716934
     0.245695841  0.616816865  0.040155567
     0.653795219  0.055865347  0.352237981
     0.961631917  0.581344626  0.767320338
     0.993056766  0.349874288  0.564372330
     0.019844820  0.455332627  0.329632167
     0.667945999  0.384302459  0.704798940
     0.837317298  0.169508406  0.014763802
     0.098729829  0.656054737  0.638158249
     0.381486974  0.689255803  0.681801316
     0.847497468  0.605836677  0.531383567
     0.880917219  0.246405368  0.449123446
     0.970468442  0.645073864  0.063291647
     0.117012318  0.667530566  0.185155095

  ion indices of the primitive-cell ions
   primitive index   ion index
                 1           1
                 2           2
                 3           3
                 4           4
                 5           5
                 6           6
                 7           7
                 8           8
                 9           9
                10          10
                11          11
                12          12
                13          13
                14          14
                15          15
                16          16
                17          17
                18          18
                19          19
                20          20
                21          21
                22          22
                23          23
                24          24
                25          25
                26          26
                27          27
                28          28
                29          29
                30          30
                31          31
                32          32
                33          33
                34          34
                35          35
                36          36
                37          37
                38          38
                39          39
                40          40
                41          41
                42          42
                43          43
                44          44
                45          45
                46          46
                47          47
                48          48
                49          49
                50          50
                51          51
                52          52
                53          53
                54          54
                55          55
                56          56
                57          57
                58          58
                59          59
                60          60
                61          61
                62          62
                63          63
                64          64
                65          65
                66          66
                67          67
                68          68
                69          69
                70          70
                71          71
                72          72
                73          73
                74          74
                75          75
                76          76
                77          77
                78          78
                79          79
                80          80
                81          81
                82          82
                83          83
                84          84
                85          85
                86          86
                87          87
                88          88
                89          89
                90          90
                91          91
                92          92
                93          93
                94          94
                95          95

----------------------------------------------------------------------------------------


 -----------------------------------------------------------------------------
|                                                                             |
|           W    W    AA    RRRRR   N    N  II  N    N   GGGG   !!!           |
|           W    W   A  A   R    R  NN   N  II  NN   N  G    G  !!!           |
|           W    W  A    A  R    R  N N  N  II  N N  N  G       !!!           |
|           W WW W  AAAAAA  RRRRR   N  N N  II  N  N N  G  GGG   !            |
|           WW  WW  A    A  R   R   N   NN  II  N   NN  G    G                |
|           W    W  A    A  R    R  N    N  II  N    N   GGGG   !!!           |
|                                                                             |
|     The requested file  could not be found or opened for reading            |
|     k-point information. Automatic k-point generation is used as a          |
|     fallback, which may lead to unwanted results.                           |
|                                                                             |
 -----------------------------------------------------------------------------



Automatic generation of k-mesh.
 Grid dimensions derived from KSPACING:
 generate k-points for:    2    2    4

 Generating k-lattice:

  Cartesian coordinates                     Fractional coordinates (reciprocal lattice)
     0.034276668  0.000000000  0.000000000     0.500000000  0.000000000  0.000000000
     0.000000000  0.034276668  0.000000000     0.000000000  0.500000000  0.000000000
     0.000000000  0.000000000  0.033092011     0.000000000  0.000000000  0.250000000

  Length of vectors
     0.034276668  0.034276668  0.033092011

  Shift w.r.t. Gamma in fractional coordinates (k-lattice)
     0.000000000  0.000000000  0.000000000

 
 Subroutine IBZKPT returns following result:
 ===========================================
 
 Found     12 irreducible k-points:
 
 Following reciprocal coordinates:
            Coordinates               Weight
  0.000000  0.000000  0.000000      1.000000
  0.500000  0.000000  0.000000      1.000000
  0.000000  0.500000  0.000000      1.000000
  0.500000  0.500000  0.000000      1.000000
  0.000000  0.000000  0.250000      2.000000
  0.500000  0.000000  0.250000      2.000000
  0.000000  0.500000  0.250000      2.000000
  0.500000  0.500000  0.250000      2.000000
  0.000000  0.000000  0.500000      1.000000
  0.500000  0.000000  0.500000      1.000000
  0.000000  0.500000  0.500000      1.000000
  0.500000  0.500000  0.500000      1.000000
 
 Following cartesian coordinates:
            Coordinates               Weight
  0.000000  0.000000  0.000000      1.000000
  0.034277  0.000000  0.000000      1.000000
  0.000000  0.034277  0.000000      1.000000
  0.034277  0.034277  0.000000      1.000000
  0.000000  0.000000  0.033092      2.000000
  0.034277  0.000000  0.033092      2.000000
  0.000000  0.034277  0.033092      2.000000
  0.034277  0.034277  0.033092      2.000000
  0.000000  0.000000  0.066184      1.000000
  0.034277  0.000000  0.066184      1.000000
  0.000000  0.034277  0.066184      1.000000
  0.034277  0.034277  0.066184      1.000000
 


--------------------------------------------------------------------------------------------------------




 Dimension of arrays:
   k-points           NKPTS =     12   k-points in BZ     NKDIM =     12   number of bands    NBANDS=    176
   number of dos      NEDOS =   2000   number of ions     NIONS =     95
   non local maximal  LDIM  =      4   non local SUM 2l+1 LMDIM =      8
   total plane-waves  NPLWV = ******
   max r-space proj   IRMAX =      1   max aug-charges    IRDMAX= 422811
   dimension x,y,z NGX =   168 NGY =  168 NGZ =   90
   dimension x,y,z NGXF=   336 NGYF=  336 NGZF=  180
   support grid    NGXF=   672 NGYF=  672 NGZF=  360
   ions per type =              45  50
   NGX,Y,Z   is equivalent  to a cutoff of  19.15, 19.15, 19.81 a.u.
   NGXF,Y,Z  is equivalent  to a cutoff of  38.29, 38.29, 39.61 a.u.

 SYSTEM =  a-Si SPC                                
 POSCAR =   H Si                                   

 Startparameter for this run:
   NWRITE =      2    write-flag & timer
   PREC   = accura    normal or accurate (medium, high low for compatibility)
   ISTART =      0    job   : 0-new  1-cont  2-samecut
   ICHARG =      1    charge: 1-file 2-atom 10-const
   ISPIN  =      1    spin polarized calculation?
   LNONCOLLINEAR =      F non collinear calculations
   LSORBIT =      F    spin-orbit coupling
   INIWAV =      1    electr: 0-lowe 1-rand  2-diag
   LASPH  =      T    aspherical Exc in radial PAW
 Electronic Relaxation 1
   ENCUT  = 1200.0 eV  88.20 Ry    9.39 a.u.  41.20 41.20 21.34*2*pi/ulx,y,z
   ENINI  = 1200.0     initial cutoff
   ENAUG  =  400.0 eV  augmentation charge cutoff
   NELM   =    150;   NELMIN=  2; NELMDL=  0     # of ELM steps 
   EDIFF  = 0.1E-05   stopping-criterion for ELM
   LREAL  =      F    real-space projection
   NLSPLINE    = F    spline interpolate recip. space projectors
   LCOMPAT=      F    compatible to vasp.4.4
   GGA_COMPAT  = T    GGA compatible to vasp.4.4-vasp.4.6
   LMAXPAW     = -100 max onsite density
   LMAXMIX     =    2 max onsite mixed and CHGCAR
   VOSKOWN=      0    Vosko Wilk Nusair interpolation
   ROPT   =    0.00000   0.00000
 Ionic relaxation
   EDIFFG = -.1E-01   stopping-criterion for IOM
   NSW    =      0    number of steps for IOM
   NBLOCK =      1;   KBLOCK =      1    inner block; outer block 
   IBRION =     -1    ionic relax: 0-MD 1-quasi-New 2-CG
   NFREE  =      0    steps in history (QN), initial steepest desc. (CG)
   ISIF   =      2    stress and relaxation
   IWAVPR =     10    prediction:  0-non 1-charg 2-wave 3-comb
   ISYM   =      1    0-nonsym 1-usesym 2-fastsym
   LCORR  =      T    Harris-Foulkes like correction to forces

   POTIM  = 0.5000    time-step for ionic-motion
   TEIN   =    0.0    initial temperature
   TEBEG  =    0.0;   TEEND  =   0.0 temperature during run
   SMASS  =  -3.00    Nose mass-parameter (am)
   estimated Nose-frequenzy (Omega)   =  0.10E-29 period in steps = 0.13E+47 mass=  -0.486E-26a.u.
   SCALEE = 1.0000    scale energy and forces
   NPACO  =    256;   APACO  = 10.0  distance and # of slots for P.C.
   PSTRESS=    0.0 pullay stress

  Mass of Ions in am
   POMASS =   1.00 28.09
  Ionic Valenz
   ZVAL   =   1.00  4.00
  Atomic Wigner-Seitz radii
   RWIGS  =  -1.00 -1.00
  virtual crystal weights 
   VCA    =   1.00  1.00
   NELECT =     245.0000    total number of electrons
   NUPDOWN=      -1.0000    fix difference up-down

 DOS related values:
   EMIN   =  10.00;   EMAX   =-10.00  energy-range for DOS
   EFERMI =   0.00;   METHOD = LEGACY      
   ISMEAR =     0;   SIGMA  =   0.10  broadening in eV -4-tet -1-fermi 0-gaus
   EFERMI_NEDOS =   21; number of points for ismear=-14 and -15

 Electronic relaxation 2 (details)
   IALGO  =     38    algorithm
   LDIAG  =      F    sub-space diagonalisation (order eigenvalues)
   LSUBROT=      F    optimize rotation matrix (better conditioning)
   TURBO    =      0    0=normal 1=particle mesh
   IRESTART =      0    0=no restart 2=restart with 2 vectors
   NREBOOT  =      0    no. of reboots
   NMIN     =      0    reboot dimension
   EREF     =   0.00    reference energy to select bands
   IMIX   =      4    mixing-type and parameters
     AMIX     =   0.40;   BMIX     =  1.00
     AMIX_MAG =   1.60;   BMIX_MAG =  1.00
     AMIN     =   0.10
     WC   =   100.;   INIMIX=   1;  MIXPRE=   1;  MAXMIX= -45

 Intra band minimization:
   WEIMIN = 0.0000     energy-eigenvalue tresh-hold
   EBREAK =  0.14E-08  absolut break condition
   DEPER  =   0.30     relativ break condition  

   TIME   =   0.40     timestep for ELM

  volume/ion in A,a.u.               =      16.92       114.19
  Fermi-wavevector in a.u.,A,eV,Ry     =   0.874467  1.652504 10.404284  0.764693
  Thomas-Fermi vector in A             =   1.994003

 Write flags
   LWAVE        =      F    write WAVECAR
   LDOWNSAMPLE  =      F    k-point downsampling of WAVECAR
   LCHARG       =      F    write CHGCAR
   LVTOT        =      F    write LOCPOT, total local potential
   LVHAR        =      F    write LOCPOT, Hartree potential only
   WRT_POTENTIAL= false  ! write potential to hdf5 file
   LELF         =      F    write electronic localiz. function (ELF)
   LORBIT       =     11    0 simple, 1 ext, 2 COOP (PROOUT), +10 PAW based schemes


 Python interface
   PLUGINS active      =      F    recompile with -DPLUGINS to activate

 Dipole corrections
   LMONO      =      F    monopole corrections only (constant potential shift)
   LDIPOL     =      F    correct potential (dipole corrections)
   IDIPOL     =      0    1-x, 2-y, 3-z, 4-all directions 
   EPSILON    =  1.0000000 bulk dielectric constant
   LVACPOTAV  =      F  vacuum potentials using an averaging scheme for the charge density
   VACPOTFLAT =  0.1000000 required flatness to determine vacuum potential

Coulomb truncation method
  LTRUNCATE          =      F  Coulomb kernel truncation to be used
  IDIMENSIONALITY    =      3  Dimensionality of cutoff (0 molecules / 2 surfaces)
  ISURFACE           =     -1  Direction of surface normal
  LCOARSEN           =      F  Coarsen the charge grid before padding, preferred


 Exchange correlation treatment:
   METAGGA = SCAN    functional components
   XC_C    = 1    coefficients multiplying the functional components
   LIBXC   =     F    Libxc                    
   VOSKOWN =     0    Vosko Wilk Nusair interpolation
   LHFCALC =     F    Hartree Fock is set to
   LHFONE  =     F    Hartree Fock one center treatment
   AEXX    =    0.0000 exact exchange contribution

 Parameters of functionals:
   SCAN:
     P1 =  0.000000E+00
     P2 =  0.000000E+00
     P3 =  0.000000E+00

 Accuracy and mixing parameters for tau-dependent meta-GGA functionals:
   LMAXTAU = 6
   LMIXTAU = T

 Van der Waals corrections
   IVDW    =     0    specifies the selected vdW correction

 Linear response parameters
   LEPSILON=     F    determine dielectric tensor
   LRPA    =     F    only Hartree local field effects (RPA)
   LNABLA  =     F    use nabla operator in PAW spheres
   LVEL    =     F    velocity operator in full k-point grid
   CSHIFT  =0.1000    complex shift for real part using Kramers Kronig
   OMEGAMAX=  -1.0    maximum frequency
   DEG_THRESHOLD= 0.2000000E-02 threshold for treating states as degnerate
   RTIME   =   -0.100 relaxation time in fs
  (WPLASMAI=    0.000 imaginary part of plasma frequency in eV, 0.658/RTIME)
   DFIELD  = 0.0000000 0.0000000 0.0000000 field for delta impulse in time

  Optional k-point grid parameters
   LKPOINTS_OPT  =     F    use optional k-point grid
   KPOINTS_OPT_MODE=     1    mode for optional k-point grid

 Orbital magnetization related:
   ORBITALMAG=     F  switch on orbital magnetization
   LCHIMAG   =     F  perturbation theory with respect to B field
   DQ        =  0.001000  dq finite difference perturbation B field
   LLRAUG    =     F  two centre corrections for induced B field
   LBONE     =     F  B-component reconstruction in AE one-centre
   LVGVCALC  =     T  calculate vGv susceptibility
   LVGVAPPL  =     F  apply vGv susceptibility instead of pGv for G=0

 Random number generation:
   RANDOM_GENERATOR = DEFAULT
   PCG_SEED         = not used


--------------------------------------------------------------------------------------------------------


 Static calculation
 charge density and potential will be updated during run
 non-spin polarized calculation
 Variant of blocked Davidson
 perform Loewdin sub-space diagonalisation
    ordering is kept fixed
    before iterative eigenvector-optimisation
 modified Broyden-mixing scheme, WC =      100.0
 initial mixing is a Kerker type mixing with AMIX =  0.4000 and BMIX =      1.0000
 Hartree-type preconditioning will be used
 using additional bands           53
 reciprocal scheme for non local part
 use partial core corrections
 calculate Harris-corrections to forces   (improved forces if not selfconsistent)
 use gradient corrections 
 use of overlap-Matrix (Vanderbilt PP)
 Gauss-broadening in eV      SIGMA  =   0.10


--------------------------------------------------------------------------------------------------------


  energy-cutoff  :     1200.00
  volume of cell :     1607.53
      direct lattice vectors                 reciprocal lattice vectors
    14.587182221  0.000000000  0.000000000     0.068553336  0.000000000  0.000000000
     0.000000000 14.587182221  0.000000000     0.000000000  0.068553336  0.000000000
     0.000000000  0.000000000  7.554693542     0.000000000  0.000000000  0.132368043

  length of vectors
    14.587182221 14.587182221  7.554693542     0.068553336  0.068553336  0.132368043



 k-points in units of 2pi/SCALE and weight: read from INCAR                         
   0.00000000  0.00000000  0.00000000       0.062
   0.03427667  0.00000000  0.00000000       0.062
   0.00000000  0.03427667  0.00000000       0.062
   0.03427667  0.03427667  0.00000000       0.062
   0.00000000  0.00000000  0.03309201       0.125
   0.03427667  0.00000000  0.03309201       0.125
   0.00000000  0.03427667  0.03309201       0.125
   0.03427667  0.03427667  0.03309201       0.125
   0.00000000  0.00000000  0.06618402       0.062
   0.03427667  0.00000000  0.06618402       0.062
   0.00000000  0.03427667  0.06618402       0.062
   0.03427667  0.03427667  0.06618402       0.062

 k-points in reciprocal lattice and weights: read from INCAR                         
   0.00000000  0.00000000  0.00000000       0.062
   0.50000000  0.00000000  0.00000000       0.062
   0.00000000  0.50000000  0.00000000       0.062
   0.50000000  0.50000000  0.00000000       0.062
   0.00000000  0.00000000  0.25000000       0.125
   0.50000000  0.00000000  0.25000000       0.125
   0.00000000  0.50000000  0.25000000       0.125
   0.50000000  0.50000000  0.25000000       0.125
   0.00000000  0.00000000  0.50000000       0.062
   0.50000000  0.00000000  0.50000000       0.062
   0.00000000  0.50000000  0.50000000       0.062
   0.50000000  0.50000000  0.50000000       0.062

 position of ions in fractional coordinates (direct lattice) 
   0.28605182  0.90299825  0.53076673
   0.93968114  0.85721833  0.26828223
   0.25927283  0.89418915  0.43676954
   0.55555349  0.90732396  0.67151764
   0.13924416  0.02454737  0.10917504
   0.71999512  0.90122957  0.22951427
   0.98703093  0.95516048  0.63117054
   0.92141853  0.73797666  0.07353270
   0.12774297  0.76790019  0.23167981
   0.58671441  0.97996993  0.38341992
   0.81278206  0.05650968  0.66661473
   0.25147694  0.86412165  0.09148061
   0.83543208  0.70581829  0.48740031
   0.12067992  0.08476414  0.79246894
   0.71437375  0.00965169  0.94212822
   0.27238160  0.10757184  0.54111262
   0.93759712  0.93876938  0.61563450
   0.54076928  0.73263635  0.91215480
   0.34933889  0.89117280  0.88224492
   0.04837473  0.74337181  0.58571800
   0.32771579  0.03886988  0.30424265
   0.71673884  0.02212388  0.47388289
   0.79408071  0.87059309  0.54625115
   0.35580141  0.77284974  0.21491937
   0.08167787  0.02155098  0.10041652
   0.36050760  0.85185060  0.81839190
   0.24111648  0.91471401  0.12100067
   0.09280271  0.96326349  0.45899678
   0.29409724  0.07642874  0.04206630
   0.90241555  0.93473159  0.93414114
   0.60425378  0.72204486  0.33718773
   0.92124029  0.82149519  0.34007468
   0.87700282  0.95699771  0.85893491
   0.58056518  0.76287523  0.35421026
   0.52188215  0.86687750  0.72407173
   0.70614735  0.86005644  0.17064359
   0.48373702  0.01698361  0.09576669
   0.59687401  0.86668555  0.02333741
   0.58150984  0.82715084  0.96921734
   0.65598961  0.67123382  0.65997118
   0.10460691  0.94092881  0.36315305
   0.97806415  0.06951377  0.29650971
   0.48034842  0.04478322  0.18506244
   0.33761421  0.05784722  0.75746951
   0.83610390  0.84906048  0.58899014
   0.63583150  0.29800272  0.21795192
   0.27485089  0.38473709  0.25261382
   0.95975356  0.43796807  0.84328239
   0.14209530  0.30267669  0.61418243
   0.82692461  0.43893878  0.05212349
   0.29329311  0.49326799  0.47437530
   0.88516067  0.54451092  0.25814813
   0.54789814  0.51107609  0.95047138
   0.13682149  0.55888930  0.41044153
   0.79502674  0.29739945  0.19431893
   0.59195326  0.20770153  0.97728253
   0.42299670  0.23038171  0.46600302
   0.30683102  0.13286322  0.37193832
   0.82321588  0.15930767  0.69928449
   0.19094023  0.24730616  0.31988988
   0.25713191  0.40408490  0.71590727
   0.53940301  0.42881483  0.21309799
   0.46737950  0.65903886  0.91895058
   0.70609936  0.08792994  0.06640296
   0.41890544  0.33159865  0.22537645
   0.08805196  0.23455867  0.07884158
   0.40443726  0.60844719  0.42805045
   0.69560384  0.49883040  0.88332240
   0.54415376  0.51971244  0.46674825
   0.06582772  0.40401360  0.05489435
   0.66882005  0.22734000  0.70675269
   0.16009535  0.17967555  0.82850482
   0.23215381  0.70295276  0.79048739
   0.58388316  0.18710947  0.46007028
   0.51218939  0.42410453  0.71096729
   0.37288010  0.67791228  0.16691743
   0.21788444  0.45859782  0.99724633
   0.69047605  0.58249564  0.61801580
   0.40307853  0.31819099  0.73291259
   0.95895834  0.16138004  0.22417719
   0.42899101  0.22428732  0.97992327
   0.31510404  0.12847992  0.88571693
   0.24569584  0.61681686  0.04015557
   0.65379522  0.05586535  0.35223798
   0.96163192  0.58134463  0.76732034
   0.99305677  0.34987429  0.56437233
   0.01984482  0.45533263  0.32963217
   0.66794600  0.38430246  0.70479894
   0.83731730  0.16950841  0.01476380
   0.09872983  0.65605474  0.63815825
   0.38148697  0.68925580  0.68180132
   0.84749747  0.60583668  0.53138357
   0.88091722  0.24640537  0.44912345
   0.97046844  0.64507386  0.06329165
   0.11701232  0.66753057  0.18515509

 position of ions in cartesian coordinates  (Angst):
   4.17269000 13.17220000  4.00978000
  13.70730000 12.50440000  2.02679000
   3.78206000 13.04370000  3.29966000
   8.10396000 13.23530000  5.07311000
   2.03118000  0.35807700  0.82478400
  10.50270000 13.14640000  1.73391000
  14.39800000 13.93310000  4.76830000
  13.44090000 10.76500000  0.55551700
   1.86341000 11.20150000  1.75027000
   8.55851000 14.29500000  2.89662000
  11.85620000  0.82431700  5.03607000
   3.66834000 12.60510000  0.69110800
  12.18660000 10.29590000  3.68216000
   1.76038000  1.23647000  5.98686000
  10.42070000  0.14079100  7.11749000
   3.97328000  1.56917000  4.08794000
  13.67690000 13.69400000  4.65093000
   7.88830000 10.68710000  6.89105000
   5.09587000 12.99970000  6.66509000
   0.70565100 10.84370000  4.42492000
   4.78045000  0.56700200  2.29846000
  10.45520000  0.32272500  3.58004000
  11.58340000 12.69950000  4.12676000
   5.19014000 11.27370000  1.62365000
   1.19145000  0.31436800  0.75861600
   5.25879000 12.42610000  6.18270000
   3.51721000 13.34310000  0.91412300
   1.35373000 14.05130000  3.46758000
   4.29005000  1.11488000  0.31779800
  13.16370000 13.63510000  7.05715000
   8.81436000 10.53260000  2.54735000
  13.43830000 11.98330000  2.56916000
  12.79300000 13.95990000  6.48899000
   8.46881000 11.12820000  2.67595000
   7.61279000 12.64530000  5.47014000
  10.30070000 12.54580000  1.28916000
   7.05636000  0.24774300  0.72348800
   8.70671000 12.64250000  0.17630700
   8.48259000 12.06580000  7.32214000
   9.56904000  9.79141000  4.98588000
   1.52592000 13.72550000  2.74351000
  14.26720000  1.01401000  2.24004000
   7.00693000  0.65326100  1.39809000
   4.92484000  0.84382800  5.72245000
  12.19640000 12.38540000  4.44964000
   9.27499000  4.34702000  1.64656000
   4.00930000  5.61223000  1.90842000
  14.00010000  6.38872000  6.37074000
   2.07277000  4.41520000  4.63996000
  12.06250000  6.40288000  0.39377700
   4.27832000  7.19539000  3.58376000
  12.91200000  7.94288000  1.95023000
   7.99229000  7.45516000  7.18052000
   1.99584000  8.15262000  3.10076000
  11.59720000  4.33822000  1.46802000
   8.63493000  3.02978000  7.38307000
   6.17033000  3.36062000  3.52051000
   4.47580000  1.93810000  2.80988000
  12.00840000  2.32385000  5.28288000
   2.78528000  3.60750000  2.41667000
   3.75083000  5.89446000  5.40846000
   7.86837000  6.25520000  1.60989000
   6.81775000  9.61352000  6.94239000
  10.30000000  1.28265000  0.50165400
   6.11065000  4.83709000  1.70265000
   1.28443000  3.42155000  0.59562400
   5.89960000  8.87553000  3.23379000
  10.14690000  7.27653000  6.67323000
   7.93767000  7.58114000  3.52614000
   0.96024100  5.89342000  0.41471000
   9.75620000  3.31625000  5.33930000
   2.33534000  2.62096000  6.25910000
   3.38647000 10.25410000  5.97189000
   8.51721000  2.72940000  3.47569000
   7.47140000  6.18649000  5.37114000
   5.43927000  9.88883000  1.26101000
   3.17832000  6.68965000  7.53389044
  10.07210000  8.49697000  4.66892000
   5.87978000  4.64151000  5.53693000
  13.98850000  2.35408000  1.69359000
   6.25777000  3.27172000  7.40302000
   4.59648000  1.87416000  6.69132000
   3.58401000  8.99762000  0.30336300
   9.53703000  0.81491800  2.66105000
  14.02750000  8.48018000  5.79687000
  14.48590000  5.10368000  4.26366000
   0.28948000  6.64202000  2.49027000
   9.74345000  5.60589000  5.32454000
  12.21410000  2.47265000  0.11153600
   1.44019000  9.56999000  4.82109000
   5.56482000 10.05430000  5.15080000
  12.36260000  8.83745000  4.01444000
  12.85010000  3.59436000  3.39299000
  14.15640000  9.40981000  0.47814900
   1.70688000  9.73739000  1.39879000



--------------------------------------------------------------------------------------------------------


 k-point     1 :   0.0000 0.0000 0.0000  plane waves:  151819
 k-point     2 :   0.5000 0.0000 0.0000  plane waves:  151790
 k-point     3 :   0.0000 0.5000 0.0000  plane waves:  151790
 k-point     4 :   0.5000 0.5000 0.0000  plane waves:  151708
 k-point     5 :   0.0000 0.0000 0.2500  plane waves:  151747
 k-point     6 :   0.5000 0.0000 0.2500  plane waves:  151758
 k-point     7 :   0.0000 0.5000 0.2500  plane waves:  151758
 k-point     8 :   0.5000 0.5000 0.2500  plane waves:  151832
 k-point     9 :   0.0000 0.0000 0.5000  plane waves:  151706
 k-point    10 :   0.5000 0.0000 0.5000  plane waves:  151720
 k-point    11 :   0.0000 0.5000 0.5000  plane waves:  151720
 k-point    12 :   0.5000 0.5000 0.5000  plane waves:  151760

 maximum and minimum number of plane-waves per node :      9553     9428

 maximum number of plane-waves:    151832
 maximum index in each direction: 
   IXMAX=   41   IYMAX=   41   IZMAX=   21
   IXMIN=  -41   IYMIN=  -41   IZMIN=  -21


 parallel 3D FFT for wavefunctions:
    minimum data exchange during FFTs selected (reduces bandwidth)
 parallel 3D FFT for charge:
    minimum data exchange during FFTs selected (reduces bandwidth)


 total amount of memory used by VASP MPI-rank0   153874. kBytes
=======================================================================

   base                                    :      30000. kBytes
   nonl-proj                               :      29044. kBytes
   fftplans                                :      30753. kBytes
   grid                                    :      23712. kBytes
   one-center                              :         18. kBytes
   wavefun                                 :      40347. kBytes

     INWAV:  cpu time      0.0014: real time      0.0015
 Broyden mixing: mesh for mixing (old mesh)
   NGX = 83   NGY = 83   NGZ = 43
  (NGX  =336   NGY  =336   NGZ  =180)
  gives a total of 296227 points

 initial charge density was supplied:
 charge density of overlapping atoms calculated
 number of electron     245.0000000 magnetization 
 keeping initial charge density in first step


--------------------------------------------------------------------------------------------------------


 Maximum index for augmentation-charges        11744 (set IRDMAX)


--------------------------------------------------------------------------------------------------------


 First call to EWALD:  gamma=   0.151
 Maximum number of real-space cells   2x   2x   4
 Maximum number of reciprocal cells   3x   3x   2

    FEWALD:  cpu time      0.0160: real time      0.0162


--------------------------------------- Ionic step        1  -------------------------------------------




--------------------------------------- Iteration      1(   1)  ---------------------------------------


    POTLOK:  cpu time      0.5408: real time      0.5417
    SETDIJ:  cpu time      1.2531: real time      1.2540
    EDDIAG:  cpu time     14.8343: real time     14.8451
     EDDAV:  cpu time     69.3856: real time     69.4396
       DOS:  cpu time      0.0075: real time      0.0078
    --------------------------------------------
      LOOP:  cpu time     86.0218: real time     86.0888

 eigenvalue-minimisations  :  4224
 total energy-change (2. order) : 0.8875573E+03  (-0.1168560E+05)
 number of electron     245.0000000 magnetization 
 augmentation part      245.0000000 magnetization 

 Free energy of the ion-electron system (eV)
  ---------------------------------------------------
  alpha Z        PSCENC =        80.83949337
  Ewald energy   TEWEN  =     -3296.13969169
  -Hartree energ DENC   =     -2529.70538331
  -exchange      EXHF   =         0.00000000
  -V(xc)+E(xc)   XCENC  =      -140.27364122
  PAW double counting   =      4255.60646479    -3752.62288571
  entropy T*S    EENTRO =        -0.06946378
  eigenvalues    EBANDS =       554.60433481
  atomic energy  EATOM  =      5715.31808280
  Solvation  Ediel_sol  =         0.00000000
  ---------------------------------------------------
  free energy    TOTEN  =       887.55731005 eV

  energy without entropy =      887.62677383  energy(sigma->0) =      887.59204194


--------------------------------------------------------------------------------------------------------




--------------------------------------- Iteration      1(   2)  ---------------------------------------


    EDDIAG:  cpu time     14.8347: real time     14.8684
     EDDAV:  cpu time     77.7789: real time     77.8416
       DOS:  cpu time      0.0038: real time      0.0038
    --------------------------------------------
      LOOP:  cpu time     92.6174: real time     92.7138

 eigenvalue-minimisations  :  5136
 total energy-change (2. order) :-0.1347374E+04  (-0.1221957E+04)
 number of electron     245.0000000 magnetization 
 augmentation part      245.0000000 magnetization 

 Free energy of the ion-electron system (eV)
  ---------------------------------------------------
  alpha Z        PSCENC =        80.83949337
  Ewald energy   TEWEN  =     -3296.13969169
  -Hartree energ DENC   =     -2529.70538331
  -exchange      EXHF   =         0.00000000
  -V(xc)+E(xc)   XCENC  =      -140.27364122
  PAW double counting   =      4255.60646479    -3752.62288571
  entropy T*S    EENTRO =        -0.10501941
  eigenvalues    EBANDS =      -792.73366490
  atomic energy  EATOM  =      5715.31808280
  Solvation  Ediel_sol  =         0.00000000
  ---------------------------------------------------
  free energy    TOTEN  =      -459.81624529 eV

  energy without entropy =     -459.71122588  energy(sigma->0) =     -459.76373558


--------------------------------------------------------------------------------------------------------




--------------------------------------- Iteration      1(   3)  ---------------------------------------


    EDDIAG:  cpu time     14.8481: real time     14.8786
     EDDAV:  cpu time     79.1876: real time     79.2523
       DOS:  cpu time      0.0044: real time      0.0044
    --------------------------------------------
      LOOP:  cpu time     94.0402: real time     94.1354

 eigenvalue-minimisations  :  5264
 total energy-change (2. order) :-0.2197883E+03  (-0.1306772E+03)
 number of electron     245.0000000 magnetization 
 augmentation part      245.0000000 magnetization 

 Free energy of the ion-electron system (eV)
  ---------------------------------------------------
  alpha Z        PSCENC =        80.83949337
  Ewald energy   TEWEN  =     -3296.13969169
  -Hartree energ DENC   =     -2529.70538331
  -exchange      EXHF   =         0.00000000
  -V(xc)+E(xc)   XCENC  =      -140.27364122
  PAW double counting   =      4255.60646479    -3752.62288571
  entropy T*S    EENTRO =        -0.04703911
  eigenvalues    EBANDS =     -1012.57989968
  atomic energy  EATOM  =      5715.31808280
  Solvation  Ediel_sol  =         0.00000000
  ---------------------------------------------------
  free energy    TOTEN  =      -679.60449976 eV

  energy without entropy =     -679.55746065  energy(sigma->0) =     -679.58098021


--------------------------------------------------------------------------------------------------------




--------------------------------------- Iteration      1(   4)  ---------------------------------------


    EDDIAG:  cpu time     14.8458: real time     14.8800
     EDDAV:  cpu time     79.3066: real time     79.3748
       DOS:  cpu time      0.0039: real time      0.0039
    --------------------------------------------
      LOOP:  cpu time     94.1562: real time     94.2586

 eigenvalue-minimisations  :  5296
 total energy-change (2. order) :-0.6582257E+01  (-0.3879755E+01)
 number of electron     245.0000000 magnetization 
 augmentation part      245.0000000 magnetization 

 Free energy of the ion-electron system (eV)
  ---------------------------------------------------
  alpha Z        PSCENC =        80.83949337
  Ewald energy   TEWEN  =     -3296.13969169
  -Hartree energ DENC   =     -2529.70538331
  -exchange      EXHF   =         0.00000000
  -V(xc)+E(xc)   XCENC  =      -140.27364122
  PAW double counting   =      4255.60646479    -3752.62288571
  entropy T*S    EENTRO =        -0.05564156
  eigenvalues    EBANDS =     -1019.15355452
  atomic energy  EATOM  =      5715.31808280
  Solvation  Ediel_sol  =         0.00000000
  ---------------------------------------------------
  free energy    TOTEN  =      -686.18675706 eV

  energy without entropy =     -686.13111549  energy(sigma->0) =     -686.15893628


--------------------------------------------------------------------------------------------------------




--------------------------------------- Iteration      1(   5)  ---------------------------------------


    EDDIAG:  cpu time     14.6524: real time     14.6909
     EDDAV:  cpu time     82.9987: real time     83.0720
       DOS:  cpu time      0.0048: real time      0.0048
    CHARGE:  cpu time      5.5560: real time      5.5607
    MIXING:  cpu time      0.0210: real time      0.0214
    --------------------------------------------
      LOOP:  cpu time    103.2324: real time    103.3493

 eigenvalue-minimisations  :  5680
 total energy-change (2. order) :-0.1574935E+00  (-0.1248167E+00)
 number of electron     244.9999999 magnetization 
 augmentation part      -10.4578735 magnetization 

 Broyden mixing:
  rms(total) = 0.36619E+01    rms(broyden)= 0.52671E+02
  rms(prec ) = 0.39694E+01
  weight for this iteration     100.00
  WARNING: grid for Broyden might be to small

 Free energy of the ion-electron system (eV)
  ---------------------------------------------------
  alpha Z        PSCENC =        80.83949337
  Ewald energy   TEWEN  =     -3296.13969169
  -Hartree energ DENC   =     -2529.70538331
  -exchange      EXHF   =         0.00000000
  -V(xc)+E(xc)   XCENC  =      -140.27364122
  PAW double counting   =      4255.60646479    -3752.62288571
  entropy T*S    EENTRO =        -0.05562454
  eigenvalues    EBANDS =     -1019.31106505
  atomic energy  EATOM  =      5715.31808280
  Solvation  Ediel_sol  =         0.00000000
  ---------------------------------------------------
  free energy    TOTEN  =      -686.34425056 eV

  energy without entropy =     -686.28862602  energy(sigma->0) =     -686.31643829


--------------------------------------------------------------------------------------------------------




--------------------------------------- Iteration      1(   6)  ---------------------------------------


    POTLOK:  cpu time      0.5334: real time      0.5533
    SETDIJ:  cpu time      1.2474: real time      1.2485
    EDDIAG:  cpu time     14.7223: real time     14.7335
     EDDAV:  cpu time     76.2033: real time     76.2673
       DOS:  cpu time      0.0045: real time      0.0045
    CHARGE:  cpu time      5.4600: real time      5.4652
    MIXING:  cpu time      0.0127: real time      0.0130
    --------------------------------------------
      LOOP:  cpu time     98.1835: real time     98.2853

 eigenvalue-minimisations  :  4952
 total energy-change (2. order) : 0.4986507E+02  (-0.1045245E+01)
 number of electron     244.9999999 magnetization 
 augmentation part      -10.2981273 magnetization 

 Broyden mixing:
  rms(total) = 0.22620E+01    rms(broyden)= 0.32285E+02
  rms(prec ) = 0.24284E+01
  weight for this iteration     100.00
  WARNING: grid for Broyden might be to small

 eigenvalues of (default mixing * dielectric matrix)
  average eigenvalue GAMMA=   0.6202
  0.6202

 Free energy of the ion-electron system (eV)
  ---------------------------------------------------
  alpha Z        PSCENC =        80.83949337
  Ewald energy   TEWEN  =     -3296.13969169
  -Hartree energ DENC   =     -2614.43487403
  -exchange      EXHF   =         0.00000000
  -V(xc)+E(xc)   XCENC  =      -116.16936190
  PAW double counting   =     11669.29064996   -11168.89837571
  entropy T*S    EENTRO =        -0.05667763
  eigenvalues    EBANDS =      -906.22843060
  atomic energy  EATOM  =      5715.31808280
  Solvation  Ediel_sol  =         0.00000000
  ---------------------------------------------------
  free energy    TOTEN  =      -636.47918543 eV

  energy without entropy =     -636.42250780  energy(sigma->0) =     -636.45084662


--------------------------------------------------------------------------------------------------------




--------------------------------------- Iteration      1(   7)  ---------------------------------------


    POTLOK:  cpu time      0.5306: real time      0.5515
    SETDIJ:  cpu time      1.3144: real time      1.3149
    EDDIAG:  cpu time     14.7387: real time     14.7498
     EDDAV:  cpu time     72.9091: real time     72.9732
       DOS:  cpu time      0.0052: real time      0.0052
    CHARGE:  cpu time      5.5584: real time      5.5627
    MIXING:  cpu time      0.0105: real time      0.0105
    --------------------------------------------
      LOOP:  cpu time     95.0669: real time     95.1678

 eigenvalue-minimisations  :  4600
 total energy-change (2. order) :-0.1364233E+01  (-0.1379633E+01)
 number of electron     244.9999999 magnetization 
 augmentation part      -10.1445560 magnetization 

 Broyden mixing:
  rms(total) = 0.51096E+00    rms(broyden)= 0.71287E+02
  rms(prec ) = 0.89655E+00
  weight for this iteration     100.00
  WARNING: grid for Broyden might be to small

 eigenvalues of (default mixing * dielectric matrix)
  average eigenvalue GAMMA=   1.0254
  1.4196  0.6311

 Free energy of the ion-electron system (eV)
  ---------------------------------------------------
  alpha Z        PSCENC =        80.83949337
  Ewald energy   TEWEN  =     -3296.13969169
  -Hartree energ DENC   =     -2737.77203891
  -exchange      EXHF   =         0.00000000
  -V(xc)+E(xc)   XCENC  =      -103.12702765
  PAW double counting   =     28069.42953590   -27572.11864836
  entropy T*S    EENTRO =        -0.06266778
  eigenvalues    EBANDS =      -794.21045592
  atomic energy  EATOM  =      5715.31808280
  Solvation  Ediel_sol  =         0.00000000
  ---------------------------------------------------
  free energy    TOTEN  =      -637.84341826 eV

  energy without entropy =     -637.78075047  energy(sigma->0) =     -637.81208436


--------------------------------------------------------------------------------------------------------




--------------------------------------- Iteration      1(   8)  ---------------------------------------


    POTLOK:  cpu time      0.5350: real time      0.5563
    SETDIJ:  cpu time      1.2488: real time      1.2494
    EDDIAG:  cpu time     14.7849: real time     14.7974
     EDDAV:  cpu time     78.8597: real time     78.9261
       DOS:  cpu time      0.0039: real time      0.0039
    CHARGE:  cpu time      5.4671: real time      5.4713
    MIXING:  cpu time      0.0108: real time      0.0108
    --------------------------------------------
      LOOP:  cpu time    100.9101: real time    101.0152

 eigenvalue-minimisations  :  5232
 total energy-change (2. order) : 0.6133689E+00  (-0.1275976E+00)
 number of electron     244.9999999 magnetization 
 augmentation part      -10.1362051 magnetization 

 Broyden mixing:
  rms(total) = 0.18138E+00    rms(broyden)= 0.42904E+01
  rms(prec ) = 0.22218E+00
  weight for this iteration     100.00
  WARNING: grid for Broyden might be to small

 eigenvalues of (default mixing * dielectric matrix)
  average eigenvalue GAMMA=   1.1864
  2.1829  0.7511  0.6252

 Free energy of the ion-electron system (eV)
  ---------------------------------------------------
  alpha Z        PSCENC =        80.83949337
  Ewald energy   TEWEN  =     -3296.13969169
  -Hartree energ DENC   =     -2767.94280154
  -exchange      EXHF   =         0.00000000
  -V(xc)+E(xc)   XCENC  =       -99.18351105
  PAW double counting   =     33168.81298127   -32672.05098356
  entropy T*S    EENTRO =        -0.06045361
  eigenvalues    EBANDS =      -766.82316537
  atomic energy  EATOM  =      5715.31808280
  Solvation  Ediel_sol  =         0.00000000
  ---------------------------------------------------
  free energy    TOTEN  =      -637.23004938 eV

  energy without entropy =     -637.16959578  energy(sigma->0) =     -637.19982258


--------------------------------------------------------------------------------------------------------




--------------------------------------- Iteration      1(   9)  ---------------------------------------


    POTLOK:  cpu time      0.5275: real time      0.5519
    SETDIJ:  cpu time      1.2806: real time      1.2811
    EDDIAG:  cpu time     14.7147: real time     14.7270
     EDDAV:  cpu time     76.2131: real time     76.2795
       DOS:  cpu time      0.0035: real time      0.0035
    CHARGE:  cpu time      5.4673: real time      5.4712
    MIXING:  cpu time      0.0105: real time      0.0105
    --------------------------------------------
      LOOP:  cpu time     98.2173: real time     98.3248

 eigenvalue-minimisations  :  4936
 total energy-change (2. order) :-0.2956441E-01  (-0.3415562E-01)
 number of electron     244.9999999 magnetization 
 augmentation part      -10.1319458 magnetization 

 Broyden mixing:
  rms(total) = 0.65794E-01    rms(broyden)= 0.10004E+01
  rms(prec ) = 0.90226E-01
  weight for this iteration     100.00
  WARNING: grid for Broyden might be to small

 eigenvalues of (default mixing * dielectric matrix)
  average eigenvalue GAMMA=   1.1684
  2.3233  1.0790  0.6473  0.6241

 Free energy of the ion-electron system (eV)
  ---------------------------------------------------
  alpha Z        PSCENC =        80.83949337
  Ewald energy   TEWEN  =     -3296.13969169
  -Hartree energ DENC   =     -2769.62101522
  -exchange      EXHF   =         0.00000000
  -V(xc)+E(xc)   XCENC  =       -99.51176182
  PAW double counting   =     33651.67123649   -33154.55529647
  entropy T*S    EENTRO =        -0.06369918
  eigenvalues    EBANDS =      -765.19696206
  atomic energy  EATOM  =      5715.31808280
  Solvation  Ediel_sol  =         0.00000000
  ---------------------------------------------------
  free energy    TOTEN  =      -637.25961380 eV

  energy without entropy =     -637.19591462  energy(sigma->0) =     -637.22776421


--------------------------------------------------------------------------------------------------------




--------------------------------------- Iteration      1(  10)  ---------------------------------------


    POTLOK:  cpu time      0.5264: real time      0.5540
    SETDIJ:  cpu time      1.2490: real time      1.2496
    EDDIAG:  cpu time     14.7942: real time     14.8059
     EDDAV:  cpu time     76.8060: real time     76.8720
       DOS:  cpu time      0.0038: real time      0.0038
    CHARGE:  cpu time      5.4747: real time      5.4788
    MIXING:  cpu time      0.0111: real time      0.0111
    --------------------------------------------
      LOOP:  cpu time     98.8652: real time     98.9752

 eigenvalue-minimisations  :  5008
 total energy-change (2. order) :-0.2125596E-01  (-0.7167193E-02)
 number of electron     244.9999999 magnetization 
 augmentation part      -10.1281755 magnetization 

 Broyden mixing:
  rms(total) = 0.41017E-01    rms(broyden)= 0.45654E+00
  rms(prec ) = 0.65109E-01
  weight for this iteration     100.00
  WARNING: grid for Broyden might be to small

 eigenvalues of (default mixing * dielectric matrix)
  average eigenvalue GAMMA=   1.1837
  2.4309  1.4280  0.8017  0.6291  0.6291

 Free energy of the ion-electron system (eV)
  ---------------------------------------------------
  alpha Z        PSCENC =        80.83949337
  Ewald energy   TEWEN  =     -3296.13969169
  -Hartree energ DENC   =     -2772.20228259
  -exchange      EXHF   =         0.00000000
  -V(xc)+E(xc)   XCENC  =       -99.19966339
  PAW double counting   =     33880.28129612   -33383.09882948
  entropy T*S    EENTRO =        -0.05783047
  eigenvalues    EBANDS =      -763.02144441
  atomic energy  EATOM  =      5715.31808280
  Solvation  Ediel_sol  =         0.00000000
  ---------------------------------------------------
  free energy    TOTEN  =      -637.28086976 eV

  energy without entropy =     -637.22303929  energy(sigma->0) =     -637.25195452


--------------------------------------------------------------------------------------------------------




--------------------------------------- Iteration      1(  11)  ---------------------------------------


    POTLOK:  cpu time      0.5515: real time      0.5527
    SETDIJ:  cpu time      1.2493: real time      1.2498
    EDDIAG:  cpu time     14.7612: real time     14.7729
     EDDAV:  cpu time     74.3647: real time     74.4280
       DOS:  cpu time      0.0038: real time      0.0038
    CHARGE:  cpu time      5.4643: real time      5.4695
    MIXING:  cpu time      0.0110: real time      0.0110
    --------------------------------------------
      LOOP:  cpu time     96.4058: real time     96.4877

 eigenvalue-minimisations  :  4760
 total energy-change (2. order) :-0.1025239E-01  (-0.2541201E-02)
 number of electron     244.9999999 magnetization 
 augmentation part      -10.1265204 magnetization 

 Broyden mixing:
  rms(total) = 0.20496E-01    rms(broyden)= 0.34387E+00
  rms(prec ) = 0.28764E-01
  weight for this iteration     100.00
  WARNING: grid for Broyden might be to small

 eigenvalues of (default mixing * dielectric matrix)
  average eigenvalue GAMMA=   1.1345
  2.4728  1.6854  0.9063  0.6511  0.6301  0.4615

 Free energy of the ion-electron system (eV)
  ---------------------------------------------------
  alpha Z        PSCENC =        80.83949337
  Ewald energy   TEWEN  =     -3296.13969169
  -Hartree energ DENC   =     -2774.68866125
  -exchange      EXHF   =         0.00000000
  -V(xc)+E(xc)   XCENC  =       -98.97488635
  PAW double counting   =     33959.67643280   -33462.43761207
  entropy T*S    EENTRO =        -0.06155635
  eigenvalues    EBANDS =      -760.82272339
  atomic energy  EATOM  =      5715.31808280
  Solvation  Ediel_sol  =         0.00000000
  ---------------------------------------------------
  free energy    TOTEN  =      -637.29112215 eV

  energy without entropy =     -637.22956580  energy(sigma->0) =     -637.26034397


--------------------------------------------------------------------------------------------------------




--------------------------------------- Iteration      1(  12)  ---------------------------------------


    POTLOK:  cpu time      0.5269: real time      0.5522
    SETDIJ:  cpu time      1.2459: real time      1.2473
    EDDIAG:  cpu time     14.7470: real time     14.7584
     EDDAV:  cpu time     74.6799: real time     74.7476
       DOS:  cpu time      0.0049: real time      0.0049
    CHARGE:  cpu time      5.4268: real time      5.4317
    MIXING:  cpu time      0.0111: real time      0.0111
    --------------------------------------------
      LOOP:  cpu time     96.6424: real time     96.7533

 eigenvalue-minimisations  :  4784
 total energy-change (2. order) :-0.6644299E-02  (-0.9712567E-03)
 number of electron     244.9999999 magnetization 
 augmentation part      -10.1257845 magnetization 

 Broyden mixing:
  rms(total) = 0.96498E-02    rms(broyden)= 0.30529E+00
  rms(prec ) = 0.15066E-01
  weight for this iteration     100.00
  WARNING: grid for Broyden might be to small

 eigenvalues of (default mixing * dielectric matrix)
  average eigenvalue GAMMA=   1.1699
  2.4940  1.9598  1.1067  0.8747  0.6460  0.6287  0.4795

 Free energy of the ion-electron system (eV)
  ---------------------------------------------------
  alpha Z        PSCENC =        80.83949337
  Ewald energy   TEWEN  =     -3296.13969169
  -Hartree energ DENC   =     -2775.90285151
  -exchange      EXHF   =         0.00000000
  -V(xc)+E(xc)   XCENC  =       -98.92607411
  PAW double counting   =     33860.12539052   -33362.83974268
  entropy T*S    EENTRO =        -0.06112321
  eigenvalues    EBANDS =      -759.71124993
  atomic energy  EATOM  =      5715.31808280
  Solvation  Ediel_sol  =         0.00000000
  ---------------------------------------------------
  free energy    TOTEN  =      -637.29776645 eV

  energy without entropy =     -637.23664324  energy(sigma->0) =     -637.26720484


--------------------------------------------------------------------------------------------------------




--------------------------------------- Iteration      1(  13)  ---------------------------------------


    POTLOK:  cpu time      0.5521: real time      0.5522
    SETDIJ:  cpu time      1.2559: real time      1.2571
    EDDIAG:  cpu time     14.7954: real time     14.8075
     EDDAV:  cpu time     76.6184: real time     76.6857
       DOS:  cpu time      0.0037: real time      0.0037
    CHARGE:  cpu time      5.4361: real time      5.4406
    MIXING:  cpu time      0.0114: real time      0.0114
    --------------------------------------------
      LOOP:  cpu time     98.6729: real time     98.7583

 eigenvalue-minimisations  :  5008
 total energy-change (2. order) :-0.2754576E-02  (-0.3961585E-03)
 number of electron     244.9999999 magnetization 
 augmentation part      -10.1253029 magnetization 

 Broyden mixing:
  rms(total) = 0.51133E-02    rms(broyden)= 0.27666E+00
  rms(prec ) = 0.88283E-02
  weight for this iteration     100.00
  WARNING: grid for Broyden might be to small

 eigenvalues of (default mixing * dielectric matrix)
  average eigenvalue GAMMA=   1.2040
  2.3801  2.3801  1.4587  0.9784  0.7182  0.4648  0.6384  0.6129

 Free energy of the ion-electron system (eV)
  ---------------------------------------------------
  alpha Z        PSCENC =        80.83949337
  Ewald energy   TEWEN  =     -3296.13969169
  -Hartree energ DENC   =     -2776.87952080
  -exchange      EXHF   =         0.00000000
  -V(xc)+E(xc)   XCENC  =       -98.83582244
  PAW double counting   =     33811.29658107   -33313.99699591
  entropy T*S    EENTRO =        -0.06114522
  eigenvalues    EBANDS =      -758.84150219
  atomic energy  EATOM  =      5715.31808280
  Solvation  Ediel_sol  =         0.00000000
  ---------------------------------------------------
  free energy    TOTEN  =      -637.30052102 eV

  energy without entropy =     -637.23937580  energy(sigma->0) =     -637.26994841


--------------------------------------------------------------------------------------------------------




--------------------------------------- Iteration      1(  14)  ---------------------------------------


    POTLOK:  cpu time      0.5266: real time      0.5544
    SETDIJ:  cpu time      1.2509: real time      1.2514
    EDDIAG:  cpu time     14.7079: real time     14.7205
     EDDAV:  cpu time     74.7739: real time     74.8373
       DOS:  cpu time      0.0049: real time      0.0049
    CHARGE:  cpu time      5.5134: real time      5.5178
    MIXING:  cpu time      0.0117: real time      0.0117
    --------------------------------------------
      LOOP:  cpu time     96.7893: real time     96.8981

 eigenvalue-minimisations  :  4808
 total energy-change (2. order) :-0.1118940E-02  (-0.2119347E-03)
 number of electron     244.9999999 magnetization 
 augmentation part      -10.1248893 magnetization 

 Broyden mixing:
  rms(total) = 0.25869E-02    rms(broyden)= 0.10127E+00
  rms(prec ) = 0.43034E-02
  weight for this iteration     100.00
  WARNING: grid for Broyden might be to small

 eigenvalues of (default mixing * dielectric matrix)
  average eigenvalue GAMMA=   1.2221
  2.5219  2.5219  1.5978  1.0241  0.9577  0.4617  0.6782  0.6177  0.6177

 Free energy of the ion-electron system (eV)
  ---------------------------------------------------
  alpha Z        PSCENC =        80.83949337
  Ewald energy   TEWEN  =     -3296.13969169
  -Hartree energ DENC   =     -2777.72637186
  -exchange      EXHF   =         0.00000000
  -V(xc)+E(xc)   XCENC  =       -98.78301059
  PAW double counting   =     33792.39293817   -33295.09023829
  entropy T*S    EENTRO =        -0.06119421
  eigenvalues    EBANDS =      -758.05164765
  atomic energy  EATOM  =      5715.31808280
  Solvation  Ediel_sol  =         0.00000000
  ---------------------------------------------------
  free energy    TOTEN  =      -637.30163996 eV

  energy without entropy =     -637.24044576  energy(sigma->0) =     -637.27104286


--------------------------------------------------------------------------------------------------------




--------------------------------------- Iteration      1(  15)  ---------------------------------------


    POTLOK:  cpu time      0.5528: real time      0.5537
    SETDIJ:  cpu time      1.2481: real time      1.2487
    EDDIAG:  cpu time     14.7474: real time     14.7605
     EDDAV:  cpu time     77.8411: real time     77.9115
       DOS:  cpu time      0.0035: real time      0.0035
    CHARGE:  cpu time      5.4952: real time      5.4990
    MIXING:  cpu time      0.0120: real time      0.0120
    --------------------------------------------
      LOOP:  cpu time     99.9002: real time     99.9888

 eigenvalue-minimisations  :  5128
 total energy-change (2. order) :-0.3405028E-03  (-0.1029096E-03)
 number of electron     244.9999999 magnetization 
 augmentation part      -10.1245752 magnetization 

 Broyden mixing:
  rms(total) = 0.13875E-02    rms(broyden)= 0.87354E-01
  rms(prec ) = 0.21799E-02
  weight for this iteration     100.00
  WARNING: grid for Broyden might be to small

 eigenvalues of (default mixing * dielectric matrix)
  average eigenvalue GAMMA=   1.2834
  2.8142  2.8142  1.7692  1.3766  0.9803  0.7576  0.4631  0.6342  0.6342  0.5901

 Free energy of the ion-electron system (eV)
  ---------------------------------------------------
  alpha Z        PSCENC =        80.83949337
  Ewald energy   TEWEN  =     -3296.13969169
  -Hartree energ DENC   =     -2778.13714419
  -exchange      EXHF   =         0.00000000
  -V(xc)+E(xc)   XCENC  =       -98.75469863
  PAW double counting   =     33784.69365424   -33287.39173276
  entropy T*S    EENTRO =        -0.06125540
  eigenvalues    EBANDS =      -757.66868820
  atomic energy  EATOM  =      5715.31808280
  Solvation  Ediel_sol  =         0.00000000
  ---------------------------------------------------
  free energy    TOTEN  =      -637.30198047 eV

  energy without entropy =     -637.24072507  energy(sigma->0) =     -637.27135277


--------------------------------------------------------------------------------------------------------




--------------------------------------- Iteration      1(  16)  ---------------------------------------


    POTLOK:  cpu time      0.5360: real time      0.5592
    SETDIJ:  cpu time      1.2510: real time      1.2516
    EDDIAG:  cpu time     14.7842: real time     14.7955
     EDDAV:  cpu time     75.4040: real time     75.4694
       DOS:  cpu time      0.0045: real time      0.0045
    CHARGE:  cpu time      5.4764: real time      5.4814
    MIXING:  cpu time      0.0121: real time      0.0121
    --------------------------------------------
      LOOP:  cpu time     97.4682: real time     97.5737

 eigenvalue-minimisations  :  4856
 total energy-change (2. order) :-0.3538867E-04  (-0.4057056E-04)
 number of electron     244.9999999 magnetization 
 augmentation part      -10.1244635 magnetization 

 Broyden mixing:
  rms(total) = 0.67823E-03    rms(broyden)= 0.30358E-01
  rms(prec ) = 0.98495E-03
  weight for this iteration     100.00
  WARNING: grid for Broyden might be to small

 eigenvalues of (default mixing * dielectric matrix)
  average eigenvalue GAMMA=   1.3075
  3.2693  2.6596  1.9764  1.4161  1.0850  0.9464  0.4630  0.7250  0.6440  0.6248
  0.5728

 Free energy of the ion-electron system (eV)
  ---------------------------------------------------
  alpha Z        PSCENC =        80.83949337
  Ewald energy   TEWEN  =     -3296.13969169
  -Hartree energ DENC   =     -2778.27719520
  -exchange      EXHF   =         0.00000000
  -V(xc)+E(xc)   XCENC  =       -98.75700360
[...]
   0.738E+01 0.867E+02 0.143E+02   -.555E+01 -.857E+02 -.134E+02   -.123E+01 -.181E+01 -.953E+00   -.539E-05 0.355E-04 0.672E-04
   -.929E+01 0.869E+02 -.172E+02   0.805E+01 -.856E+02 0.151E+02   0.208E+01 -.111E+01 0.201E+01   -.595E-04 0.117E-03 0.315E-05
   0.730E+01 0.106E+03 0.148E+02   -.838E+01 -.108E+03 -.783E+01   0.823E+00 0.235E+01 -.657E+01   -.626E-04 0.216E-03 0.611E-05
   -.397E+02 0.754E+02 0.780E+01   0.367E+02 -.775E+02 -.757E+01   0.177E+01 0.221E+01 -.282E+00   0.778E-04 -.152E-03 -.124E-04
   0.255E+02 0.855E+02 -.601E+01   -.252E+02 -.844E+02 0.499E+01   0.906E-01 -.665E+00 0.108E+01   -.272E-04 0.122E-03 0.179E-04
   0.480E+01 -.665E+01 -.135E+02   -.455E+01 0.686E+01 0.130E+02   0.496E+00 -.835E+00 0.801E+00   -.410E-04 0.137E-04 0.758E-05
   -.323E+02 -.487E+02 -.269E+01   0.309E+02 0.474E+02 0.289E+01   0.199E+01 0.117E+01 -.957E-02   -.953E-04 0.396E-04 -.142E-04
   -.430E+02 -.791E+02 -.798E+01   0.433E+02 0.818E+02 0.733E+01   0.117E+01 -.272E+01 0.160E+01   0.785E-04 -.127E-03 0.162E-04
   -.447E+01 0.108E+03 0.394E+01   0.560E+01 -.109E+03 -.550E+01   -.224E+01 0.985E+00 0.124E+01   0.130E-03 -.177E-03 -.139E-04
   -.606E+01 0.183E+02 0.117E+02   0.417E+01 -.173E+02 -.936E+01   0.143E+01 -.202E+01 -.245E+01   -.672E-04 0.549E-04 -.102E-04
   0.269E+02 0.791E+02 0.103E+02   -.253E+02 -.790E+02 -.101E+02   -.195E+01 0.900E+00 0.106E+01   0.985E-06 0.864E-04 -.192E-04
   -.317E+02 -.897E+02 0.399E+01   0.317E+02 0.902E+02 -.412E+01   0.913E+00 -.134E+01 0.609E+00   -.234E-04 -.141E-03 -.334E-04
   -.471E+02 -.882E+02 -.350E+02   0.440E+02 0.864E+02 0.317E+02   0.515E+01 0.253E+01 0.396E+01   0.112E-04 0.148E-03 -.753E-05
   -.427E+02 -.841E+02 0.193E+02   0.401E+02 0.827E+02 -.188E+02   0.253E+01 0.166E+01 0.229E-01   -.761E-04 0.352E-04 -.212E-04
   0.162E+02 0.113E+02 0.113E+02   -.168E+02 -.105E+02 -.113E+02   0.149E+01 -.200E+01 -.633E-01   0.907E-04 0.477E-04 -.387E-05
   -.203E+02 0.683E+02 0.673E+01   0.193E+02 -.673E+02 -.695E+01   0.165E+01 -.127E+01 0.248E+00   0.697E-04 -.659E-04 -.124E-04
   0.255E+02 0.908E+02 0.149E+02   -.261E+02 -.921E+02 -.146E+02   0.959E+00 0.104E+01 -.928E+00   -.539E-04 0.116E-03 -.382E-05
   0.212E+02 -.122E+03 0.162E+02   -.202E+02 0.120E+03 -.135E+02   -.348E+00 0.168E+01 -.329E+01   -.165E-03 -.169E-03 0.198E-04
   0.583E+01 0.851E+02 -.120E+02   -.421E+01 -.857E+02 0.123E+02   -.167E+01 0.163E+01 -.105E+01   0.239E-04 0.742E-05 -.633E-04
   0.519E+01 -.207E+02 0.604E+01   -.368E+01 0.205E+02 -.526E+01   -.654E+00 0.548E+00 -.170E+01   -.146E-03 0.329E-04 0.259E-04
   -.326E+02 -.949E+02 -.107E+02   0.315E+02 0.961E+02 0.110E+02   0.148E+01 -.135E+01 -.758E+00   -.546E-05 -.185E-03 -.713E-05
   -.310E+01 -.260E+02 0.172E+02   0.293E+01 0.253E+02 -.159E+02   -.255E-01 0.606E+00 -.970E+00   -.323E-04 0.355E-05 0.178E-05
   -.218E+02 -.872E+02 0.267E+02   0.225E+02 0.920E+02 -.240E+02   -.272E+00 -.580E+01 -.322E+01   0.706E-04 0.242E-03 0.464E-04
   0.987E+01 0.342E+02 -.416E+01   -.811E+01 -.337E+02 0.481E+01   -.290E+01 -.103E+01 -.108E+01   -.995E-04 0.771E-04 0.221E-04
   -.133E+02 0.948E+02 -.266E+01   0.121E+02 -.968E+02 0.396E+01   0.109E+01 0.201E+01 -.172E+01   -.273E-04 -.384E-04 0.180E-04
   -.366E+01 0.855E+02 -.218E+01   0.281E+01 -.839E+02 0.122E+01   0.153E+01 -.502E+00 0.969E+00   -.442E-04 0.131E-03 0.181E-05
   0.220E+01 0.907E+02 0.141E+02   -.299E+01 -.962E+02 -.112E+02   -.220E+00 0.543E+01 -.248E+01   -.640E-04 0.192E-03 0.116E-04
   -.360E+01 -.649E+02 0.499E+01   0.193E+01 0.685E+02 -.502E+01   0.612E+00 -.334E+01 -.359E+00   -.876E-04 -.157E-03 -.341E-04
   -.298E+01 0.938E+02 -.225E+01   0.343E+01 -.970E+02 0.665E+01   -.201E+01 0.300E+01 -.491E+01   0.195E-03 -.110E-03 0.226E-04
   0.347E+02 -.968E+02 0.899E+01   -.325E+02 0.941E+02 -.717E+01   -.147E+01 0.507E+01 -.198E+01   0.182E-04 0.108E-03 0.141E-04
   0.326E+02 0.311E+02 -.160E+02   -.311E+02 -.308E+02 0.145E+02   -.204E+01 0.317E+00 0.172E+01   0.821E-04 0.109E-04 -.107E-04
   0.283E+02 -.149E+02 -.140E+02   -.287E+02 0.161E+02 0.136E+02   -.406E-01 -.667E+00 0.117E+01   0.979E-04 0.187E-04 -.746E-06
   -.513E+02 0.322E+01 0.309E+02   0.499E+02 -.298E+01 -.287E+02   0.827E+00 -.171E+01 -.311E+01   -.719E-05 0.272E-04 0.325E-04
   -.390E+02 0.808E+02 0.220E+02   0.376E+02 -.814E+02 -.187E+02   0.196E+01 0.102E+01 -.276E+01   0.672E-04 -.915E-04 -.138E-04
   0.200E+02 -.100E+03 -.117E+02   -.203E+02 0.101E+03 0.921E+01   -.564E+00 -.175E+00 0.280E+01   -.765E-04 -.268E-04 0.348E-04
   -.218E+02 -.112E+03 0.217E+02   0.208E+02 0.110E+03 -.202E+02   -.809E+00 0.221E+01 -.172E+01   -.237E-04 -.220E-03 0.351E-04
   0.212E+02 -.793E+02 -.533E+01   -.231E+02 0.826E+02 0.372E+01   0.105E+01 -.271E+01 0.187E+01   0.196E-04 0.232E-03 0.609E-04
   0.311E+01 0.522E+02 -.246E+02   -.733E+00 -.524E+02 0.228E+02   -.140E+01 0.248E+00 0.171E+01   0.695E-04 -.463E-04 0.143E-05
   0.385E+02 -.106E+03 0.110E+02   -.399E+02 0.108E+03 -.101E+02   0.483E-01 -.125E+01 -.876E+00   -.639E-04 0.143E-03 -.561E-04
   0.272E+02 -.113E+03 0.183E+00   -.253E+02 0.112E+03 -.314E+00   -.174E+01 0.592E+00 0.176E+00   -.818E-04 -.587E-04 -.218E-04
 -----------------------------------------------------------------------------------------------
   -.663E+01 -.774E+01 0.222E+02   0.128E-12 -.284E-13 -.505E-14   0.662E+01 0.775E+01 -.222E+02   -.270E-03 0.215E-03 0.144E-03


 POSITION                                       TOTAL-FORCE (eV/Angst)
 -----------------------------------------------------------------------------------
      4.17269     13.17220      4.00978        -1.029524     -0.381810     -1.892865
     13.70730     12.50440      2.02679        -0.554379     -1.069318      1.232078
      3.78206     13.04370      3.29966         1.089373      0.311581      1.956141
      8.10396     13.23530      5.07311        -1.734721     -2.038020      1.298537
      2.03118      0.35808      0.82478        -2.599918     -0.182687     -0.275721
     10.50270     13.14640      1.73391        -0.120202     -0.936851     -0.555805
     14.39800     13.93310      4.76830        -0.868464     -0.284709     -0.189044
     13.44090     10.76500      0.55552         0.423777     -0.608957     -0.191543
      1.86341     11.20150      1.75027        -0.053439     -0.465521      0.054269
      8.55851     14.29500      2.89662        -0.093902      0.063450     -0.633554
     11.85620      0.82432      5.03607         0.241892      0.751586      0.065981
      3.66834     12.60510      0.69111        -0.324761      1.248154      0.382739
     12.18660     10.29590      3.68216         0.319937     -0.229056      0.169002
      1.76038      1.23647      5.98686         0.054385      0.596876     -0.212401
     10.42070      0.14079      7.11749        -0.340300     -0.190563      0.052749
      3.97328      1.56917      4.08794        -0.655653     -0.396823      1.050605
     13.67690     13.69400      4.65093         1.029982      0.359549      0.041786
      7.88830     10.68710      6.89105        -0.263853     -0.682127      0.124081
      5.09587     12.99970      6.66509         0.314250     -0.302316     -0.417415
      0.70565     10.84370      4.42492         0.302352     -0.411653     -0.128786
      4.78045      0.56700      2.29846         0.008815      0.514119     -0.321759
     10.45520      0.32273      3.58004         1.731336     -0.331275      1.221686
     11.58340     12.69950      4.12676         0.437598     -0.227705      0.322719
      5.19014     11.27370      1.62365        -0.179691      0.634590     -0.034623
      1.19145      0.31437      0.75862         2.688750      0.087007      0.186488
      5.25879     12.42610      6.18270        -0.113248      0.753748      0.541311
      3.51721     13.34310      0.91412         0.248078     -1.206962     -0.369680
      1.35373     14.05130      3.46758         0.501531     -0.852969     -1.875566
      4.29005      1.11488      0.31780        -0.299802     -0.686300      0.653274
     13.16370     13.63510      7.05715        -0.236440      0.134179     -0.142380
      8.81436     10.53260      2.54735         0.863388     -1.510246     -0.349672
     13.43830     11.98330      2.56916         0.616149      1.208794     -1.175485
     12.79300     13.95990      6.48899         0.145625     -0.176332      0.456240
      8.46881     11.12820      2.67595        -0.883830      1.542318      0.313684
      7.61279     12.64530      5.47014         1.685886      2.088994     -1.502287
     10.30070     12.54580      1.28916         0.403983      0.755949      0.665082
      7.05636      0.24774      0.72349        -0.142679      0.675642      1.169797
      8.70671     12.64250      0.17631         0.054036      0.239419      0.102303
      8.48259     12.06580      7.32214         0.052748      0.132115      0.120622
      9.56904      9.79141      4.98588        -0.370329      1.280767      0.321594
      1.52592     13.72550      2.74351        -0.415544      0.819948      1.886975
     14.26720      1.01401      2.24004         0.299281     -0.265733     -0.117894
      7.00693      0.65326      1.39809         0.003902     -0.834213     -1.279104
      4.92484      0.84383      5.72245         0.441725     -0.154077     -0.368810
     12.19640     12.38540      4.44964        -0.638253      0.263729     -0.223338
      9.27499      4.34702      1.64656        -0.279531     -0.326923      0.743996
      4.00930      5.61223      1.90842        -0.149427     -0.302671     -0.613543
     14.00010      6.38872      6.37074        -0.893310     -2.085850     -0.276976
      2.07277      4.41520      4.63996         0.455358     -1.706268     -0.312720
     12.06250      6.40288      0.39378        -0.101198      0.600025     -0.388314
      4.27832      7.19539      3.58376        -1.576104      0.878053     -0.652350
     12.91200      7.94288      1.95023         1.609800     -0.280279     -0.496433
      7.99229      7.45516      7.18052        -1.505042      0.859058      0.683904
      1.99584      8.15262      3.10076         0.475360      0.159059      0.231584
     11.59720      4.33822      1.46802        -0.300853      0.402488     -0.277104
      8.63493      3.02978      7.38307         0.561390     -0.849793     -0.043740
      6.17033      3.36062      3.52051         0.974797      0.165580     -0.025093
      4.47580      1.93810      2.80988        -0.232596      0.256431      0.150756
     12.00840      2.32385      5.28288        -1.144049      0.157851     -0.065425
      2.78528      3.60750      2.41667         0.506064      0.408296      0.111690
      3.75083      5.89446      5.40846         0.773866     -0.689304      0.284956
      7.86837      6.25520      1.60989         0.725062     -0.084339      0.195187
      6.81775      9.61352      6.94239         1.489608     -0.103594      1.039988
     10.30000      1.28265      0.50165        -1.215977     -0.001632     -0.298877
      6.11065      4.83709      1.70265        -0.384381     -1.204385     -0.284388
      1.28443      3.42155      0.59562        -0.430051      1.076176      1.324555
      5.89960      8.87553      3.23379         0.952731     -0.927267      0.542516
     10.14690      7.27653      6.67323         2.204184      0.691935      0.821104
      7.93767      7.58114      3.52614         0.011985      0.298604      0.573199
      0.96024      5.89342      0.41471         0.882321     -1.205573     -0.134448
      9.75620      3.31625      5.33930         0.728866     -0.256811      0.046724
      2.33534      2.62096      6.25910         0.411174     -0.218204     -0.715696
      3.38647     10.25410      5.97189         0.746154     -0.514916     -0.818883
      8.51721      2.72940      3.47569        -0.078953      1.231155     -0.896412
      7.47140      6.18649      5.37114         0.877586      0.401162     -0.989518
      5.43927      9.88883      1.26101         0.384185     -0.170533     -0.415577
      3.17832      6.68965      7.53389        -0.215422     -0.078595      0.348258
     10.07210      8.49697      4.66892         0.449913     -1.210194     -0.592524
      5.87978      4.64151      5.53693        -1.255154     -0.593284     -0.516232
     13.98850      2.35408      1.69359        -0.079821      0.058628     -0.510484
      6.25777      3.27172      7.40302         0.766553      1.136426     -0.022939
      4.59648      1.87416      6.69132        -1.015768      0.103707      0.379952
      3.58401      8.99762      0.30336        -1.054723      0.172995     -0.430606
      9.53703      0.81492      2.66105        -1.647336     -0.135843     -0.688524
     14.02750      8.48018      5.79687         0.657437      2.586537     -0.252698
     14.48590      5.10368      4.26366        -0.673118      0.637326      0.344452
      0.28948      6.64202      2.49027        -0.438371      0.505605      0.759021
      9.74345      5.60589      5.32454        -0.704461     -1.523886     -0.953858
     12.21410      2.47265      0.11154         0.627350      0.498180      0.454944
      1.44019      9.56999      4.82109        -0.954249      0.187608      0.426619
      5.56482     10.05430      5.15080        -1.972884     -0.223298     -0.311604
     12.36260      8.83745      4.01444        -0.811295      0.514959      0.309567
     12.85010      3.59436      3.39299         0.938236      0.039521      0.047176
     14.15640      9.40981      0.47815        -1.313789      0.580814     -0.040099
      1.70688      9.73739      1.39879         0.178034      0.048969      0.072910
 -----------------------------------------------------------------------------------
    total drift:                               -0.002713      0.007003      0.007292


--------------------------------------------------------------------------------------------------------



  FREE ENERGIE OF THE ION-ELECTRON SYSTEM (eV)
  ---------------------------------------------------
  free  energy   TOTEN  =      -637.30204561 eV

  energy  without entropy=     -637.24082077  energy(sigma->0) =     -637.27143319



--------------------------------------------------------------------------------------------------------


    POTLOK:  cpu time      1.7654: real time      1.7663


--------------------------------------------------------------------------------------------------------


     LOOP+:  cpu time   2130.0808: real time   2132.2404
    4ORBIT:  cpu time      0.0000: real time      0.0000



 total charge

# of ion       s       p       d       tot
------------------------------------------
    1        0.562   0.022   0.000   0.584
    2        0.577   0.025   0.000   0.602
    3        0.560   0.023   0.000   0.583
    4        0.537   0.018   0.000   0.555
    5        0.550   0.021   0.000   0.571
    6        0.598   0.028   0.000   0.626
    7        0.600   0.028   0.000   0.629
    8        0.549   0.014   0.000   0.563
    9        0.554   0.014   0.000   0.568
   10        0.569   0.015   0.000   0.584
   11        0.547   0.015   0.000   0.562
   12        0.580   0.027   0.000   0.608
   13        0.561   0.015   0.000   0.576
   14        0.550   0.014   0.000   0.564
   15        0.569   0.016   0.000   0.585
   16        0.614   0.020   0.000   0.634
   17        0.596   0.029   0.000   0.625
   18        0.562   0.016   0.000   0.578
   19        0.601   0.029   0.000   0.630
   20        0.555   0.014   0.000   0.569
   21        0.559   0.016   0.000   0.574
   22        0.621   0.021   0.000   0.642
   23        0.601   0.030   0.000   0.631
   24        0.580   0.017   0.000   0.597
   25        0.547   0.021   0.000   0.569
   26        0.598   0.031   0.000   0.629
   27        0.587   0.026   0.000   0.613
   28        0.568   0.023   0.000   0.592
   29        0.606   0.019   0.000   0.624
   30        0.609   0.031   0.000   0.640
   31        0.647   0.040   0.000   0.686
   32        0.574   0.025   0.000   0.599
   33        0.606   0.032   0.000   0.638
   34        0.642   0.040   0.000   0.682
   35        0.535   0.019   0.000   0.554
   36        0.588   0.029   0.000   0.617
   37        0.581   0.026   0.000   0.607
   38        0.622   0.033   0.000   0.655
   39        0.616   0.036   0.000   0.652
   40        0.600   0.019   0.000   0.619
   41        0.567   0.024   0.000   0.591
   42        0.575   0.016   0.000   0.591
   43        0.582   0.027   0.000   0.609
   44        0.582   0.018   0.000   0.599
   45        0.601   0.030   0.000   0.631
   46        0.756   0.921   0.000   1.677
   47        0.754   0.976   0.000   1.730
   48        0.751   0.965   0.000   1.716
   49        0.746   0.920   0.000   1.666
   50        0.755   0.873   0.000   1.628
   51        0.755   0.925   0.000   1.679
   52        0.747   0.950   0.000   1.697
   53        0.758   0.974   0.000   1.732
   54        0.752   0.948   0.000   1.700
   55        0.751   0.923   0.000   1.675
   56        0.753   0.915   0.000   1.667
   57        0.749   0.936   0.000   1.685
   58        0.739   1.016   0.000   1.755
   59        0.737   0.915   0.000   1.651
   60        0.750   0.909   0.000   1.658
   61        0.747   0.932   0.000   1.679
   62        0.746   0.979   0.000   1.725
   63        0.743   0.975   0.000   1.719
   64        0.743   0.969   0.000   1.712
   65        0.758   0.978   0.000   1.737
   66        0.745   0.924   0.000   1.669
   67        0.749   0.957   0.000   1.705
   68        0.760   0.995   0.000   1.755
   69        0.756   0.887   0.000   1.643
   70        0.750   0.943   0.000   1.694
   71        0.752   0.943   0.000   1.695
   72        0.738   0.949   0.000   1.686
   73        0.784   0.896   0.000   1.681
   74        0.747   0.932   0.000   1.679
   75        0.755   1.004   0.000   1.759
   76        0.742   1.034   0.000   1.776
   77        0.746   0.943   0.000   1.690
   78        0.742   0.941   0.000   1.682
   79        0.751   0.949   0.000   1.700
   80        0.742   0.943   0.000   1.685
   81        0.747   0.956   0.000   1.702
   82        0.742   1.028   0.000   1.770
   83        0.748   0.993   0.000   1.741
   84        0.741   1.045   0.000   1.786
   85        0.747   0.947   0.000   1.694
   86        0.745   0.916   0.000   1.661
   87        0.749   0.948   0.000   1.697
   88        0.800   0.917   0.000   1.717
   89        0.747   0.949   0.000   1.695
   90        0.742   0.942   0.000   1.684
   91        0.775   0.933   0.000   1.708
   92        0.736   0.941   0.000   1.677
   93        0.741   0.910   0.000   1.651
   94        0.739   0.936   0.000   1.675
   95        0.740   0.989   0.000   1.729
--------------------------------------------------
tot         63.675  48.540   0.000 112.215


 total amount of memory used by VASP MPI-rank0   153874. kBytes
=======================================================================

   base                                    :      30000. kBytes
   nonl-proj                               :      29044. kBytes
   fftplans                                :      30753. kBytes
   grid                                    :      23712. kBytes
   one-center                              :         18. kBytes
   wavefun                                 :      40347. kBytes

  
  
 General timing and accounting informations for this job:
 ========================================================
  
                  Total CPU time used (sec):     2181.957
                            User time (sec):     2173.852
                          System time (sec):        8.105
                         Elapsed time (sec):     2184.198
  
                   Maximum memory used (kb):      346236.
                   Average memory used (kb):          N/A
  
                          Minor page faults:       226417
                          Major page faults:         1154
                 Voluntary context switches:         3051
