LAMMPS data file via write_data, version 2 Apr 2025, timestep = 1001000, units = metal

1000 atoms
2 atom types

0 23.421269014615625 xlo xhi
0 23.421269014615625 ylo yhi
0 23.421269014615625 zlo zhi

Atom Type Labels

1 H
2 Si

Masses

1 1.00784
2 28.0855

Atoms # atomic

368 2 5.217686475254842 4.511375593611833 0.561410337191063 0 0 1
799 2 10.58398814903316 0.5191969765805333 9.25034725958691 0 1 1
864 2 4.288789458469958 2.3661187569296867 0.7710101874884903 -3 2 0
752 2 0.6569252566976255 2.083647639171881 0.4621504528052354 0 3 2
666 2 5.397335011039657 2.0639282915524046 3.404688562677779 0 1 1
844 2 2.2652868853666916 2.830191999859399 2.775167835549668 2 1 1
575 2 10.447263438466635 11.221127429419685 1.4176662459335978 0 1 0
768 2 2.6643258257428166 0.8818542253676817 4.3174338492751545 1 0 0
422 2 7.133841857672187 0.12175954248772723 4.118800351045218 0 3 1
604 2 5.395743919752543 0.7753787391983971 5.6029634572341305 0 -1 1
953 2 4.537691286464909 4.097718896544722 5.11921752386793 1 1 0
306 2 1.1024864976571631 5.833517137545567 3.443784588124807 3 2 1
565 2 3.261668372187437 4.796280504648912 2.650268467845335 1 0 1
772 2 0.3699697129677808 0.506323992465451 4.831902874380694 1 2 0
952 2 5.650235857118749 5.206316649615776 3.0603546355597238 1 0 1
540 2 7.462386395064237 2.896781677638599 2.174742688629688 2 1 0
754 2 9.731853278488948 0.29436916387966583 2.706477510396809 -1 -1 3
508 2 9.962466377362352 3.6318903452714686 3.581904889841695 -1 1 -1
722 2 8.002752397618611 4.965637979209387 3.5011235280708823 0 2 2
432 2 8.380309876076844 5.417876458836942 0.9589283727620344 2 0 0
596 2 8.596519629203407 1.7139235535351445 4.152754416979891 1 -1 0
663 2 10.745692346260007 3.888919977281913 1.483067446095638 -1 0 2
193 1 7.580509420945985 9.934916739573099 7.259635544517231 2 -1 2
502 2 5.93185156217757 0.7032859185510385 1.348995251188748 1 2 1
231 1 4.168313052370739 6.282936538368777 6.4410805994955425 1 1 3
100 1 6.176079408604745 6.538226470155609 10.65599075189786 0 -1 -2
182 1 1.2390278270223962 6.956409504064623 2.4198980427772807 3 0 1
408 2 0.6258801721199685 10.88858876985643 2.1643520588542247 2 0 0
880 2 4.199295740462452 7.652168895944976 2.163064652742239 0 1 -1
957 2 4.035226349578748 10.908370528015126 2.517491911267883 0 -1 0
740 2 1.516689453009361 8.838553075201323 4.598745540102562 -1 0 2
633 2 3.5632536835973863 7.985882401935061 4.966745979498594 1 2 0
474 2 1.9713271419973406 8.60552061069401 2.3482483439264876 -1 2 0
190 1 10.756259550177827 9.311418914489463 7.7376099948248935 -1 2 6
344 2 5.869456541891756 0.026877362707573862 11.111266043871352 1 -1 0
78 1 2.2079428531747562 5.520201910288539 4.544015858240221 -1 0 -4
200 1 6.664842412907998 8.77784418497421 2.465311505289764 -2 0 1
281 1 5.754572291109427 9.777634405046989 3.58502919906695 1 2 1
125 1 8.002739060203343 10.543679325998719 3.2185895682141274 1 0 -2
14 1 4.965596411137722 9.613731510287455 1.0019379091933427 -1 2 1
644 2 10.271562914991755 6.0947073577721245 3.0116659922740143 1 0 0
389 2 6.880156199354663 7.991015978283411 1.3185967557362883 0 -2 -2
601 2 8.973296873960528 7.833405299388571 2.3911752589811934 0 1 1
305 2 11.42281466887689 5.526048608210641 4.7564630579135905 0 -2 0
443 2 11.565151333603842 11.584693099369947 4.1912088508245455 0 1 -1
929 2 9.293620440171823 10.108513147183913 3.166951951189377 1 1 3
322 2 9.401035211439764 10.653521655097538 5.501407056569085 1 -2 0
787 2 5.678042848190866 10.964306413948501 1.0817343036118097 -2 0 0
462 2 7.927230954807181 10.475631230954164 0.4089828844285994 2 0 0
810 2 10.517089234912213 7.422715345159106 0.5444456213353329 0 1 0
270 1 1.30716795399544 7.110840418094384 4.449679935565276 2 -2 0
649 2 8.912289221602768 6.431812040533924 5.07031796507872 -1 -1 -1
926 2 7.6570320196157065 9.201074728154216 6.019448462783051 0 0 -1
52 1 2.0306348926606526 2.6381793150095945 10.380024501457758 0 0 1
581 2 9.29715503444171 0.011122223319990911 0.1678077093497267 1 -1 0
993 2 2.459450283076296 4.276028866310454 5.86388365073655 0 0 -1
392 2 2.4399266208550077 4.4868880441578085 10.351552938733704 1 0 2
339 2 4.322336110989226 5.199257039852427 7.588039284230041 1 -1 -1
336 2 5.216108768156678 1.4551676128379092 9.149385084380558 -1 3 -1
243 1 4.7679454161948875 6.568069371179528 9.308089977513946 1 -1 -1
254 1 1.6506081688889436 1.8801801841337618 8.784987518186309 1 0 1
912 2 3.664113088037257 1.58878297733989 6.5457787169606885 0 -1 1
320 2 4.687943408548059 5.463649923529031 10.890213138782915 1 0 -1
567 2 5.45271606993362 3.5436573719504074 9.989195759318415 -1 0 1
861 2 0.5091814687303644 4.459856787811052 8.827940643640584 0 1 -1
18 1 9.566423069621953 9.043736643565852 5.036167717522064 -2 -4 -2
959 2 1.1760337799662883 3.0045597521796354 7.479702068267195 1 0 2
42 1 3.2315264229879954 4.83489983769856 8.589297593366092 2 -3 -1
155 1 5.390914102951828 2.6395303374082526 6.991298149654046 -1 -1 3
590 2 2.531540876053579 1.4599405102145626 10.949915962364706 2 0 -1
486 2 11.513612768541531 3.4682649039761353 5.8276010423807945 1 1 2
626 2 6.686405378413102 3.3221789941764808 5.682065363633626 0 1 1
822 2 0.47640455050480485 8.484649949162732 0.5558304037195348 -1 0 2
662 2 0.15716672946522867 6.584900360856928 9.945516509443712 1 1 1
809 2 9.748161644779431 2.625507466366398 10.623994965855559 1 1 1
910 2 7.91875350974066 1.2170266756412997 9.965068367442468 0 1 2
679 2 8.178159474517203 0.40407631447913367 6.4080507073117134 0 0 2
790 2 6.406884015151705 5.9193066899912266 8.020065669978125 0 1 1
901 2 10.095581732600115 2.033103082471398 7.164054759606901 1 -1 0
77 1 5.291760666933887 9.038926039334648 9.664811432928493 1 3 -1
477 2 7.749377794720257 3.511707842380714 8.929697401617226 -1 0 2
456 2 8.44423021086755 4.296547240569253 6.416317539786525 -1 -2 -1
814 2 9.181478956396496 5.395872264086448 10.706730927880237 0 2 0
913 2 9.666154150124122 4.69004892619502 8.569288585485708 1 -1 -2
121 1 7.064038952254305 1.907237578396469 5.998799305833465 1 -1 2
22 1 5.307095499268273 10.106093331359311 9.937403106394278 3 -2 0
239 1 6.267285616086606 7.292424094920525 4.856272134886254 -1 2 0
213 1 5.190217572183901 8.008989554802206 8.5055655507714 2 2 -4
673 2 3.1011525616505335 9.795585000268101 9.980369706804371 -1 -1 -1
924 2 4.853378333784612 9.152252351841408 7.263938275303967 1 -1 0
186 1 2.7256011810555143 2.5700889914929954 0.8692886624275439 -1 0 -3
816 2 0.2870050657015326 10.221105260588466 6.642782851799713 1 0 0
731 2 7.126878265328005 8.772113534582823 11.658055953513383 -1 1 -1
441 2 1.522173378403499 6.425748408542515 7.383015366684188 0 1 1
421 2 2.5713607087459986 7.77919990369772 8.928841062154598 0 0 -1
308 2 2.6039732134012836 9.698408824208126 7.272177986513059 2 0 0
813 2 5.387688330153763 10.12132845792113 5.093460002441176 0 2 -2
423 2 0.6858668852513702 9.422297177175405 11.228918265449025 -1 1 0
492 2 2.3341460613848004 6.962639618546747 11.180953408922381 3 1 -2
699 2 4.758565173522479 7.816521055932252 9.962885017826329 0 0 1
313 2 1.3310189736395013 11.119626897285082 4.51971902386033 1 0 1
717 2 0.476365051484993 10.529964670369502 9.008458035901702 1 1 0
376 2 7.169728682260845 6.869583535512965 6.188382505467594 0 -2 0
250 1 7.734352138185215 9.646002640872089 8.936039909945553 -2 -3 -2
807 2 8.801476910507539 8.916246335518322 9.430166037005174 0 0 -1
337 2 10.427775938464585 11.134009990570204 10.561095870686572 0 0 1
815 2 10.617745446380292 7.792136329517984 6.399681557983815 0 2 0
206 1 9.187645829754496 9.416902674665312 0.5423438162026679 0 1 1
202 1 5.5214902689919985 6.960134023149333 3.08859415194632 1 1 -1
779 2 0.05654385596652116 3.7884601113182015 3.553506478719684 1 2 0
517 2 7.494767127124098 6.817489324034183 9.698984858141472 1 0 1
891 2 10.063851400355482 7.177171477392142 8.815959824369862 2 -2 1
687 2 6.863366358606783 11.227914400410812 11.610098653053521 0 1 -1
405 2 2.5278446762282707 4.737211843622916 0.5756776478117813 0 1 3
279 1 7.382970660903394 10.478691289364468 10.365249860842862 -1 -4 0
782 2 1.5821040745039328 0.016656142476797697 9.479521521624168 2 2 1
333 2 3.415947195840046 11.623051477330591 5.2263643188848 1 -1 1
888 2 0.28240255214810406 4.541856191514755 5.978453645071233 2 0 1
659 2 11.62313906418903 10.313158806843859 8.943849967496636 0 1 0
172 1 11.256954992287081 9.79745065631455 6.059514924632645 -1 3 1
261 1 8.072657009785253 4.676140426646752 11.604876907892109 -2 0 1
998 2 2.614939061326021 4.382136569664842 13.34878032333826 1 -1 0
915 2 5.641826551850146 3.591232170991617 12.425655631110743 -1 0 0
820 2 2.1319653649781256 2.266006038750797 14.423904981604403 -1 0 -2
603 2 4.153423349417378 1.872463567294278 12.365136886442093 1 1 0
346 2 3.369745489171914 0.38175882824332 15.973645726953649 1 0 -1
291 1 1.0639998779971043 1.3095780047004861 11.887301895383935 0 -3 -2
459 2 0.6350253142063531 3.6906562546348427 15.724571297660129 2 2 0
151 1 1.0250847131416705 2.1066600613516853 13.12903497709947 -3 3 1
621 2 0.4983890464503899 5.09483869130828 12.87026702522586 0 0 -1
521 2 4.972038123534131 2.4663636189219993 15.666311393089973 0 0 0
425 2 2.081134880587188 7.123822737866428 22.81748376942656 1 0 0
605 2 2.9625462833273613 6.086698939064767 15.423994452340633 -2 -1 0
48 1 6.091975188418751 4.98810348792629 18.303700039940413 2 -4 -1
19 1 11.368202671860276 0.9542371506463337 16.160711965414485 1 2 -1
274 1 0.3290112181559424 2.5954110393601857 18.24136535710176 3 -1 2
561 2 4.648729349326377 4.142484553615436 17.725281460226608 1 -1 0
444 2 6.386191710309075 9.949399692756216 20.24090230278784 0 1 0
325 2 6.1311355038330495 11.350211694820072 22.331065732212725 1 1 -1
548 2 6.8952796482897005 1.3757700957102008 13.48150210895492 1 0 -1
874 2 5.6685755156641715 4.364190823751186 14.585500259620476 2 0 -1
968 2 7.955634967678004 3.463717759719237 14.036023425226109 0 -1 -1
881 2 8.99727717919151 1.8619582483830432 15.092871485087677 0 2 1
904 2 11.67487680293933 2.545120819269219 23.331957611218133 0 0 0
495 2 7.239742405559193 2.1054928603294427 17.300260112642516 -1 1 0
832 2 10.658025056688425 4.317988276721586 11.842932591411232 0 0 -1
1 1 10.283900758268611 5.3198228244685 16.317672251260905 -1 2 -2
88 1 6.929417554548969 9.092365260000891 17.466362321130116 4 1 0
934 2 9.655389143094045 1.1334322818017988 12.807984751751006 1 -1 0
127 1 11.496467596896823 0.6229070912193542 15.492494581564575 -2 0 0
20 1 7.696724679530786 7.74879772392463 21.560068231070872 -1 0 -2
217 1 10.819294148391213 2.733756046647723 15.910508692753833 2 3 -1
560 2 7.63445478972745 5.102411459278229 15.938507856784868 0 0 0
146 1 9.592991093213172 5.7110819090466665 16.67926429914746 -2 1 3
175 1 5.020665257180254 3.1553422090545165 23.055072503022892 1 -2 -1
228 1 9.592078739545784 6.568858148384036 11.986107545175686 -2 0 1
654 2 4.006124356746037 10.869440154262136 17.38070942499732 1 -1 0
286 1 4.843448300117986 9.43010361004985 14.593979613636971 -1 0 0
316 2 10.770620515612407 8.606286364602672 21.9993579951554 0 -1 -1
387 2 0.8093779766493199 7.537727437258918 15.369798420165276 2 0 1
871 2 4.163037300163597 6.122704977602081 13.12335835464811 1 1 0
358 2 2.563621571341931 9.796605072674327 15.228845185836136 -1 -1 -1
51 1 3.3126188398389638 8.796225028378165 13.891210255547849 2 1 3
435 2 3.3566597011738404 8.736895435119285 12.356437216862906 1 1 -1
770 2 11.378421276232453 2.916345754611852 18.588831085685968 1 2 0
27 1 5.099496247387138 9.02391493547085 11.978224580011437 -3 1 -2
858 2 0.6043471509563724 7.327563770386782 13.04763909227142 0 2 0
326 2 1.00866709012381 11.332834282400034 14.451883485027212 -1 1 0
238 1 4.615839397036793 8.067901025001015 16.503246771232853 4 2 -1
367 2 7.020009711313878 6.152508487177601 20.859408917322583 0 0 -1
454 2 0.5830355616583165 11.050679226452297 19.980626732841067 -1 0 1
981 2 5.944832987613424 6.630239794605898 14.871482208880659 0 2 0
277 1 4.375469772428785 10.650331726578752 14.311668095458613 0 -3 -5
651 2 8.603042263369442 11.046872403164079 19.72073376362254 0 0 2
255 1 3.2161090384063353 5.257299376718273 20.644481915123368 1 2 2
297 1 1.9872279553700034 3.3863957787093275 22.715290384208902 2 0 -1
515 2 3.227171420069337 9.025254440779923 18.38429231882307 -1 1 1
672 2 8.979002226447879 9.981067873228351 12.209554840521122 1 -1 0
469 2 5.66200060667587 8.70643824187048 15.866024345766602 1 0 0
976 2 9.668556858817123 10.106159924877417 18.08084825657026 1 -3 0
985 2 10.831039784929908 9.892581011653613 14.33986214018031 0 0 -1
877 2 8.098930149677077 6.265215490953394 13.573370724023034 1 1 1
736 2 8.099544974646257 7.248560879976505 16.927092152088516 1 0 0
519 2 6.462957936634947 10.592210001834282 17.233600240989098 1 0 -1
935 2 8.96387989084346 8.355063403659855 14.6326772571714 0 0 1
776 2 7.1161249925772845 10.274246947645565 14.505467377888444 -2 -1 0
187 1 3.3015912207948412 11.690820327125358 12.129071895898486 2 0 -2
300 1 6.892431771103213 5.582446896761081 12.431226882302038 0 -2 0
195 1 10.777082756618482 9.43195480453569 19.238331378071553 -1 2 -3
158 1 8.136127467386617 11.316525938914673 16.35587982673792 2 0 1
439 2 10.655364281142019 6.456277877433432 13.49941146400722 1 2 -2
569 2 8.470982489741667 7.652153173899142 23.118038584366225 1 0 1
223 1 6.57703108350567 8.620041530275069 13.134017836527198 2 1 -2
402 2 8.139221611652209 9.622837755848769 21.56288721469735 0 0 1
587 2 9.37959616003549 10.91658411851962 15.820331259717367 1 1 0
554 2 2.9001867715889444 0.9036794649359697 18.402975199492023 -2 0 0
140 1 3.816491721618907 4.2526932759502065 22.387956207806276 -1 1 -3
165 1 1.8437000875261922 1.5594174412626487 20.400248166543342 -4 2 1
805 2 4.420788011034011 7.109420405778113 23.080477115398853 -1 0 0
967 2 0.9847278034671869 1.5100611583216705 21.60570855910765 0 -1 -1
409 2 4.32782280927478 5.462334288182158 21.613332485633737 -2 1 0
478 2 5.868477823758264 0.5067954343322826 20.095559040049626 -1 0 0
867 2 1.7305810619830149 3.087324727628916 18.900003861614294 0 2 1
777 2 4.046660203510687 1.1217152441359073 21.394812798704226 1 2 -1
276 1 0.20330650817948684 3.5728240260222743 17.912217915151267 3 2 -3
780 2 1.036154251231736 5.10621059309655 17.24610310860242 1 -1 1
898 2 3.938441869470026 2.7898488926080547 19.541633190108055 0 -1 0
734 2 0.12346145170417182 4.406949736246708 19.877379806030405 -1 -2 -1
152 1 4.432661615873099 1.942938309432958 18.107992651900567 0 0 -3
544 2 4.528899729768468 6.294172748352985 19.096357900867247 0 0 -2
629 2 0.7510121947225079 5.03913600189233 22.19910520340421 -2 -1 -1
742 2 7.712157969302944 4.343934722646248 22.353240843086027 1 2 0
795 2 8.008866066209096 2.2058017132084857 23.40537618775421 0 1 -3
157 1 8.926736868830453 4.005332134496782 16.913696475602872 3 -1 -1
460 2 10.384922692464592 6.244334678675544 18.738383658920842 1 0 1
514 2 10.114901014734183 5.546934730362914 21.22714403472748 1 -1 -3
458 2 7.478318472486454 3.3299880621151776 20.02266280143608 -1 0 -1
464 2 8.920040125616454 0.6157860266344417 20.090978811416623 0 1 0
558 2 9.936926643691338 1.6557317932233269 22.14575931403739 0 -1 -2
345 2 10.097368780937066 8.33247406605577 19.973154613777346 2 0 -2
7 1 5.821486568742391 2.485983485985302 20.141713673979684 2 0 2
388 2 6.573457712391501 0.31963191542136044 22.28094923387991 2 0 0
583 2 9.394410243350668 4.12647648953545 18.76591273862874 -1 -1 -1
226 1 9.590799619966138 0.4816842011371512 17.15871367293694 -1 1 1
725 2 11.522345911523582 3.655028394298946 21.319624657944633 -1 -1 -1
138 1 9.798114301825612 1.2916246832231506 17.406370271561077 -4 2 -2
382 2 6.726660518538436 0.035420534029148146 17.874622017574463 0 1 0
118 1 6.446249696302575 4.1432911352892745 19.167647316048992 -3 0 0
154 1 8.661493578553744 6.5798997995520185 20.475846348475812 0 -1 -3
96 1 6.178614492080758 3.4202142880442055 17.427909826111843 1 2 -1
513 2 0.9302183099184133 11.61151225893222 11.976498382516029 0 -1 0
311 2 7.1377540827597805 7.795311176622274 18.909848852357303 -1 1 -2
668 2 4.117684822248206 8.665868105856003 20.750008677454 1 0 0
335 2 1.5047034999507918 10.892326073180655 17.996570086784388 -1 -2 0
35 1 5.8627661285436705 7.275362024734755 18.075464956040985 3 -1 -3
357 2 3.481292589308445 10.110007572072048 22.485744441951443 2 0 -2
184 1 5.03146477032632 7.631436468327713 19.925706876197896 -1 -1 0
549 2 2.097978896069021 7.1154006131167735 20.62385959190024 1 0 -1
156 1 5.313525440432272 8.138782945896162 22.14918606292686 2 6 -1
732 2 2.629254729096402 6.909494733059022 17.648158960050836 2 -1 0
893 2 1.2420991159652501 9.540320364495798 21.882550965943423 2 0 -3
828 2 1.069491682282078 8.58902427070595 19.182188525201017 0 -1 0
166 1 11.631852126559494 7.292281739960677 17.350578555192858 -1 2 -1
241 1 1.2800210143238078 3.2757840951890342 21.181429773388313 -1 0 0
139 1 3.3788110688354687 10.209352780680684 11.78620580930962 -2 3 -2
650 2 7.583843729216785 2.8455856752383246 11.727332381901192 1 -1 0
657 2 1.3077506752887003 14.828259207136908 3.8682129650187917 1 -1 0
442 2 0.10281869335301812 17.763583084010836 5.677898044459222 1 1 0
678 2 4.111052869123746 16.746010819273305 1.7535691096314954 0 2 0
694 2 4.183764687162965 13.608883945163466 3.320930602414888 1 -2 -1
992 2 1.449864390521978 14.616868717088714 0.7505267865138753 0 0 1
931 2 6.5433929619488 15.29541708345122 5.056956127258012 0 -1 0
340 2 2.3482671237417136 12.712287857901071 1.9800219371165841 0 0 2
97 1 11.38170591548812 17.91241269228215 3.795695119914437 -1 -1 1
656 2 6.001094370186774 14.140599989013193 0.47631309149683815 1 0 2
648 2 1.7387591911119131 17.15299290840714 1.1458807877804562 0 -2 1
631 2 4.653288733112589 16.598143103351962 3.8207774560657506 0 0 1
518 2 1.8318804031460423 17.032680831093437 3.619893332478339 2 -3 1
282 1 8.778808263391058 13.00185673095273 9.480973832829546 1 1 -4
988 2 7.33685070988292 17.32825610928047 1.8022011081598068 0 1 1
204 1 10.367209637697876 13.629542469198908 0.9830078360611504 -1 3 2
741 2 5.84446205961245 12.65816634380022 4.914168400885061 1 -1 0
386 2 6.893246984837173 15.36719241397733 2.791567726937353 1 1 1
999 2 9.576812724807642 14.857904632886067 5.863553148389792 0 2 -1
562 2 7.973385809197499 12.60192022104249 0.6812373056681044 -1 -2 0
616 2 9.17822496403526 13.543837039634427 2.3027568960447873 1 1 1
555 2 10.165565734135367 15.698895314176173 2.7680867127270274 -1 2 2
537 2 6.173367762445987 12.789007802121269 2.6353938228428504 0 -1 -1
391 2 8.116460352002404 12.791225601152357 5.464637492290709 0 0 1
824 2 9.834510326962949 17.28168380786825 4.782099944215787 -1 -1 -1
831 2 8.252118654327564 15.35344855340656 0.8775540890831807 -1 -1 2
520 2 4.134427161535266 14.05064828539197 11.254947505184223 1 1 0
132 1 5.420168706777238 12.796773417659288 10.268508014039709 -1 1 0
946 2 10.962143789838835 17.3121505476163 0.9349813875177266 0 0 2
905 2 11.492510611573666 13.186272374811919 5.977155622817449 0 0 0
643 2 5.1119935422810165 20.997037858881896 0.6010915164883434 0 1 -2
806 2 5.205715775060925 18.890850709414398 1.8475058816748624 0 0 1
710 2 3.5421579907980454 22.90997665453686 0.7769118705343179 1 -1 1
854 2 1.1757403635051733 20.49211174173415 3.4728735165992424 -1 -1 0
843 2 3.618977635481043 20.515212095339898 3.14399725613027 2 -2 0
829 2 1.2392916793290947 22.640054974129825 2.5371358848355365 0 1 2
786 2 2.6085772186729232 18.44776216948595 4.8802202617149 1 1 0
475 2 4.350083287713462 21.32521284270185 5.42565368085562 1 0 -1
17 1 10.438163945143911 12.644330180494828 3.290238969325611 -1 3 1
21 1 1.5555122645947563 18.981484432685296 5.923790419597162 0 -2 -3
429 2 10.70931506351052 22.80141732255429 5.975752622850522 0 -2 0
2 1 11.09057660697697 17.37983147517616 11.532724202528785 2 1 0
868 2 6.910262613884238 18.498729461468987 3.797570539616996 0 -1 2
479 2 5.758799568395172 20.855906065731165 3.1686358285024214 -1 0 0
433 2 8.4528160958261 21.694931464695266 3.10224448224118 0 0 0
54 1 8.308804962519693 12.438979534039989 6.862728204955667 0 1 1
797 2 11.045894469938464 21.58798087559836 0.8165566821412906 -1 -1 2
410 2 7.76387832240176 19.75185863973049 1.6057151577895132 1 -1 0
826 2 9.420514157220895 19.43492598739847 3.742231194573253 2 -1 1
329 2 7.225136132252148 22.09019776127129 1.2979098707729613 1 -1 0
636 2 10.063981494356582 19.34018942284873 1.4752068910799128 1 0 2
25 1 6.093054403543899 13.851157521480566 10.652620874891406 -1 0 0
529 2 8.371925336562468 21.29071229985225 6.114997967478083 -1 2 0
356 2 10.491269861894146 20.28564272729632 5.589524475519273 1 0 1
49 1 7.328203350958812 21.142990247981277 3.745772195202137 0 0 1
453 2 2.741827484751301 14.581483368583523 5.668270419183558 1 -1 1
727 2 4.196510650701667 11.85372158159845 9.605584009280856 0 2 0
758 2 2.8476857840448964 12.011259267871095 7.589124368715054 0 -2 1
833 2 0.6938725761906228 15.556600450403343 6.440499734312025 -1 -1 0
373 2 1.9548046368756793 13.842978185205856 9.646173482042789 -1 1 1
830 2 5.254428892573138 17.84169406602047 8.17742235411888 0 -1 2
530 2 5.283206199267342 11.81880670814796 7.462299087531033 1 -1 1
525 2 2.4065759279682477 16.489287749624264 7.6577653222563775 0 0 0
542 2 4.141427972910207 14.705787901971913 8.509834605265143 1 0 -1
994 2 1.5794063509728342 16.22366847057124 10.37544393486964 2 0 1
800 2 0.598222413120519 12.62597239458469 7.586789030083594 2 0 1
126 1 0.6119243889237674 17.16980736078463 8.708385362101396 2 -1 -1
624 2 11.017649348484342 15.218241717902329 0.057872428684185774 -2 -1 1
363 2 6.734260292955398 17.319867759085994 6.5957920734512525 0 -2 -1
249 1 10.94569618238659 15.715280109745867 7.823882926276288 1 -4 -1
796 2 10.260220027563786 12.77787334789717 9.338502550217974 1 0 2
212 1 10.775917327335856 11.932499486732617 6.680961493351475 1 -1 -1
769 2 9.518815129414522 16.160897191654314 8.235836072923494 0 0 1
612 2 7.846167340960192 20.821912448753174 8.257415257249084 -1 -1 0
43 1 11.02097313049155 15.109496310279294 5.786461446332126 -1 1 1
801 2 8.52300954458208 13.975168657875464 7.516698736058912 1 2 0
104 1 11.489181730596846 13.250810763941363 11.14065804225279 -2 -1 -2
559 2 7.939993539656377 13.356884625075933 10.840508825724548 1 1 3
911 2 11.630362394556784 22.94849308778434 3.9359804090038595 1 0 0
406 2 10.232597168686922 15.264601831295911 10.220812663933573 0 0 1
394 2 6.28038718999904 14.524573046791673 7.48346667665488 0 2 -1
99 1 7.227635814499251 14.60349542187736 9.557688046103458 0 -2 -1
319 2 6.049447787145734 15.94630967264604 9.872571975053395 2 0 0
501 2 7.955071230013355 16.521534258744406 11.520522553954187 -1 1 0
775 2 4.079539090159509 16.969186420855934 5.995724020354725 0 0 1
198 1 0.7098013302324712 21.813903407206627 8.485786835517578 -1 1 0
5 1 8.053223477729063 19.698952213614767 5.982909762975615 1 0 0
991 2 0.5753105369939876 18.71209741667203 7.751484710479865 1 -2 1
841 2 4.403373626486793 23.009940393081862 3.347537329789718 2 -1 1
545 2 4.821728012140934 22.4804706086114 8.985759648266157 1 1 1
434 2 4.779048669189005 18.100844161968876 10.752090198428425 -1 -2 0
640 2 2.082924616447289 21.40264628032574 6.110897154910279 0 1 0
812 2 2.5016368311813495 18.300295735199267 10.590297278357706 -1 -1 -1
884 2 2.83696350058411 18.789544961586973 8.311219076813396 0 0 0
403 2 2.24386487491499 21.385701361726962 10.077727084445662 1 -2 2
30 1 2.2589021425563782 20.301796684782964 7.166314789270074 2 -1 1
455 2 4.692535653448674 20.0381003265172 8.72615594385485 0 -1 0
697 2 11.319470367855091 20.530635137013498 3.083650514351376 0 0 1
147 1 11.705296354545684 17.540724758368867 5.36818239896554 2 0 2
80 1 1.3403078078312294 20.013036666598865 9.535669211737272 -1 0 2
123 1 0.1339662050693641 16.50017054759003 9.880740166070629 1 1 4
397 2 11.006988362589125 21.121132548244155 10.953739434192793 -2 -1 0
374 2 5.796748543979135 20.097527873774215 6.558766280275683 0 0 0
842 2 6.194217934322519 22.66412810865119 7.203683241944308 1 1 1
759 2 2.9875902682607505 23.25764198314873 7.624391015796168 2 0 0
128 1 0.2832814947810563 18.284006806817946 1.655995653062944 -1 2 -2
440 2 8.86751241381662 18.186853779633452 6.898289339632344 1 -3 -1
40 1 6.702909069214446 22.686563931184843 10.087711972551515 2 -3 1
645 2 8.587738676157795 18.696570404183465 11.353581948331836 1 -1 1
16 1 7.509208104666006 19.2522236494348 7.975511237756763 1 -3 -5
969 2 8.523701267846949 22.44685070292556 9.79180514007815 0 -1 1
665 2 9.887425806187832 19.253132857732282 9.398730828520025 -2 0 0
383 2 6.700939292851448 19.47861368247439 10.047131158196374 -1 0 3
178 1 11.421797853969244 17.617550923884142 6.161475078067837 0 -1 -2
265 1 1.2607406922426143 18.689697300988076 11.672133806701751 1 0 -1
24 1 11.346480263880489 19.761441393494177 11.642375132970486 -1 0 0
683 2 2.0021956366596054 16.20089979549337 14.653508865813876 1 1 0
960 2 3.7544605748928035 13.979819076228805 15.183345505846296 2 1 0
592 2 0.31367746297061144 15.003596765767949 17.003646882002506 1 -1 0
834 2 5.714472299842191 13.899898850158634 16.553387263639074 0 -2 1
256 1 4.427234608886446 14.122186158311528 19.164566153185515 1 0 2
498 2 3.6873225607907516 15.586626028744307 12.903824283816647 2 0 1
944 2 2.3126617607647115 13.922704300456871 12.81911541016309 3 0 0
642 2 1.6634536231392578 16.941108285898785 17.0401377078719 -1 1 -2
900 2 2.2206548263740746 12.58035174117994 16.52010032364637 -1 0 -1
350 2 4.2087332324640245 15.248484671959833 17.386916127379013 0 -1 -1
896 2 0.45593375661071067 14.810527515527992 20.724271249239944 0 1 -1
418 2 0.6149671521740507 16.670563496740563 12.615780343818136 0 0 -1
1000 2 1.017413782921015 14.23158418818596 15.000770292731714 1 0 2
134 1 5.215476925235009 12.817556537373619 13.62732596998684 3 4 2
273 1 8.507912819296251 14.149924047137821 14.812631447796958 -1 -1 -1
975 2 9.560954267439701 13.18939114512333 15.095795001865287 -2 -2 -1
749 2 6.281424598718198 13.571968879383887 12.652463306354248 -1 1 -1
334 2 10.944530642140602 12.947030686079714 17.321302466226236 0 1 -1
353 2 11.644679243951341 16.372042645839812 14.227034712094692 0 1 1
837 2 10.085309145092461 16.985311364689252 12.55194372473698 -1 0 1
534 2 10.140652051533356 18.147456657526014 15.42162086482818 -1 0 0
257 1 0.6499886300870309 23.34227397108051 20.176957485436134 0 1 0
253 1 7.9695360712299665 14.967260144233162 11.799247095553293 1 0 0
251 1 7.609749850857237 12.41625185304366 14.890101993687335 -2 3 -1
869 2 6.280713995036906 15.69418023878547 15.008410779605029 0 0 -1
872 2 6.6823449423114765 16.087318463505788 17.35812081506791 0 0 -2
164 1 9.473134113901322 12.65124567691038 12.266429997417129 1 -2 -1
37 1 9.772491746953905 13.259554313181658 12.057901024039166 1 1 -1
963 2 5.663541473986556 15.675892062868057 12.482204604011214 -1 -2 0
218 1 9.165238061518714 15.948094325711455 15.475220542062726 1 1 3
283 1 9.838864228027303 15.76832002540608 15.429703964175175 -2 0 1
289 1 11.205896395710438 14.65278926848082 13.979901914084909 2 3 -3
72 1 4.810338128047546 22.96620570600756 20.068428160691457 2 -1 -2
122 1 3.974220485504711 19.56236328645247 17.781279484236613 1 2 1
205 1 1.765234811944059 17.947956945073127 13.128014225920449 -1 0 0
491 2 0.4306443921869754 19.732221221567244 13.74517472970825 1 -1 -1
792 2 1.392346273635524 22.94687924137187 16.84649694938016 3 -1 0
632 2 3.4216185301644515 21.493661170997612 12.046114353082366 2 -1 0
755 2 3.60553985573237 23.32919521082931 13.647720115912044 -1 1 0
576 2 3.63447590696773 19.228459181539304 13.137456474934368 1 1 -1
41 1 1.4933810056438959 21.029879126486495 12.974282309951661 -2 0 2
599 2 2.235879327541236 20.58673041618555 16.234981218880254 0 0 -1
60 1 1.8157873943858711 23.4077348325777 13.284000959251872 1 -1 2
269 1 1.0886532560783952 22.512124459877988 14.097144218993371 1 2 2
961 2 2.042272920951145 18.700626364247984 14.777274820551133 0 -1 -1
718 2 4.500250979857297 17.154183131006594 14.34055791008062 1 0 1
209 1 4.957067190839523 19.766654501532294 14.11925611340397 -1 -3 -2
696 2 4.32367055487856 21.25601751777843 15.306502988915264 0 -1 0
574 2 9.139473830005251 22.113774652849738 11.98107202790615 2 0 0
550 2 5.650106244368421 20.411686883032704 12.204901305748766 0 -1 -1
977 2 6.762465247150611 22.58876365307393 13.037396672252038 0 0 -1
224 1 1.7612778941601275 14.945325688952837 22.505067706759288 1 3 0
63 1 8.791801574128646 19.38329977731715 16.072975618821143 -2 -1 1
711 2 1.2898716741242682 18.84509055541362 22.81632474242685 0 -1 0
895 2 10.77376160956777 19.36235507035975 13.649065219907309 1 -1 0
744 2 6.463381469738978 17.975514132219192 13.211664818598736 1 1 1
331 2 8.373517238477024 20.25868491784865 12.978032526505757 -2 0 0
446 2 9.276022889995403 22.907211855444743 15.895527653549733 0 0 0
762 2 7.367084185848125 19.193148517964854 15.339462446808978 2 0 0
586 2 5.612256093359758 20.13835681095983 16.816686111663554 0 0 0
296 1 7.060940854009216 19.936520604557376 12.801571095219288 -2 -2 -2
73 1 9.375260860000608 21.204844242341398 15.669190515816448 0 1 -3
593 2 10.843829519408386 21.77700684085761 14.767841256621454 -2 -1 0
115 1 10.47537875537052 16.19087747412527 17.050500482719013 -1 0 0
887 2 6.903389761582096 22.262259208079936 15.568491240963368 0 0 3
595 2 4.976344328477371 12.423289459983938 18.46393005629614 0 0 1
370 2 2.0821656154787758 12.095591932042336 23.0737919116355 -1 -2 -1
712 2 2.5163938592911266 13.989990051091201 20.613904771818785 -2 -1 -1
885 2 3.003230912066162 16.980863121410962 19.173559787189927 -2 -1 0
838 2 5.89713535990249 16.19512110616109 22.461003735199235 -1 -1 2
314 2 4.499653366925595 14.488463352564452 21.736210698478548 -1 -2 1
825 2 2.164794301519667 16.57410997914172 21.981876132596604 -1 -1 0
509 2 4.974769620435141 16.07948677837363 19.974730557727774 0 0 0
964 2 3.95126847241656 12.437537004299458 21.227485986686528 1 0 -2
690 2 2.3911899171886484 14.279181623159166 18.366789059298817 1 -1 -2