 vasp.6.5.0 16Dec24 (build Jan 20 2025 08:32:48) complex                         
 executed on        HPECrayEX_GCC date 2025.07.23  01:23:37
 running  128 mpi-ranks, with    1 threads/rank, on    1 nodes
 distrk:  each k-point on  128 cores,    1 groups
 distr:  one band on NCORE=  16 cores,    8 groups


--------------------------------------------------------------------------------------------------------


 INCAR:
   SYSTEM = a-Si SPC
   NCORE = 16
   ISTART = 1
   ICHARG = 1
   ISPIN = 1
   ISYM = 1
   EDIFF = 1E-6
   NELM = 150
   EDIFFG = -0.01
   NSW = 0
   ISIF = 2
   IBRION = -1
   PREC = Accurate
   ENCUT = 1200
   KSPACING = 0.23
   KGAMMA = .TRUE.
   METAGGA = SCAN
   LASPH = .TRUE.
   LDIAG = .FALSE.
   LMIXTAU = .TRUE.
   ADDGRID = .TRUE.
   ALGO = Normal
   ISMEAR = 0
   SIGMA = 0.1
   LORBIT = 11
   NEDOS = 2000
   LWAVE = .FALSE.
   LCHARG = .FALSE.

 POTCAR:    PAW_PBE Si_GW 04May2012               
 POTCAR:    PAW_PBE Si_GW 04May2012               
   SHA256 =  9ee269d4247e69d62ab9db642b0c3f6e4981ddd1f39659ad08dec53e20e43eb1 Si_GW/POTCAR          
   COPYR  = (c) Copyright 04May2012 Georg Kresse                                                    
   COPYR  = This file is part of the software VASP. Any use, copying, and all other rights are regul
   COPYR  = If you do not have a valid VASP license, you may not use, copy or distribute this file. 
   VRHFIN =Si: s2p2                                                                                 
   LEXCH  = PE                                                                                      
   EATOM  =   103.0669 eV,    7.5752 Ry                                                             
                                                                                                    
   TITEL  = PAW_PBE Si_GW 04May2012                                                                 
   LULTRA =        F    use ultrasoft PP ?                                                          
   IUNSCR =        1    unscreen: 0-lin 1-nonlin 2-no                                               
   RPACOR =    1.500    partial core radius                                                         
   POMASS =   28.085; ZVAL   =    4.000    mass and valenz                                          
   RCORE  =    1.900    outmost cutoff radius                                                       
   RWIGS  =    2.480; RWIGS  =    1.312    wigner-seitz radius (au A)                               
   ENMAX  =  245.345; ENMIN  =  184.009 eV                                                          
   ICORE  =        3    local potential                                                             
   LCOR   =        T    correct aug charges                                                         
   LPAW   =        T    paw PP                                                                      
   EAUG   =  412.952                                                                                
   DEXC   =    0.000                                                                                
   RMAX   =    1.950    core radius for proj-oper                                                   
   RAUG   =    1.300    factor for augmentation sphere                                              
   RDEP   =    1.993    radius for radial grids                                                     
   RDEPT  =    2.000    core radius for aug-charge                                                  
                                                                                                    
   Atomic configuration                                                                             
    7 entries                                                                                       
     n  l   j            E        occ.                                                              
     1  0  0.50     -1785.8828   2.0000                                                             
     2  0  0.50      -139.4969   2.0000                                                             
     2  1  1.50       -95.5546   6.0000                                                             
     3  0  0.50       -10.8127   2.0000                                                             
     3  1  0.50        -4.0811   2.0000                                                             
     3  2  1.50        -4.0817   0.0000                                                             
     4  3  2.50        -4.0817   0.0000                                                             
   Description                                                                                      
     l       E           TYP  RCUT    TYP  RCUT                                                     
     0    -10.8127223     23  1.900                                                                 
     0     95.2407820     23  1.900                                                                 
     1     -4.0811372     23  1.900                                                                 
     1     54.4233040     23  1.900                                                                 
     2     -8.1634956     23  1.900                                                                 
     2     81.6349560     23  1.900                                                                 
     3     27.2116520     23  1.900                                                                 
  local pseudopotential read in
  partial core-charges read in
  partial kinetic energy density read in
  kinetic energy density of atom read in
  atomic valenz-charges read in
  non local Contribution for L=           0  read in
    real space projection operators read in
  non local Contribution for L=           0  read in
    real space projection operators read in
  non local Contribution for L=           1  read in
    real space projection operators read in
  non local Contribution for L=           1  read in
    real space projection operators read in
  non local Contribution for L=           2  read in
    real space projection operators read in
  non local Contribution for L=           2  read in
    real space projection operators read in
    PAW grid and wavefunctions read in

   number of l-projection  operators is LMAX  =           6
   number of lm-projection operators is LMMAX =          18

 -----------------------------------------------------------------------------
|                                                                             |
|               ----> ADVICE to this user running VASP <----                  |
|                                                                             |
|     You have a (more or less) 'large supercell' and for larger cells it     |
|     might be more efficient to use real-space projection operators.         |
|     Therefore, try LREAL= Auto in the INCAR file.                           |
|     Mind: For very accurate calculation, you might also keep the            |
|     reciprocal projection scheme (i.e. LREAL=.FALSE.).                      |
|                                                                             |
 -----------------------------------------------------------------------------

 -----------------------------------------------------------------------------
|                                                                             |
|               ----> ADVICE to this user running VASP <----                  |
|                                                                             |
|     You enforced a specific xc type in the INCAR file but a different       |
|     type was found in the POTCAR file.                                      |
|     I HOPE YOU KNOW WHAT YOU ARE DOING!                                     |
|                                                                             |
 -----------------------------------------------------------------------------

  PAW_PBE Si_GW 04May2012               :
 energy of atom  1       EATOM= -103.0669
 kinetic energy error for atom=    0.0001 (will be added to EATOM!!)


 POSCAR: Si
  positions in direct lattice
  velocities in cartesian coordinates


 exchange-correlation table for SCAN
   RHO(1)=    0.500       N(1)  =     2000
   RHO(2)=  100.500       N(2)  =     4000



--------------------------------------------------------------------------------------------------------


 ion  position               nearest neighbor table
   1  1.000  1.000  1.000-  28 2.34  46 2.34  56 2.34   2 2.34
   2  0.125  0.125  0.125-   3 2.34   5 2.34   1 2.34   7 2.35
   3  1.000  0.249  0.251-   2 2.34   4 2.34  40 2.36  38 2.37
   4  0.125  0.375  0.375-   3 2.34  15 2.34  25 2.34  21 2.35
   5  0.249  1.000  0.251-   2 2.34   6 2.34  24 2.36  20 2.37
   6  0.375  0.125  0.375-   5 2.34  15 2.34  41 2.34  35 2.35
   7  0.250  0.250  1.000-   8 2.34   2 2.35  12 2.35  14 2.35
   8  0.375  0.375  0.125-   7 2.34  21 2.34  35 2.34  49 2.34
   9  0.993  0.993  0.507-  10 2.35  20 2.35  38 2.35
  10  0.122  0.122  0.625-  11 2.34  13 2.34   9 2.35  15 2.37
  11  1.000  0.250  0.750-  10 2.34  46 2.34  48 2.34  12 2.34
  12  0.125  0.375  0.875-  17 2.34  29 2.34  11 2.34   7 2.35
  13  0.250  1.000  0.750-  10 2.34  28 2.34  32 2.34  14 2.34
  14  0.375  0.125  0.875-  33 2.34  43 2.34  13 2.34   7 2.35
  15  0.249  0.249  0.500-   4 2.34   6 2.34  16 2.36  10 2.37
  16  0.375  0.375  0.625-  15 2.36  29 2.36  43 2.36  57 2.36
  17  1.000  0.501  0.999-  12 2.34  18 2.34  40 2.36  62 2.37
  18  0.125  0.625  0.125-  17 2.34  23 2.34  19 2.34  21 2.35
  19  1.000  0.750  0.250-  20 2.34  54 2.34  56 2.34  18 2.34
  20  0.122  0.875  0.378-  19 2.34  31 2.34   9 2.35   5 2.37
  21  0.250  0.500  0.250-   8 2.34   4 2.35  18 2.35  22 2.35
  22  0.375  0.625  0.375-  51 2.34  57 2.34  31 2.34  21 2.35
  23  0.249  0.750  0.999-  18 2.34  30 2.34  24 2.36  28 2.37
  24  0.375  0.875  0.125-   5 2.36  23 2.36  33 2.36  51 2.36
  25  1.000  0.500  0.500-  26 2.34  54 2.34  48 2.34   4 2.34
  26  0.122  0.628  0.625-  25 2.34  31 2.34  27 2.35  29 2.37
  27  0.993  0.757  0.743-  26 2.35  28 2.35  62 2.35
  28  0.122  0.875  0.872-   1 2.34  13 2.34  27 2.35  23 2.37
  29  0.249  0.501  0.750-  12 2.34  30 2.34  16 2.36  26 2.37
  30  0.375  0.625  0.875-  23 2.34  29 2.34  59 2.34  49 2.35
  31  0.250  0.750  0.500-  20 2.34  26 2.34  32 2.34  22 2.34
  32  0.375  0.875  0.625-  13 2.34  31 2.34  41 2.34  59 2.34
  33  0.501  1.000  0.999-  14 2.34  34 2.34  24 2.36  60 2.37
  34  0.625  0.125  0.125-  33 2.34  39 2.34  37 2.34  35 2.35
  35  0.500  0.250  0.250-   8 2.34   6 2.35  34 2.35  36 2.35
  36  0.625  0.375  0.375-  53 2.34  57 2.34  47 2.34  35 2.35
  37  0.750  1.000  0.250-  38 2.34  52 2.34  56 2.34  34 2.34
  38  0.875  0.122  0.378-  37 2.34  47 2.34   9 2.35   3 2.37
  39  0.750  0.249  0.999-  34 2.34  44 2.34  40 2.36  46 2.37
  40  0.875  0.375  0.125-   3 2.36  17 2.36  39 2.36  53 2.36
  41  0.500  1.000  0.500-  42 2.34  52 2.34  32 2.34   6 2.34
  42  0.628  0.122  0.625-  41 2.34  47 2.34  45 2.35  43 2.37
  43  0.501  0.249  0.750-  14 2.34  44 2.34  16 2.36  42 2.37
  44  0.625  0.375  0.875-  39 2.34  43 2.34  61 2.34  49 2.35
  45  0.757  0.993  0.743-  42 2.35  46 2.35  60 2.35
  46  0.875  0.122  0.872-   1 2.34  11 2.34  45 2.35  39 2.37
  47  0.750  0.250  0.500-  38 2.34  42 2.34  48 2.34  36 2.34
  48  0.875  0.375  0.625-  11 2.34  25 2.34  47 2.34  61 2.34
  49  0.500  0.500  1.000-   8 2.34  30 2.35  44 2.35  50 2.35
  50  0.625  0.625  0.125-  51 2.34  53 2.34  55 2.34  49 2.35
  51  0.501  0.750  0.251-  22 2.34  50 2.34  24 2.36  52 2.37
  52  0.628  0.875  0.378-  37 2.34  41 2.34  63 2.35  51 2.37
  53  0.750  0.501  0.251-  36 2.34  50 2.34  40 2.36  54 2.37
  54  0.875  0.628  0.378-  19 2.34  25 2.34  63 2.35  53 2.37
  55  0.750  0.750  1.000-  60 2.34  62 2.34  56 2.34  50 2.34
  56  0.875  0.875  0.125-   1 2.34  19 2.34  37 2.34  55 2.34
  57  0.501  0.501  0.500-  22 2.34  36 2.34  16 2.36  58 2.37
  58  0.628  0.628  0.625-  59 2.34  61 2.34  63 2.35  57 2.37
  59  0.500  0.750  0.750-  58 2.34  60 2.34  32 2.34  30 2.34
  60  0.628  0.875  0.872-  55 2.34  59 2.34  45 2.35  33 2.37
  61  0.750  0.500  0.750-  58 2.34  62 2.34  48 2.34  44 2.34
  62  0.875  0.628  0.872-  55 2.34  61 2.34  27 2.35  17 2.37
  63  0.757  0.757  0.507-  52 2.35  54 2.35  58 2.35

  LATTYP: Found a simple cubic cell.
 ALAT       =    10.8225295715
  
  Lattice vectors:
  
 A1 = (  10.8225295715,  -0.0000000000,  -0.0000000000)
 A2 = (  -0.0000000000,  10.8225295715,   0.0000000000)
 A3 = (  -0.0000000000,  -0.0000000000,  10.8225295715)


Analysis of symmetry for initial positions (statically):
=====================================================================
 Subroutine PRICEL returns:
 Original cell was already a primitive cell.
 

 Routine SETGRP: Setting up the symmetry group for a 
 simple cubic supercell.


 Subroutine GETGRP returns: Found 24 space group operations
 (whereof  2 operations were pure point group operations)
 out of a pool of 48 trial point group operations.


The static configuration has the point symmetry C_1h.
 The point group associated with its full space group is T_d .


Analysis of symmetry for dynamics (positions and initial velocities):
=====================================================================
 Subroutine PRICEL returns:
 Original cell was already a primitive cell.
 

 Routine SETGRP: Setting up the symmetry group for a 
 simple cubic supercell.


 Subroutine GETGRP returns: Found 24 space group operations
 (whereof  2 operations were pure point group operations)
 out of a pool of 48 trial point group operations.


The dynamic configuration has the point symmetry C_1h.
 The point group associated with its full space group is T_d .


 Subroutine INISYM returns: Found 24 space group operations
 (whereof  2 operations are pure point group operations),
 and found     1 'primitive' translations


----------------------------------------------------------------------------------------

                                     Primitive cell                                     

  volume of cell :    1267.6120

  direct lattice vectors                    reciprocal lattice vectors
    10.822529571 -0.000000000 -0.000000000     0.092399840  0.000000000  0.000000000
    -0.000000000 10.822529571  0.000000000     0.000000000  0.092399840  0.000000000
    -0.000000000 -0.000000000 10.822529571     0.000000000  0.000000000  0.092399840

  length of vectors
    10.822529571 10.822529571 10.822529571     0.092399840  0.092399840  0.092399840

  position of ions in fractional coordinates (direct lattice)
     0.999845685  0.999845685  0.999659861
     0.124641277  0.124641277  0.125225495
     0.999943833  0.248932685  0.251067315
     0.124641277  0.374774505  0.375358723
     0.248932685  0.999943833  0.251067315
     0.374774505  0.124641277  0.375358723
     0.249916110  0.249916110  0.999916110
     0.375000000  0.375000000  0.125000000
     0.993319299  0.993319299  0.506680701
     0.121882230  0.121882230  0.624977039
     0.999845685  0.249659861  0.749845685
     0.124641277  0.375225495  0.874641277
     0.249659861  0.999845685  0.749845685
     0.375225495  0.124641277  0.874641277
     0.248932685  0.248932685  0.500056167
     0.375000000  0.375000000  0.625000000
     0.999943833  0.501067315  0.998932685
     0.124641277  0.625358723  0.124774505
     0.999845685  0.750154315  0.250340139
     0.121882230  0.875022961  0.378117770
     0.249916110  0.500083890  0.250083890
     0.375225495  0.625358723  0.375358723
     0.248932685  0.750056167  0.998932685
     0.375000000  0.875000000  0.125000000
     0.999845685  0.500340139  0.500154315
     0.121882230  0.628117770  0.625022961
     0.993319299  0.756680701  0.743319299
     0.121882230  0.874977039  0.871882230
     0.248932685  0.501067315  0.749943833
     0.374774505  0.625358723  0.874641277
     0.249659861  0.750154315  0.500154315
     0.375000000  0.875000000  0.625000000
     0.501067315  0.999943833  0.998932685
     0.625358723  0.124641277  0.124774505
     0.500083890  0.249916110  0.250083890
     0.625358723  0.375225495  0.375358723
     0.750154315  0.999845685  0.250340139
     0.875022961  0.121882230  0.378117770
     0.750056167  0.248932685  0.998932685
     0.875000000  0.375000000  0.125000000
     0.500340139  0.999845685  0.500154315
     0.628117770  0.121882230  0.625022961
     0.501067315  0.248932685  0.749943833
     0.625358723  0.374774505  0.874641277
     0.756680701  0.993319299  0.743319299
     0.874977039  0.121882230  0.871882230
     0.750154315  0.249659861  0.500154315
     0.875000000  0.375000000  0.625000000
     0.500083890  0.500083890  0.999916110
     0.625358723  0.625358723  0.125225495
     0.501067315  0.750056167  0.251067315
     0.628117770  0.874977039  0.378117770
     0.750056167  0.501067315  0.251067315
     0.874977039  0.628117770  0.378117770
     0.750154315  0.750154315  0.999659861
     0.875000000  0.875000000  0.125000000
     0.501067315  0.501067315  0.500056167
     0.628117770  0.628117770  0.624977039
     0.500340139  0.750154315  0.749845685
     0.628117770  0.875022961  0.871882230
     0.750154315  0.500340139  0.749845685
     0.875022961  0.628117770  0.871882230
     0.756680701  0.756680701  0.506680701

  ion indices of the primitive-cell ions
   primitive index   ion index
                 1           1
                 2           2
                 3           3
                 4           4
                 5           5
                 6           6
                 7           7
                 8           8
                 9           9
                10          10
                11          11
                12          12
                13          13
                14          14
                15          15
                16          16
                17          17
                18          18
                19          19
                20          20
                21          21
                22          22
                23          23
                24          24
                25          25
                26          26
                27          27
                28          28
                29          29
                30          30
                31          31
                32          32
                33          33
                34          34
                35          35
                36          36
                37          37
                38          38
                39          39
                40          40
                41          41
                42          42
                43          43
                44          44
                45          45
                46          46
                47          47
                48          48
                49          49
                50          50
                51          51
                52          52
                53          53
                54          54
                55          55
                56          56
                57          57
                58          58
                59          59
                60          60
                61          61
                62          62
                63          63

----------------------------------------------------------------------------------------


 -----------------------------------------------------------------------------
|                                                                             |
|           W    W    AA    RRRRR   N    N  II  N    N   GGGG   !!!           |
|           W    W   A  A   R    R  NN   N  II  NN   N  G    G  !!!           |
|           W    W  A    A  R    R  N N  N  II  N N  N  G       !!!           |
|           W WW W  AAAAAA  RRRRR   N  N N  II  N  N N  G  GGG   !            |
|           WW  WW  A    A  R   R   N   NN  II  N   NN  G    G                |
|           W    W  A    A  R    R  N    N  II  N    N   GGGG   !!!           |
|                                                                             |
|     The requested file  could not be found or opened for reading            |
|     k-point information. Automatic k-point generation is used as a          |
|     fallback, which may lead to unwanted results.                           |
|                                                                             |
 -----------------------------------------------------------------------------



Automatic generation of k-mesh.
 Grid dimensions derived from KSPACING:
 generate k-points for:    3    3    3

 Generating k-lattice:

  Cartesian coordinates                     Fractional coordinates (reciprocal lattice)
     0.030799947  0.000000000  0.000000000     0.333333333  0.000000000  0.000000000
     0.000000000  0.030799947  0.000000000     0.000000000  0.333333333  0.000000000
     0.000000000  0.000000000  0.030799947     0.000000000  0.000000000  0.333333333

  Length of vectors
     0.030799947  0.030799947  0.030799947

  Shift w.r.t. Gamma in fractional coordinates (k-lattice)
     0.000000000  0.000000000  0.000000000

 
 Subroutine IBZKPT returns following result:
 ===========================================
 
 Found      4 irreducible k-points:
 
 Following reciprocal coordinates:
            Coordinates               Weight
  0.000000  0.000000  0.000000      1.000000
  0.333333  0.000000  0.000000      6.000000
  0.333333  0.333333  0.000000     12.000000
  0.333333  0.333333  0.333333      8.000000
 
 Following cartesian coordinates:
            Coordinates               Weight
  0.000000  0.000000  0.000000      1.000000
  0.030800  0.000000  0.000000      6.000000
  0.030800  0.030800  0.000000     12.000000
  0.030800  0.030800  0.030800      8.000000
 


--------------------------------------------------------------------------------------------------------




 Dimension of arrays:
   k-points           NKPTS =      4   k-points in BZ     NKDIM =      4   number of bands    NBANDS=    160
   number of dos      NEDOS =   2000   number of ions     NIONS =     63
   non local maximal  LDIM  =      6   non local SUM 2l+1 LMDIM =     18
   total plane-waves  NPLWV = ******
   max r-space proj   IRMAX =      1   max aug-charges    IRDMAX= 619832
   dimension x,y,z NGX =   126 NGY =  126 NGZ =  126
   dimension x,y,z NGXF=   252 NGYF=  252 NGZF=  252
   support grid    NGXF=   504 NGYF=  504 NGZF=  504
   ions per type =              63
   NGX,Y,Z   is equivalent  to a cutoff of  19.35, 19.35, 19.35 a.u.
   NGXF,Y,Z  is equivalent  to a cutoff of  38.71, 38.71, 38.71 a.u.

 SYSTEM =  a-Si SPC                                
 POSCAR =  Si                                      

 Startparameter for this run:
   NWRITE =      2    write-flag & timer
   PREC   = accura    normal or accurate (medium, high low for compatibility)
   ISTART =      1    job   : 0-new  1-cont  2-samecut
   ICHARG =      1    charge: 1-file 2-atom 10-const
   ISPIN  =      1    spin polarized calculation?
   LNONCOLLINEAR =      F non collinear calculations
   LSORBIT =      F    spin-orbit coupling
   INIWAV =      1    electr: 0-lowe 1-rand  2-diag
   LASPH  =      T    aspherical Exc in radial PAW
 Electronic Relaxation 1
   ENCUT  = 1200.0 eV  88.20 Ry    9.39 a.u.  30.57 30.57 30.57*2*pi/ulx,y,z
   ENINI  = 1200.0     initial cutoff
   ENAUG  =  413.0 eV  augmentation charge cutoff
   NELM   =    150;   NELMIN=  2; NELMDL=  0     # of ELM steps 
   EDIFF  = 0.1E-05   stopping-criterion for ELM
   LREAL  =      F    real-space projection
   NLSPLINE    = F    spline interpolate recip. space projectors
   LCOMPAT=      F    compatible to vasp.4.4
   GGA_COMPAT  = T    GGA compatible to vasp.4.4-vasp.4.6
   LMAXPAW     = -100 max onsite density
   LMAXMIX     =    2 max onsite mixed and CHGCAR
   VOSKOWN=      0    Vosko Wilk Nusair interpolation
   ROPT   =    0.00000
 Ionic relaxation
   EDIFFG = -.1E-01   stopping-criterion for IOM
   NSW    =      0    number of steps for IOM
   NBLOCK =      1;   KBLOCK =      1    inner block; outer block 
   IBRION =     -1    ionic relax: 0-MD 1-quasi-New 2-CG
   NFREE  =      0    steps in history (QN), initial steepest desc. (CG)
   ISIF   =      2    stress and relaxation
   IWAVPR =     10    prediction:  0-non 1-charg 2-wave 3-comb
   ISYM   =      1    0-nonsym 1-usesym 2-fastsym
   LCORR  =      T    Harris-Foulkes like correction to forces

   POTIM  = 0.5000    time-step for ionic-motion
   TEIN   =    0.0    initial temperature
   TEBEG  =    0.0;   TEEND  =   0.0 temperature during run
   SMASS  =  -3.00    Nose mass-parameter (am)
   estimated Nose-frequenzy (Omega)   =  0.10E-29 period in steps = 0.13E+47 mass=  -0.268E-26a.u.
   SCALEE = 1.0000    scale energy and forces
   NPACO  =    256;   APACO  = 10.0  distance and # of slots for P.C.
   PSTRESS=    0.0 pullay stress

  Mass of Ions in am
   POMASS =  28.09
  Ionic Valenz
   ZVAL   =   4.00
  Atomic Wigner-Seitz radii
   RWIGS  =  -1.00
  virtual crystal weights 
   VCA    =   1.00
   NELECT =     252.0000    total number of electrons
   NUPDOWN=      -1.0000    fix difference up-down

 DOS related values:
   EMIN   =  10.00;   EMAX   =-10.00  energy-range for DOS
   EFERMI =   0.00;   METHOD = LEGACY      
   ISMEAR =     0;   SIGMA  =   0.10  broadening in eV -4-tet -1-fermi 0-gaus
   EFERMI_NEDOS =   21; number of points for ismear=-14 and -15

 Electronic relaxation 2 (details)
   IALGO  =     38    algorithm
   LDIAG  =      F    sub-space diagonalisation (order eigenvalues)
   LSUBROT=      F    optimize rotation matrix (better conditioning)
   TURBO    =      0    0=normal 1=particle mesh
   IRESTART =      0    0=no restart 2=restart with 2 vectors
   NREBOOT  =      0    no. of reboots
   NMIN     =      0    reboot dimension
   EREF     =   0.00    reference energy to select bands
   IMIX   =      4    mixing-type and parameters
     AMIX     =   0.40;   BMIX     =  1.00
     AMIX_MAG =   1.60;   BMIX_MAG =  1.00
     AMIN     =   0.10
     WC   =   100.;   INIMIX=   1;  MIXPRE=   1;  MAXMIX= -45

 Intra band minimization:
   WEIMIN = 0.0000     energy-eigenvalue tresh-hold
   EBREAK =  0.16E-08  absolut break condition
   DEPER  =   0.30     relativ break condition  

   TIME   =   0.40     timestep for ELM

  volume/ion in A,a.u.               =      20.12       135.78
  Fermi-wavevector in a.u.,A,eV,Ry     =   0.955461  1.805559 12.420833  0.912905
  Thomas-Fermi vector in A             =   2.084301

 Write flags
   LWAVE        =      F    write WAVECAR
   LDOWNSAMPLE  =      F    k-point downsampling of WAVECAR
   LCHARG       =      F    write CHGCAR
   LVTOT        =      F    write LOCPOT, total local potential
   LVHAR        =      F    write LOCPOT, Hartree potential only
   WRT_POTENTIAL= false  ! write potential to hdf5 file
   LELF         =      F    write electronic localiz. function (ELF)
   LORBIT       =     11    0 simple, 1 ext, 2 COOP (PROOUT), +10 PAW based schemes


 Python interface
   PLUGINS active      =      F    recompile with -DPLUGINS to activate

 Dipole corrections
   LMONO      =      F    monopole corrections only (constant potential shift)
   LDIPOL     =      F    correct potential (dipole corrections)
   IDIPOL     =      0    1-x, 2-y, 3-z, 4-all directions 
   EPSILON    =  1.0000000 bulk dielectric constant
   LVACPOTAV  =      F  vacuum potentials using an averaging scheme for the charge density
   VACPOTFLAT =  0.1000000 required flatness to determine vacuum potential

Coulomb truncation method
  LTRUNCATE          =      F  Coulomb kernel truncation to be used
  IDIMENSIONALITY    =      3  Dimensionality of cutoff (0 molecules / 2 surfaces)
  ISURFACE           =     -1  Direction of surface normal
  LCOARSEN           =      F  Coarsen the charge grid before padding, preferred


 Exchange correlation treatment:
   METAGGA = SCAN    functional components
   XC_C    = 1    coefficients multiplying the functional components
   LIBXC   =     F    Libxc                    
   VOSKOWN =     0    Vosko Wilk Nusair interpolation
   LHFCALC =     F    Hartree Fock is set to
   LHFONE  =     F    Hartree Fock one center treatment
   AEXX    =    0.0000 exact exchange contribution

 Parameters of functionals:
   SCAN:
     P1 =  0.000000E+00
     P2 =  0.000000E+00
     P3 =  0.000000E+00

 Accuracy and mixing parameters for tau-dependent meta-GGA functionals:
   LMAXTAU = 6
   LMIXTAU = T

 Van der Waals corrections
   IVDW    =     0    specifies the selected vdW correction

 Linear response parameters
   LEPSILON=     F    determine dielectric tensor
   LRPA    =     F    only Hartree local field effects (RPA)
   LNABLA  =     F    use nabla operator in PAW spheres
   LVEL    =     F    velocity operator in full k-point grid
   CSHIFT  =0.1000    complex shift for real part using Kramers Kronig
   OMEGAMAX=  -1.0    maximum frequency
   DEG_THRESHOLD= 0.2000000E-02 threshold for treating states as degnerate
   RTIME   =   -0.100 relaxation time in fs
  (WPLASMAI=    0.000 imaginary part of plasma frequency in eV, 0.658/RTIME)
   DFIELD  = 0.0000000 0.0000000 0.0000000 field for delta impulse in time

  Optional k-point grid parameters
   LKPOINTS_OPT  =     F    use optional k-point grid
   KPOINTS_OPT_MODE=     1    mode for optional k-point grid

 Orbital magnetization related:
   ORBITALMAG=     F  switch on orbital magnetization
   LCHIMAG   =     F  perturbation theory with respect to B field
   DQ        =  0.001000  dq finite difference perturbation B field
   LLRAUG    =     F  two centre corrections for induced B field
   LBONE     =     F  B-component reconstruction in AE one-centre
   LVGVCALC  =     T  calculate vGv susceptibility
   LVGVAPPL  =     F  apply vGv susceptibility instead of pGv for G=0

 Random number generation:
   RANDOM_GENERATOR = DEFAULT
   PCG_SEED         = not used


--------------------------------------------------------------------------------------------------------


 Static calculation
 charge density and potential will be updated during run
 non-spin polarized calculation
 Variant of blocked Davidson
 perform Loewdin sub-space diagonalisation
    ordering is kept fixed
    before iterative eigenvector-optimisation
 modified Broyden-mixing scheme, WC =      100.0
 initial mixing is a Kerker type mixing with AMIX =  0.4000 and BMIX =      1.0000
 Hartree-type preconditioning will be used
 using additional bands           34
 reciprocal scheme for non local part
 use partial core corrections
 calculate Harris-corrections to forces   (improved forces if not selfconsistent)
 use gradient corrections 
 use of overlap-Matrix (Vanderbilt PP)
 Gauss-broadening in eV      SIGMA  =   0.10


--------------------------------------------------------------------------------------------------------


  energy-cutoff  :     1200.00
  volume of cell :     1267.61
      direct lattice vectors                 reciprocal lattice vectors
    10.822529571 -0.000000000 -0.000000000     0.092399840  0.000000000  0.000000000
    -0.000000000 10.822529571  0.000000000     0.000000000  0.092399840  0.000000000
    -0.000000000 -0.000000000 10.822529571     0.000000000  0.000000000  0.092399840

  length of vectors
    10.822529571 10.822529571 10.822529571     0.092399840  0.092399840  0.092399840



 old parameters found on file WAVECAR:
  energy-cutoff  :     1200.00
  volume of cell :     1267.61
      direct lattice vectors                 reciprocal lattice vectors
    10.822529571 -0.000000000 -0.000000000     0.092399840  0.000000000  0.000000000
    -0.000000000 10.822529571  0.000000000     0.000000000  0.092399840  0.000000000
    -0.000000000 -0.000000000 10.822529571     0.000000000  0.000000000  0.092399840

  length of vectors


 k-points in units of 2pi/SCALE and weight: read from INCAR                         
   0.00000000  0.00000000  0.00000000       0.037
   0.03079995  0.00000000  0.00000000       0.222
   0.03079995  0.03079995  0.00000000       0.444
   0.03079995  0.03079995  0.03079995       0.296

 k-points in reciprocal lattice and weights: read from INCAR                         
   0.00000000  0.00000000  0.00000000       0.037
   0.33333333  0.00000000  0.00000000       0.222
   0.33333333  0.33333333  0.00000000       0.444
   0.33333333  0.33333333  0.33333333       0.296

 position of ions in fractional coordinates (direct lattice) 
   0.99984569  0.99984569  0.99965986
   0.12464128  0.12464128  0.12522550
   0.99994383  0.24893269  0.25106731
   0.12464128  0.37477450  0.37535872
   0.24893269  0.99994383  0.25106731
   0.37477450  0.12464128  0.37535872
   0.24991611  0.24991611  0.99991611
   0.37500000  0.37500000  0.12500000
   0.99331930  0.99331930  0.50668070
   0.12188223  0.12188223  0.62497704
   0.99984569  0.24965986  0.74984569
   0.12464128  0.37522550  0.87464128
   0.24965986  0.99984569  0.74984569
   0.37522550  0.12464128  0.87464128
   0.24893269  0.24893269  0.50005617
   0.37500000  0.37500000  0.62500000
   0.99994383  0.50106731  0.99893269
   0.12464128  0.62535872  0.12477450
   0.99984569  0.75015431  0.25034014
   0.12188223  0.87502296  0.37811777
   0.24991611  0.50008389  0.25008389
   0.37522550  0.62535872  0.37535872
   0.24893269  0.75005617  0.99893269
   0.37500000  0.87500000  0.12500000
   0.99984569  0.50034014  0.50015431
   0.12188223  0.62811777  0.62502296
   0.99331930  0.75668070  0.74331930
   0.12188223  0.87497704  0.87188223
   0.24893269  0.50106731  0.74994383
   0.37477450  0.62535872  0.87464128
   0.24965986  0.75015431  0.50015431
   0.37500000  0.87500000  0.62500000
   0.50106731  0.99994383  0.99893269
   0.62535872  0.12464128  0.12477450
   0.50008389  0.24991611  0.25008389
   0.62535872  0.37522550  0.37535872
   0.75015431  0.99984569  0.25034014
   0.87502296  0.12188223  0.37811777
   0.75005617  0.24893269  0.99893269
   0.87500000  0.37500000  0.12500000
   0.50034014  0.99984569  0.50015431
   0.62811777  0.12188223  0.62502296
   0.50106731  0.24893269  0.74994383
   0.62535872  0.37477450  0.87464128
   0.75668070  0.99331930  0.74331930
   0.87497704  0.12188223  0.87188223
   0.75015431  0.24965986  0.50015431
   0.87500000  0.37500000  0.62500000
   0.50008389  0.50008389  0.99991611
   0.62535872  0.62535872  0.12522550
   0.50106731  0.75005617  0.25106731
   0.62811777  0.87497704  0.37811777
   0.75005617  0.50106731  0.25106731
   0.87497704  0.62811777  0.37811777
   0.75015431  0.75015431  0.99965986
   0.87500000  0.87500000  0.12500000
   0.50106731  0.50106731  0.50005617
   0.62811777  0.62811777  0.62497704
   0.50034014  0.75015431  0.74984569
   0.62811777  0.87502296  0.87188223
   0.75015431  0.50034014  0.74984569
   0.87502296  0.62811777  0.87188223
   0.75668070  0.75668070  0.50668070

 position of ions in cartesian coordinates  (Angst):
  10.82085949 10.82085949 10.81884841
   1.34893390  1.34893390  1.35525662
  10.82192170  2.69408135  2.71718344
   1.34893390  4.05600816  4.06233088
   2.69408135 10.82192170  2.71718344
   4.05600816  1.34893390  4.06233088
   2.70472449  2.70472449 10.82162167
   4.05844859  4.05844859  1.35281620
  10.75022749 10.75022749  5.48356687
   1.31907404  1.31907404  6.76383249
  10.82085949  2.70195123  8.11522710
   1.34893390  4.06088902  9.46583108
   2.70195123 10.82085949  8.11522710
   4.06088902  1.34893390  9.46583108
   2.69408135  2.69408135  5.41187266
   4.05844859  4.05844859  6.76408098
  10.82192170  5.42281583 10.81097853
   1.34893390  6.76796328  1.35037577
  10.82085949  8.11856726  2.70931355
   1.31907404  9.46996187  4.09219075
   2.70472449  5.41217269  2.70654030
   4.06088902  6.76796328  4.06233088
   2.69408135  8.11750505 10.81097853
   4.05844859  9.46971338  1.35281620
  10.82085949  5.41494594  5.41293486
   1.31907404  6.79782314  6.76432948
  10.75022749  8.18919926  8.04459510
   1.31907404  9.46946488  9.43597122
   2.69408135  5.42281583  8.11628931
   4.05600816  6.76796328  9.46583108
   2.70195123  8.11856726  5.41293486
   4.05844859  9.46971338  6.76408098
   5.42281583 10.82192170 10.81097853
   6.76796328  1.34893390  1.35037577
   5.41217269  2.70472449  2.70654030
   6.76796328  4.06088902  4.06233088
   8.11856726 10.82085949  2.70931355
   9.46996187  1.31907404  4.09219075
   8.11750505  2.69408135 10.81097853
   9.46971338  4.05844859  1.35281620
   5.41494594 10.82085949  5.41293486
   6.79782314  1.31907404  6.76432948
   5.42281583  2.69408135  8.11628931
   6.76796328  4.05600816  9.46583108
   8.18919926 10.75022749  8.04459510
   9.46946488  1.31907404  9.43597122
   8.11856726  2.70195123  5.41293486
   9.46971338  4.05844859  6.76408098
   5.41217269  5.41217269 10.82162167
   6.76796328  6.76796328  1.35525662
   5.42281583  8.11750505  2.71718344
   6.79782314  9.46946488  4.09219075
   8.11750505  5.42281583  2.71718344
   9.46946488  6.79782314  4.09219075
   8.11856726  8.11856726 10.81884841
   9.46971338  9.46971338  1.35281620
   5.42281583  5.42281583  5.41187266
   6.79782314  6.79782314  6.76383249
   5.41494594  8.11856726  8.11522710
   6.79782314  9.46996187  9.43597122
   8.11856726  5.41494594  8.11522710
   9.46996187  6.79782314  9.43597122
   8.18919926  8.18919926  5.48356687



--------------------------------------------------------------------------------------------------------


 k-point     1 :   0.0000 0.0000 0.0000  plane waves:  119825
 k-point     2 :   0.3333 0.0000 0.0000  plane waves:  119625
 k-point     3 :   0.3333 0.3333 0.0000  plane waves:  119543
 k-point     4 :   0.3333 0.3333 0.3333  plane waves:  119738

 maximum and minimum number of plane-waves per node :      7531     7438

 maximum number of plane-waves:    119825
 maximum index in each direction: 
   IXMAX=   30   IYMAX=   30   IZMAX=   30
   IXMIN=  -30   IYMIN=  -30   IZMIN=  -30


 parallel 3D FFT for wavefunctions:
    minimum data exchange during FFTs selected (reduces bandwidth)
 parallel 3D FFT for charge:
    minimum data exchange during FFTs selected (reduces bandwidth)


 total amount of memory used by VASP MPI-rank0    90190. kBytes
=======================================================================

   base                                    :      30000. kBytes
   nonl-proj                               :      11873. kBytes
   fftplans                                :      22255. kBytes
   grid                                    :      16313. kBytes
   one-center                              :         62. kBytes
   wavefun                                 :       9687. kBytes

     INWAV:  cpu time      1.5997: real time      1.6002
 Broyden mixing: mesh for mixing (old mesh)
   NGX = 61   NGY = 61   NGZ = 61
  (NGX  =252   NGY  =252   NGZ  =252)
  gives a total of 226981 points

 initial charge density was supplied:
 number of electron     251.9999999 magnetization 
 keeping initial charge density in first step


--------------------------------------------------------------------------------------------------------


 Maximum index for augmentation-charges         8619 (set IRDMAX)


--------------------------------------------------------------------------------------------------------


 First call to EWALD:  gamma=   0.164
 Maximum number of real-space cells   3x   3x   3
 Maximum number of reciprocal cells   3x   3x   3

    FEWALD:  cpu time      0.0127: real time      0.0130


--------------------------------------- Ionic step        1  -------------------------------------------




--------------------------------------- Iteration      1(   1)  ---------------------------------------


    POTLOK:  cpu time      0.3997: real time      0.4001
    SETDIJ:  cpu time      1.5467: real time      1.5479
    EDDIAG:  cpu time      3.4760: real time      3.4780
     EDDAV:  cpu time     22.1358: real time     22.1521
       DOS:  cpu time      0.0091: real time      0.0091
    CHARGE:  cpu time      9.9005: real time      9.9063
    MIXING:  cpu time      0.0180: real time      0.0184
    --------------------------------------------
      LOOP:  cpu time     37.4858: real time     37.5119

 eigenvalue-minimisations  :  1960
 total energy-change (2. order) :-0.6677542E+03  (-0.5828322E+00)
 number of electron     251.9999999 magnetization 
 augmentation part      -14.8224383 magnetization 

 Broyden mixing:
  rms(total) = 0.88794E-01    rms(broyden)= 0.50456E+02
  rms(prec ) = 0.51974E+00
  weight for this iteration     100.00
  WARNING: grid for Broyden might be to small

 Free energy of the ion-electron system (eV)
  ---------------------------------------------------
  alpha Z        PSCENC =       190.76858538
  Ewald energy   TEWEN  =     -7166.22998980
  -Hartree energ DENC   =      -485.87883399
  -exchange      EXHF   =         0.00000000
  -V(xc)+E(xc)   XCENC  =      -306.57319598
  PAW double counting   =      7763.89921414    -7121.40116100
  entropy T*S    EENTRO =        -0.02332661
  eigenvalues    EBANDS =       -35.52612953
  atomic energy  EATOM  =      6493.21065391
  Solvation  Ediel_sol  =         0.00000000
  ---------------------------------------------------
  free energy    TOTEN  =      -667.75418349 eV

  energy without entropy =     -667.73085688  energy(sigma->0) =     -667.74252019


--------------------------------------------------------------------------------------------------------




--------------------------------------- Iteration      1(   2)  ---------------------------------------


    POTLOK:  cpu time      0.3950: real time      0.4195
    SETDIJ:  cpu time      1.5393: real time      1.5411
    EDDIAG:  cpu time      3.4955: real time      3.4980
     EDDAV:  cpu time     18.0953: real time     18.1099
       DOS:  cpu time      0.0026: real time      0.0026
    CHARGE:  cpu time      9.8915: real time      9.8969
    MIXING:  cpu time      0.0105: real time      0.0105
    --------------------------------------------
      LOOP:  cpu time     33.4298: real time     33.4786

 eigenvalue-minimisations  :  1424
 total energy-change (2. order) : 0.4422486E+02  (-0.6185349E+00)
 number of electron     251.9999999 magnetization 
 augmentation part      -14.7505937 magnetization 

 Broyden mixing:
  rms(total) = 0.94586E-01    rms(broyden)= 0.29078E+02
  rms(prec ) = 0.31289E+00
  weight for this iteration     100.00
  WARNING: grid for Broyden might be to small

 eigenvalues of (default mixing * dielectric matrix)
  average eigenvalue GAMMA=   0.6342
  0.6342

 Free energy of the ion-electron system (eV)
  ---------------------------------------------------
  alpha Z        PSCENC =       190.76858538
  Ewald energy   TEWEN  =     -7166.22998980
  -Hartree energ DENC   =      -482.38897770
  -exchange      EXHF   =         0.00000000
  -V(xc)+E(xc)   XCENC  =      -300.80188557
  PAW double counting   =      7791.69530580    -7149.34916729
  entropy T*S    EENTRO =        -0.02530808
  eigenvalues    EBANDS =        -0.40854180
  atomic energy  EATOM  =      6493.21065391
  Solvation  Ediel_sol  =         0.00000000
  ---------------------------------------------------
  free energy    TOTEN  =      -623.52932515 eV

  energy without entropy =     -623.50401708  energy(sigma->0) =     -623.51667112


--------------------------------------------------------------------------------------------------------




--------------------------------------- Iteration      1(   3)  ---------------------------------------


    POTLOK:  cpu time      0.3975: real time      0.4210
    SETDIJ:  cpu time      1.5425: real time      1.5432
    EDDIAG:  cpu time      3.4942: real time      3.4960
     EDDAV:  cpu time     17.9771: real time     17.9914
       DOS:  cpu time      0.0017: real time      0.0017
    CHARGE:  cpu time      9.9142: real time      9.9201
    MIXING:  cpu time      0.0080: real time      0.0080
    --------------------------------------------
      LOOP:  cpu time     33.3352: real time     33.3814

 eigenvalue-minimisations  :  1416
 total energy-change (2. order) :-0.2772206E+01  (-0.5286277E+00)
 number of electron     251.9999999 magnetization 
 augmentation part      -14.7107088 magnetization 

 Broyden mixing:
  rms(total) = 0.10227E+00    rms(broyden)= 0.91971E+00
  rms(prec ) = 0.12416E+00
  weight for this iteration     100.00
  WARNING: grid for Broyden might be to small

 eigenvalues of (default mixing * dielectric matrix)
  average eigenvalue GAMMA=   0.7257
  0.8270  0.6243

 Free energy of the ion-electron system (eV)
  ---------------------------------------------------
  alpha Z        PSCENC =       190.76858538
  Ewald energy   TEWEN  =     -7166.22998980
  -Hartree energ DENC   =      -483.84159812
  -exchange      EXHF   =         0.00000000
  -V(xc)+E(xc)   XCENC  =      -305.61358934
  PAW double counting   =      7830.98130757    -7188.67697068
  entropy T*S    EENTRO =        -0.02577090
  eigenvalues    EBANDS =         3.12584108
  atomic energy  EATOM  =      6493.21065391
  Solvation  Ediel_sol  =         0.00000000
  ---------------------------------------------------
  free energy    TOTEN  =      -626.30153091 eV

  energy without entropy =     -626.27576001  energy(sigma->0) =     -626.28864546


--------------------------------------------------------------------------------------------------------




--------------------------------------- Iteration      1(   4)  ---------------------------------------


    POTLOK:  cpu time      0.4393: real time      0.4596
    SETDIJ:  cpu time      1.5406: real time      1.5421
    EDDIAG:  cpu time      3.4992: real time      3.5009
     EDDAV:  cpu time     19.5051: real time     19.5199
       DOS:  cpu time      0.0026: real time      0.0026
    CHARGE:  cpu time      9.9114: real time      9.9170
    MIXING:  cpu time      0.0081: real time      0.0081
    --------------------------------------------
      LOOP:  cpu time     34.9063: real time     34.9503

 eigenvalue-minimisations  :  1608
 total energy-change (2. order) :-0.2065151E+00  (-0.5001311E-01)
 number of electron     251.9999999 magnetization 
 augmentation part      -14.7124673 magnetization 

 Broyden mixing:
  rms(total) = 0.12258E+00    rms(broyden)= 0.11858E+01
  rms(prec ) = 0.14980E+00
  weight for this iteration     100.00
  WARNING: grid for Broyden might be to small

 eigenvalues of (default mixing * dielectric matrix)
  average eigenvalue GAMMA=   0.6340
  0.9102  0.6350  0.3567

 Free energy of the ion-electron system (eV)
  ---------------------------------------------------
  alpha Z        PSCENC =       190.76858538
  Ewald energy   TEWEN  =     -7166.22998980
  -Hartree energ DENC   =      -483.44410177
  -exchange      EXHF   =         0.00000000
  -V(xc)+E(xc)   XCENC  =      -307.66794353
  PAW double counting   =      7824.46490293    -7182.16831955
  entropy T*S    EENTRO =        -0.02581933
  eigenvalues    EBANDS =         4.58398576
  atomic energy  EATOM  =      6493.21065391
  Solvation  Ediel_sol  =         0.00000000
  ---------------------------------------------------
  free energy    TOTEN  =      -626.50804601 eV

  energy without entropy =     -626.48222667  energy(sigma->0) =     -626.49513634


--------------------------------------------------------------------------------------------------------




--------------------------------------- Iteration      1(   5)  ---------------------------------------


    POTLOK:  cpu time      0.3984: real time      0.4238
    SETDIJ:  cpu time      1.5411: real time      1.5428
    EDDIAG:  cpu time      3.4975: real time      3.4995
     EDDAV:  cpu time     20.0119: real time     20.0275
       DOS:  cpu time      0.0018: real time      0.0018
    CHARGE:  cpu time      9.8993: real time      9.9058
    MIXING:  cpu time      0.0082: real time      0.0082
    --------------------------------------------
      LOOP:  cpu time     35.3582: real time     35.4095

 eigenvalue-minimisations  :  1680
 total energy-change (2. order) :-0.1681437E-02  (-0.8659252E-02)
 number of electron     251.9999999 magnetization 
 augmentation part      -14.7080136 magnetization 

 Broyden mixing:
  rms(total) = 0.59956E-01    rms(broyden)= 0.14247E+01
  rms(prec ) = 0.77772E-01
  weight for this iteration     100.00
  WARNING: grid for Broyden might be to small

 eigenvalues of (default mixing * dielectric matrix)
  average eigenvalue GAMMA=   0.7210
  1.2616  0.6849  0.6227  0.3149

 Free energy of the ion-electron system (eV)
  ---------------------------------------------------
  alpha Z        PSCENC =       190.76858538
  Ewald energy   TEWEN  =     -7166.22998980
  -Hartree energ DENC   =      -485.95394424
  -exchange      EXHF   =         0.00000000
  -V(xc)+E(xc)   XCENC  =      -306.17106714
  PAW double counting   =      7899.26178428    -7257.02472008
  entropy T*S    EENTRO =        -0.02575529
  eigenvalues    EBANDS =         5.65472554
  atomic energy  EATOM  =      6493.21065391
  Solvation  Ediel_sol  =         0.00000000
  ---------------------------------------------------
  free energy    TOTEN  =      -626.50972745 eV

  energy without entropy =     -626.48397215  energy(sigma->0) =     -626.49684980


--------------------------------------------------------------------------------------------------------




--------------------------------------- Iteration      1(   6)  ---------------------------------------


    POTLOK:  cpu time      0.4049: real time      0.4308
    SETDIJ:  cpu time      1.5415: real time      1.5422
    EDDIAG:  cpu time      3.5182: real time      3.5211
     EDDAV:  cpu time     20.4566: real time     20.4731
       DOS:  cpu time      0.0030: real time      0.0030
    CHARGE:  cpu time      9.9050: real time      9.9142
    MIXING:  cpu time      0.0091: real time      0.0091
    --------------------------------------------
      LOOP:  cpu time     35.8383: real time     35.8936

 eigenvalue-minimisations  :  1736
 total energy-change (2. order) :-0.1220665E-02  (-0.9423848E-03)
 number of electron     251.9999999 magnetization 
 augmentation part      -14.7074020 magnetization 

 Broyden mixing:
  rms(total) = 0.47371E-01    rms(broyden)= 0.43971E+00
  rms(prec ) = 0.61112E-01
  weight for this iteration     100.00
  WARNING: grid for Broyden might be to small

 eigenvalues of (default mixing * dielectric matrix)
  average eigenvalue GAMMA=   0.9190
  2.0123  0.9228  0.3603  0.6686  0.6309

 Free energy of the ion-electron system (eV)
  ---------------------------------------------------
  alpha Z        PSCENC =       190.76858538
  Ewald energy   TEWEN  =     -7166.22998980
  -Hartree energ DENC   =      -486.88523558
  -exchange      EXHF   =         0.00000000
  -V(xc)+E(xc)   XCENC  =      -306.21041339
  PAW double counting   =      7913.41598931    -7271.19954387
  entropy T*S    EENTRO =        -0.02576043
  eigenvalues    EBANDS =         6.64476637
  atomic energy  EATOM  =      6493.21065391
  Solvation  Ediel_sol  =         0.00000000
  ---------------------------------------------------
  free energy    TOTEN  =      -626.51094811 eV

  energy without entropy =     -626.48518768  energy(sigma->0) =     -626.49806789


--------------------------------------------------------------------------------------------------------




--------------------------------------- Iteration      1(   7)  ---------------------------------------


    POTLOK:  cpu time      0.3964: real time      0.4215
    SETDIJ:  cpu time      1.5424: real time      1.5431
    EDDIAG:  cpu time      3.5013: real time      3.5042
     EDDAV:  cpu time     20.6041: real time     20.6216
       DOS:  cpu time      0.0033: real time      0.0033
    CHARGE:  cpu time      9.9046: real time      9.9116
    MIXING:  cpu time      0.0084: real time      0.0084
    --------------------------------------------
      LOOP:  cpu time     35.9604: real time     36.0138

 eigenvalue-minimisations  :  1760
 total energy-change (2. order) :-0.3572628E-03  (-0.1679204E-03)
 number of electron     251.9999999 magnetization 
 augmentation part      -14.7062943 magnetization 

 Broyden mixing:
  rms(total) = 0.43377E-01    rms(broyden)= 0.60337E+00
  rms(prec ) = 0.55859E-01
  weight for this iteration     100.00
  WARNING: grid for Broyden might be to small

 eigenvalues of (default mixing * dielectric matrix)
  average eigenvalue GAMMA=   1.0073
  2.3366  1.2444  0.3570  0.8166  0.6616  0.6275

 Free energy of the ion-electron system (eV)
  ---------------------------------------------------
  alpha Z        PSCENC =       190.76858538
  Ewald energy   TEWEN  =     -7166.22998980
  -Hartree energ DENC   =      -487.27106006
  -exchange      EXHF   =         0.00000000
  -V(xc)+E(xc)   XCENC  =      -306.24865638
  PAW double counting   =      7914.08347663    -7271.87389601
  entropy T*S    EENTRO =        -0.02576955
  eigenvalues    EBANDS =         7.07535051
  atomic energy  EATOM  =      6493.21065391
  Solvation  Ediel_sol  =         0.00000000
  ---------------------------------------------------
  free energy    TOTEN  =      -626.51130537 eV

  energy without entropy =     -626.48553583  energy(sigma->0) =     -626.49842060


--------------------------------------------------------------------------------------------------------




--------------------------------------- Iteration      1(   8)  ---------------------------------------


    POTLOK:  cpu time      0.3961: real time      0.4226
    SETDIJ:  cpu time      1.5414: real time      1.5419
    EDDIAG:  cpu time      3.4921: real time      3.4948
     EDDAV:  cpu time     20.1615: real time     20.1783
       DOS:  cpu time      0.0031: real time      0.0031
    CHARGE:  cpu time      9.9189: real time      9.9249
    MIXING:  cpu time      0.0085: real time      0.0085
    --------------------------------------------
      LOOP:  cpu time     35.5215: real time     35.5739

 eigenvalue-minimisations  :  1696
 total energy-change (2. order) : 0.1154044E-03  (-0.8426863E-04)
 number of electron     251.9999999 magnetization 
 augmentation part      -14.7046207 magnetization 

 Broyden mixing:
  rms(total) = 0.35474E-01    rms(broyden)= 0.42783E+00
  rms(prec ) = 0.45553E-01
  weight for this iteration     100.00
  WARNING: grid for Broyden might be to small

 eigenvalues of (default mixing * dielectric matrix)
  average eigenvalue GAMMA=   1.0344
  2.4863  1.4384  0.9662  0.3597  0.7348  0.6279  0.6279

 Free energy of the ion-electron system (eV)
  ---------------------------------------------------
  alpha Z        PSCENC =       190.76858538
  Ewald energy   TEWEN  =     -7166.22998980
  -Hartree energ DENC   =      -487.94897990
  -exchange      EXHF   =         0.00000000
  -V(xc)+E(xc)   XCENC  =      -306.18780783
  PAW double counting   =      7916.91568145    -7274.71691643
  entropy T*S    EENTRO =        -0.02576896
  eigenvalues    EBANDS =         7.70335222
  atomic energy  EATOM  =      6493.21065391
  Solvation  Ediel_sol  =         0.00000000
  ---------------------------------------------------
  free energy    TOTEN  =      -626.51118997 eV

  energy without entropy =     -626.48542101  energy(sigma->0) =     -626.49830549


--------------------------------------------------------------------------------------------------------




--------------------------------------- Iteration      1(   9)  ---------------------------------------


    POTLOK:  cpu time      0.3930: real time      0.4210
    SETDIJ:  cpu time      1.5523: real time      1.5539
    EDDIAG:  cpu time      3.5389: real time      3.5414
     EDDAV:  cpu time     19.0549: real time     19.0693
       DOS:  cpu time      0.0016: real time      0.0016
    CHARGE:  cpu time      9.9190: real time      9.9248
    MIXING:  cpu time      0.0089: real time      0.0089
    --------------------------------------------
      LOOP:  cpu time     34.4689: real time     34.5211

 eigenvalue-minimisations  :  1544
 total energy-change (2. order) : 0.2175571E-03  (-0.8769020E-04)
 number of electron     251.9999999 magnetization 
 augmentation part      -14.7025138 magnetization 

 Broyden mixing:
  rms(total) = 0.25830E-01    rms(broyden)= 0.32693E+00
  rms(prec ) = 0.33221E-01
  weight for this iteration     100.00
  WARNING: grid for Broyden might be to small

 eigenvalues of (default mixing * dielectric matrix)
  average eigenvalue GAMMA=   1.0427
  2.5441  1.5507  1.0910  0.3586  0.8451  0.6926  0.6531  0.6068

 Free energy of the ion-electron system (eV)
  ---------------------------------------------------
  alpha Z        PSCENC =       190.76858538
  Ewald energy   TEWEN  =     -7166.22998980
  -Hartree energ DENC   =      -488.77055653
  -exchange      EXHF   =         0.00000000
  -V(xc)+E(xc)   XCENC  =      -306.08182369
  PAW double counting   =      7920.14835519    -7277.96083836
  entropy T*S    EENTRO =        -0.02576670
  eigenvalues    EBANDS =         8.43040820
  atomic energy  EATOM  =      6493.21065391
  Solvation  Ediel_sol  =         0.00000000
  ---------------------------------------------------
  free energy    TOTEN  =      -626.51097241 eV

  energy without entropy =     -626.48520571  energy(sigma->0) =     -626.49808906


--------------------------------------------------------------------------------------------------------




--------------------------------------- Iteration      1(  10)  ---------------------------------------


    POTLOK:  cpu time      0.3881: real time      0.4156
    SETDIJ:  cpu time      1.5522: real time      1.5528
    EDDIAG:  cpu time      3.5064: real time      3.5086
     EDDAV:  cpu time     18.6496: real time     18.6649
       DOS:  cpu time      0.0028: real time      0.0028
    CHARGE:  cpu time      9.9287: real time      9.9355
    MIXING:  cpu time      0.0096: real time      0.0097
    --------------------------------------------
      LOOP:  cpu time     34.0374: real time     34.0897

 eigenvalue-minimisations  :  1496
 total energy-change (2. order) : 0.3542791E-03  (-0.2431729E-03)
 number of electron     251.9999999 magnetization 
 augmentation part      -14.6988632 magnetization 

 Broyden mixing:
  rms(total) = 0.99502E-02    rms(broyden)= 0.12172E+00
  rms(prec ) = 0.12780E-01
  weight for this iteration     100.00
  WARNING: grid for Broyden might be to small

 eigenvalues of (default mixing * dielectric matrix)
  average eigenvalue GAMMA=   1.2221
  3.1011  2.3390  1.4678  1.0021  0.3590  0.7978  0.6806  0.6259  0.6259

 Free energy of the ion-electron system (eV)
  ---------------------------------------------------
  alpha Z        PSCENC =       190.76858538
  Ewald energy   TEWEN  =     -7166.22998980
  -Hartree energ DENC   =      -490.12522176
  -exchange      EXHF   =         0.00000000
  -V(xc)+E(xc)   XCENC  =      -305.91175772
  PAW double counting   =      7924.63982906    -7282.46970964
  entropy T*S    EENTRO =        -0.02576453
  eigenvalues    EBANDS =         9.63275699
  atomic energy  EATOM  =      6493.21065391
  Solvation  Ediel_sol  =         0.00000000
  ---------------------------------------------------
  free energy    TOTEN  =      -626.51061813 eV

  energy without entropy =     -626.48485360  energy(sigma->0) =     -626.49773586


--------------------------------------------------------------------------------------------------------




--------------------------------------- Iteration      1(  11)  ---------------------------------------


    POTLOK:  cpu time      0.4416: real time      0.4482
    SETDIJ:  cpu time      1.5442: real time      1.5449
    EDDIAG:  cpu time      3.4993: real time      3.5019
     EDDAV:  cpu time     22.6923: real time     22.7103
       DOS:  cpu time      0.0031: real time      0.0031
    CHARGE:  cpu time      9.9569: real time      9.9639
    MIXING:  cpu time      0.0092: real time      0.0092
    --------------------------------------------
      LOOP:  cpu time     38.1467: real time     38.1815

 eigenvalue-minimisations  :  2024
 total energy-change (2. order) :-0.3549399E-05  (-0.6051651E-04)
 number of electron     251.9999999 magnetization 
 augmentation part      -14.6973278 magnetization 

 Broyden mixing:
  rms(total) = 0.29978E-02    rms(broyden)= 0.38014E-01
  rms(prec ) = 0.38599E-02
  weight for this iteration     100.00
  WARNING: grid for Broyden might be to small

 eigenvalues of (default mixing * dielectric matrix)
  average eigenvalue GAMMA=   1.4160
  5.2757  2.4660  1.4990  1.0543  0.3589  0.8724  0.7422  0.6358  0.6358  0.6201

 Free energy of the ion-electron system (eV)
  ---------------------------------------------------
  alpha Z        PSCENC =       190.76858538
  Ewald energy   TEWEN  =     -7166.22998980
  -Hartree energ DENC   =      -490.70768251
  -exchange      EXHF   =         0.00000000
  -V(xc)+E(xc)   XCENC  =      -305.84302258
  PAW double counting   =      7926.66663754    -7284.50284003
  entropy T*S    EENTRO =        -0.02576463
  eigenvalues    EBANDS =        10.15280104
  atomic energy  EATOM  =      6493.21065391
  Solvation  Ediel_sol  =         0.00000000
  ---------------------------------------------------
  free energy    TOTEN  =      -626.51062168 eV

  energy without entropy =     -626.48485705  energy(sigma->0) =     -626.49773937


--------------------------------------------------------------------------------------------------------




--------------------------------------- Iteration      1(  12)  ---------------------------------------


    POTLOK:  cpu time      0.3926: real time      0.4203
    SETDIJ:  cpu time      1.5474: real time      1.5483
    EDDIAG:  cpu time      3.4977: real time      3.4999
     EDDAV:  cpu time     20.8100: real time     20.8256
       DOS:  cpu time      0.0028: real time      0.0028
    CHARGE:  cpu time      9.9711: real time      9.9781
    MIXING:  cpu time      0.0095: real time      0.0095
    --------------------------------------------
      LOOP:  cpu time     36.2311: real time     36.2844

 eigenvalue-minimisations  :  1776
 total energy-change (2. order) :-0.1303432E-04  (-0.7524800E-05)
 number of electron     251.9999999 magnetization 
 augmentation part      -14.6967420 magnetization 

 Broyden mixing:
  rms(total) = 0.34167E-03    rms(broyden)= 0.48819E-02
  rms(prec ) = 0.55057E-03
  weight for this iteration     100.00
  WARNING: grid for Broyden might be to small

 eigenvalues of (default mixing * dielectric matrix)
  average eigenvalue GAMMA=   1.4889
  6.5506  2.4865  1.5301  1.1292  0.9467  0.3589  0.7889  0.6810  0.6692  0.6341
  0.6030

 Free energy of the ion-electron system (eV)
  ---------------------------------------------------
  alpha Z        PSCENC =       190.76858538
  Ewald energy   TEWEN  =     -7166.22998980
  -Hartree energ DENC   =      -490.94528177
  -exchange      EXHF   =         0.00000000
  -V(xc)+E(xc)   XCENC  =      -305.81675134
  PAW double counting   =      7927.47443800    -7285.31261248
  entropy T*S    EENTRO =        -0.02576465
  eigenvalues    EBANDS =        10.36608804
  atomic energy  EATOM  =      6493.21065391
  Solvation  Ediel_sol  =         0.00000000
  ---------------------------------------------------
  free energy    TOTEN  =      -626.51063472 eV

  energy without entropy =     -626.48487006  energy(sigma->0) =     -626.49775239


--------------------------------------------------------------------------------------------------------




--------------------------------------- Iteration      1(  13)  ---------------------------------------


    POTLOK:  cpu time      0.3915: real time      0.4164
    SETDIJ:  cpu time      1.5416: real time      1.5431
    EDDIAG:  cpu time      3.4942: real time      3.4966
     EDDAV:  cpu time     18.2513: real time     18.2664
       DOS:  cpu time      0.0032: real time      0.0032
    CHARGE:  cpu time     10.0021: real time     10.0078
    MIXING:  cpu time      0.0095: real time      0.0095
    --------------------------------------------
      LOOP:  cpu time     33.6934: real time     33.7430

 eigenvalue-minimisations  :  1448
 total energy-change (2. order) :-0.1107786E-04  (-0.5209476E-06)
 number of electron     251.9999999 magnetization 
 augmentation part      -14.6967414 magnetization 

 Broyden mixing:
  rms(total) = 0.15348E-03    rms(broyden)= 0.58324E-02
  rms(prec ) = 0.22410E-03
  weight for this iteration     100.00
  WARNING: grid for Broyden might be to small

 eigenvalues of (default mixing * dielectric matrix)
  average eigenvalue GAMMA=   1.4641
  6.7338  2.4912  1.5463  1.2175  0.3589  0.9311  0.9311  0.7784  0.6955  0.6247
  0.6306  0.6306

 Free energy of the ion-electron system (eV)
  ---------------------------------------------------
  alpha Z        PSCENC =       190.76858538
  Ewald energy   TEWEN  =     -7166.22998980
  -Hartree energ DENC   =      -490.96120516
  -exchange      EXHF   =         0.00000000
  -V(xc)+E(xc)   XCENC  =      -305.82057212
  PAW double counting   =      7927.52670789    -7285.36431045
  entropy T*S    EENTRO =        -0.02576484
  eigenvalues    EBANDS =        10.38524940
  atomic energy  EATOM  =      6493.21065391
  Solvation  Ediel_sol  =         0.00000000
  ---------------------------------------------------
  free energy    TOTEN  =      -626.51064579 eV

  energy without entropy =     -626.48488095  energy(sigma->0) =     -626.49776337


--------------------------------------------------------------------------------------------------------




--------------------------------------- Iteration      1(  14)  ---------------------------------------


    POTLOK:  cpu time      0.4187: real time      0.4191
    SETDIJ:  cpu time      1.5422: real time      1.5433
    EDDIAG:  cpu time      3.4987: real time      3.5010
     EDDAV:  cpu time     14.1438: real time     14.1570
       DOS:  cpu time      0.0034: real time      0.0034
    CHARGE:  cpu time      9.9516: real time      9.9634
    MIXING:  cpu time      0.0098: real time      0.0098
    --------------------------------------------
      LOOP:  cpu time     29.5683: real time     29.5970

 eigenvalue-minimisations  :   904
 total energy-change (2. order) :-0.6574219E-05  (-0.9342950E-07)
 number of electron     251.9999999 magnetization 
 augmentation part      -14.6967186 magnetization 

 Broyden mixing:
  rms(total) = 0.89202E-04    rms(broyden)= 0.21708E-02
  rms(prec ) = 0.12245E-03
  weight for this iteration     100.00
  WARNING: grid for Broyden might be to small

 eigenvalues of (default mixing * dielectric matrix)
  average eigenvalue GAMMA=   1.4793
  6.7478  2.4966  1.5739  1.5739  1.1199  1.1199  0.3589  0.8310  0.8310  0.6838
  0.6189  0.6259  0.6491

 Free energy of the ion-electron system (eV)
  ---------------------------------------------------
  alpha Z        PSCENC =       190.76858538
  Ewald energy   TEWEN  =     -7166.22998980
  -Hartree energ DENC   =      -490.96594874
  -exchange      EXHF   =         0.00000000
  -V(xc)+E(xc)   XCENC  =      -305.81938959
  PAW double counting   =      7927.62952021    -7285.46693734
  entropy T*S    EENTRO =        -0.02576505
  eigenvalues    EBANDS =        10.38861866
  atomic energy  EATOM  =      6493.21065391
  Solvation  Ediel_sol  =         0.00000000
  ---------------------------------------------------
  free energy    TOTEN  =      -626.51065237 eV

  energy without entropy =     -626.48488732  energy(sigma->0) =     -626.49776984


--------------------------------------------------------------------------------------------------------




--------------------------------------- Iteration      1(  15)  ---------------------------------------


    POTLOK:  cpu time      0.3958: real time      0.4123
    SETDIJ:  cpu time      1.5561: real time      1.5567
    EDDIAG:  cpu time      3.5060: real time      3.5093
     EDDAV:  cpu time     14.0639: real time     14.0758
       DOS:  cpu time      0.0016: real time      0.0016
    CHARGE:  cpu time      9.9534: real time      9.9647
    MIXING:  cpu time      0.0098: real time      0.0098
    --------------------------------------------
      LOOP:  cpu time     29.4866: real time     29.5302

 eigenvalue-minimisations  :   896
 total energy-change (2. order) :-0.1953685E-05  (-0.5118679E-07)
 number of electron     251.9999999 magnetization 
 augmentation part      -14.6967117 magnetization 

 Broyden mixing:
  rms(total) = 0.62004E-04    rms(broyden)= 0.10779E-02
  rms(prec ) = 0.82330E-04
  weight for this iteration     100.00
  WARNING: grid for Broyden might be to small

 eigenvalues of (default mixing * dielectric matrix)
  average eigenvalue GAMMA=   1.4743
  6.7557  2.5242  2.2845  1.5567  1.1156  0.3589  1.0009  0.8965  0.8965  0.7306
  0.6583  0.6135  0.6135  0.6345

 Free energy of the ion-electron system (eV)
  ---------------------------------------------------
  alpha Z        PSCENC =       190.76858538
  Ewald energy   TEWEN  =     -7166.22998980
  -Hartree energ DENC   =      -490.96856091
  -exchange      EXHF   =         0.00000000
  -V(xc)+E(xc)   XCENC  =      -305.81861362
  PAW double counting   =      7927.68419737    -7285.52154450
  entropy T*S    EENTRO =        -0.02576502
  eigenvalues    EBANDS =        10.39038289
  atomic energy  EATOM  =      6493.21065391
  Solvation  Ediel_sol  =         0.00000000
  ---------------------------------------------------
  free energy    TOTEN  =      -626.51065432 eV

  energy without entropy =     -626.48488930  energy(sigma->0) =     -626.49777181


--------------------------------------------------------------------------------------------------------




--------------------------------------- Iteration      1(  16)  ---------------------------------------


    POTLOK:  cpu time      0.4181: real time      0.4186
    SETDIJ:  cpu time      1.5496: real time      1.5511
    EDDIAG:  cpu time      3.5042: real time      3.5062
     EDDAV:  cpu time     13.7791: real time     13.7911
       DOS:  cpu time      0.0030: real time      0.0030
    --------------------------------------------
      LOOP:  cpu time     19.2544: real time     19.2704

 eigenvalue-minimisations  :   856
 total energy-change (2. order) : 0.8325060E-07  (-0.4057414E-07)
 number of electron     251.9999999 magnetization 
 augmentation part      -14.6967117 magnetization 

 Free energy of the ion-electron system (eV)
  ---------------------------------------------------
  alpha Z        PSCENC =       190.76858538
  Ewald energy   TEWEN  =     -7166.22998980
  -Hartree energ DENC   =      -490.97764635
  -exchange      EXHF   =         0.00000000
  -V(xc)+E(xc)   XCENC  =      -305.81725288
  PAW double counting   =      7927.72844671    -7285.56587006
  entropy T*S    EENTRO =        -0.02576501
  eigenvalues    EBANDS =        10.39818388
  atomic energy  EATOM  =      6493.21065391
  Solvation  Ediel_sol  =         0.00000000
  ---------------------------------------------------
  free energy    TOTEN  =      -626.51065424 eV

  energy without entropy =     -626.48488922  energy(sigma->0) =     -626.49777173


--------------------------------------------------------------------------------------------------------




 average (electrostatic) potential at core
  the test charge radii are     1.1243
  (the norm of the test charge is              1.0000)
       1 -69.4038       2 -69.4461       3 -69.4913       4 -69.4461       5 -69.4913
       6 -69.4462       7 -69.4857       8 -69.4622       9 -69.5913      10 -69.4547
      11 -69.4039      12 -69.4461      13 -69.4039      14 -69.4461      15 -69.4912
      16 -69.4853      17 -69.4913      18 -69.4461      19 -69.4038      20 -69.4547
      21 -69.4857      22 -69.4461      23 -69.4913      24 -69.4854      25 -69.4039
      26 -69.4547      27 -69.5913      28 -69.4547      29 -69.4912      30 -69.4462
      31 -69.4039      32 -69.4088      33 -69.4913      34 -69.4461      35 -69.4857
      36 -69.4461      37 -69.4038      38 -69.4550      39 -69.4915      40 -69.4855
      41 -69.4038      42 -69.4550      43 -69.4913      44 -69.4461      45 -69.5909
      46 -69.4547      47 -69.4038      48 -69.4088      49 -69.4857      50 -69.4461
      51 -69.4913      52 -69.4549      53 -69.4915      54 -69.4547      55 -69.4038
      56 -69.4088      57 -69.4913      58 -69.4550      59 -69.4038      60 -69.4549
      61 -69.4038      62 -69.4550      63 -69.5909



 E-fermi :   5.5959     XC(G=0):  -9.7896     alpha+bet :-11.5535

 WARNING: Could not determine fundamental gap because eigenvalues are not
     sorted.

 Fermi energy:         5.5958987855

 k-point     1 :       0.0000    0.0000    0.0000
  band No.  band energies     occupation 
      1      -7.1700      2.00000
      2      -6.0600      2.00000
      3      -6.0597      2.00000
      4      -6.0556      2.00000
      5      -6.0556      2.00000
      6      -6.0556      2.00000
      7      -5.9118      2.00000
      8      -5.0690      2.00000
      9      -5.0690      2.00000
     10      -5.0689      2.00000
     11      -5.0488      2.00000
     12      -5.0485      2.00000
     13      -5.0449      2.00000
     14      -5.0448      2.00000
     15      -5.0447      2.00000
     16      -5.0106      2.00000
     17      -5.0106      2.00000
     18      -5.0105      2.00000
     19      -4.8626      2.00000
     20      -4.7329      2.00000
     21      -4.7329      2.00000
     22      -4.7328      2.00000
     23      -4.1302      2.00000
     24      -2.8398      2.00000
     25      -2.8399      2.00000
     26      -2.8179      2.00000
     27      -2.8179      2.00000
     28      -2.8178      2.00000
     29      -2.8000      2.00000
     30      -2.6890      2.00000
     31      -2.6889      2.00000
     32      -2.6888      2.00000
     33      -2.6556      2.00000
     34      -2.6554      2.00000
     35      -2.6408      2.00000
     36      -2.6407      2.00000
     37      -2.6407      2.00000
     38      -2.5594      2.00000
     39      -2.5594      2.00000
     40      -2.5592      2.00000
     41      -2.0496      2.00000
     42      -1.9086      2.00000
     43      -1.9086      2.00000
     44      -1.9086      2.00000
     45      -1.2708      2.00000
     46      -0.3829      2.00000
     47      -0.3826      2.00000
     48      -0.3794      2.00000
     49      -0.3794      2.00000
     50      -0.3794      2.00000
     51      -0.3691      2.00000
     52      -0.3691      2.00000
     53      -0.3691      2.00000
     54      -0.2453      2.00000
     55      -0.2453      2.00000
     56      -0.2451      2.00000
     57       0.8870      2.00000
     58       1.2668      2.00000
     59       1.2668      2.00000
     60       1.2669      2.00000
     61       1.2707      2.00000
     62       1.2707      2.00000
     63       1.3027      2.00000
     64       1.3030      2.00000
     65       1.3027      2.00000
     66       1.3028      2.00000
     67       1.3155      2.00000
     68       1.3155      2.00000
     69       1.3156      2.00000
     70       1.3935      2.00000
     71       1.3936      2.00000
     72       1.3936      2.00000
     73       1.4051      2.00000
     74       1.4051      2.00000
     75       1.4052      2.00000
     76       1.4208      2.00000
     77       1.4234      2.00000
     78       1.4236      2.00000
     79       1.5896      2.00000
     80       1.5898      2.00000
     81       1.5897      2.00000
     82       1.6886      2.00000
     83       1.6887      2.00000
     84       1.8827      2.00000
     85       1.8827      2.00000
     86       1.8827      2.00000
     87       2.2963      2.00000
     88       2.2964      2.00000
     89       2.2963      2.00000
     90       2.4998      2.00000
     91       2.4998      2.00000
     92       2.5003      2.00000
     93       3.3016      2.00000
     94       3.3016      2.00000
     95       3.3017      2.00000
     96       3.3391      2.00000
     97       3.3152      2.00000
     98       3.3152      2.00000
     99       3.3153      2.00000
    100       3.3336      2.00000
    101       3.3336      2.00000
    102       3.3339      2.00000
    103       3.4848      2.00000
    104       3.4851      2.00000
    105       3.4848      2.00000
    106       3.8890      2.00000
    107       3.8891      2.00000
    108       3.8891      2.00000
    109       3.8899      2.00000
    110       3.8979      2.00000
    111       3.8982      2.00000
    112       3.9212      2.00000
    113       3.9209      2.00000
    114       3.9213      2.00000
    115       3.9639      2.00000
    116       3.9641      2.00000
    117       3.9645      2.00000
    118       4.0178      2.00000
    119       4.0181      2.00000
    120       4.0182      2.00000
    121       4.0494      2.00000
    122       4.0501      2.00000
    123       4.9614      2.00000
    124       4.9616      2.00000
    125       4.9622      2.00000
    126       5.9664      0.00000
    127       5.9665      0.00000
    128       5.9665      0.00000
    129       6.2493      0.00000
    130       6.2494      0.00000
    131       6.2969      0.00000
    132       6.2971      0.00000
    133       6.2971      0.00000
    134       6.3217      0.00000
    135       6.6841      0.00000
    136       6.6842      0.00000
    137       6.7462      0.00000
    138       6.7706      0.00000
    139       6.7706      0.00000
    140       6.7706      0.00000
    141       7.2543      0.00000
    142       7.2543      0.00000
    143       7.2543      0.00000
    144       7.4915      0.00000
    145       8.0640      0.00000
    146       8.0640      0.00000
    147       8.0642      0.00000
    148       8.0906      0.00000
    149       8.0907      0.00000
    150       8.0907      0.00000
    151       8.0996      0.00000
    152       8.0996      0.00000
    153       8.0996      0.00000
    154       8.1241      0.00000
    155       8.1241      0.00000
    156       8.2878      0.00000
    157       8.2878      0.00000
    158       8.2879      0.00000
    159       8.3479      0.00000
    160       8.8310      0.00000

 k-point     2 :       0.3333    0.0000    0.0000
  band No.  band energies     occupation 
      1      -7.0450      2.00000
      2      -6.6591      2.00000
      3      -5.9436      2.00000
      4      -5.9403      2.00000
      5      -5.9403      2.00000
      6      -5.8709      2.00000
      7      -5.5992      2.00000
      8      -5.5937      2.00000
      9      -5.5937      2.00000
     10      -5.4662      2.00000
     11      -5.1791      2.00000
     12      -4.9839      2.00000
     13      -4.9751      2.00000
     14      -4.9750      2.00000
     15      -4.9272      2.00000
     16      -4.8243      2.00000
     17      -4.8244      2.00000
     18      -4.8202      2.00000
     19      -4.5965      2.00000
     20      -4.3226      2.00000
     21      -4.3134      2.00000
     22      -4.3133      2.00000
     23      -4.1204      2.00000
     24      -3.9300      2.00000
     25      -3.4956      2.00000
     26      -3.4854      2.00000
     27      -3.4854      2.00000
     28      -3.2345      2.00000
     29      -2.7968      2.00000
     30      -2.7797      2.00000
     31      -2.7797      2.00000
     32      -2.7710      2.00000
     33      -2.7105      2.00000
     34      -2.6453      2.00000
     35      -2.6452      2.00000
     36      -2.2594      2.00000
     37      -1.8904      2.00000
     38      -1.8645      2.00000
     39      -1.8644      2.00000
     40      -1.7528      2.00000
     41      -1.6322      2.00000
     42      -1.6209      2.00000
     43      -1.6208      2.00000
[...]
  Total       0.05142     0.05142     0.05142    -0.00000     0.00000     0.00000
  in kB       0.06499     0.06499     0.06499    -0.00000     0.00000     0.00000
  external pressure =        0.06 kB  Pullay stress =        0.00 kB


 VOLUME and BASIS-vectors are now :
 -----------------------------------------------------------------------------
  energy-cutoff  :     1200.00
  volume of cell :     1267.61
      direct lattice vectors                 reciprocal lattice vectors
    10.822529571 -0.000000000 -0.000000000     0.092399840  0.000000000  0.000000000
    -0.000000000 10.822529571  0.000000000     0.000000000  0.092399840  0.000000000
    -0.000000000 -0.000000000 10.822529571     0.000000000  0.000000000  0.092399840

  length of vectors
    10.822529571 10.822529571 10.822529571     0.092399840  0.092399840  0.092399840


 FORCES acting on ions
    electron-ion (+dipol)            ewald-force                    non-local-force                 convergence-correction
 -----------------------------------------------------------------------------------------------
   0.152E+01 0.152E+01 0.319E+01   -.158E+01 -.158E+01 -.345E+01   0.577E-01 0.577E-01 0.244E+00   0.257E-04 0.257E-04 0.535E-04
   0.123E+01 0.123E+01 0.260E+00   -.128E+01 -.128E+01 -.117E+00   0.501E-01 0.501E-01 -.138E+00   0.912E-05 0.912E-05 0.179E-05
   0.231E+01 0.191E+01 -.191E+01   -.208E+01 -.179E+01 0.179E+01   -.218E+00 -.117E+00 0.117E+00   -.222E-04 0.337E-04 -.337E-04
   0.123E+01 -.260E+00 -.123E+01   -.128E+01 0.117E+00 0.128E+01   0.501E-01 0.138E+00 -.501E-01   0.912E-05 -.179E-05 -.912E-05
   0.191E+01 0.231E+01 -.191E+01   -.179E+01 -.208E+01 0.179E+01   -.117E+00 -.218E+00 0.117E+00   0.337E-04 -.222E-04 -.337E-04
   -.260E+00 0.123E+01 -.123E+01   0.117E+00 -.128E+01 0.128E+01   0.138E+00 0.501E-01 -.501E-01   -.179E-05 0.912E-05 -.912E-05
   0.947E+00 0.947E+00 0.947E+00   -.914E+00 -.914E+00 -.914E+00   -.274E-01 -.274E-01 -.274E-01   0.778E-05 0.778E-05 0.778E-05
   0.304E-08 0.304E-08 -.230E-10   0.227E-13 -.730E-14 -.196E-13   0.211E-17 -.162E-17 -.184E-17   -.767E-13 -.117E-12 0.118E-12
   0.209E+02 0.209E+02 -.209E+02   -.200E+02 -.200E+02 0.200E+02   -.101E+01 -.101E+01 0.101E+01   0.293E-04 0.293E-04 -.293E-04
   0.580E+01 0.580E+01 0.208E+01   -.592E+01 -.592E+01 -.194E+01   0.114E+00 0.114E+00 -.144E+00   0.607E-04 0.607E-04 -.179E-04
   0.152E+01 0.319E+01 0.152E+01   -.158E+01 -.345E+01 -.158E+01   0.577E-01 0.244E+00 0.577E-01   0.257E-04 0.535E-04 0.257E-04
   0.123E+01 0.260E+00 0.123E+01   -.128E+01 -.117E+00 -.128E+01   0.501E-01 -.138E+00 0.501E-01   0.912E-05 0.179E-05 0.912E-05
   0.319E+01 0.152E+01 0.152E+01   -.345E+01 -.158E+01 -.158E+01   0.244E+00 0.577E-01 0.577E-01   0.535E-04 0.257E-04 0.257E-04
   0.260E+00 0.123E+01 0.123E+01   -.117E+00 -.128E+01 -.128E+01   -.138E+00 0.501E-01 0.501E-01   0.179E-05 0.912E-05 0.912E-05
   0.191E+01 0.191E+01 -.231E+01   -.179E+01 -.179E+01 0.208E+01   -.117E+00 -.117E+00 0.218E+00   0.337E-04 0.337E-04 0.222E-04
   0.523E-08 0.522E-08 -.107E-10   -.529E-13 0.182E-13 0.252E-13   0.110E-17 -.134E-17 -.128E-17   -.860E-13 -.130E-12 -.116E-12
   0.231E+01 -.191E+01 0.191E+01   -.208E+01 0.179E+01 -.179E+01   -.218E+00 0.117E+00 -.117E+00   -.222E-04 -.337E-04 0.337E-04
   0.123E+01 -.123E+01 -.260E+00   -.128E+01 0.128E+01 0.117E+00   0.501E-01 -.501E-01 0.138E+00   0.912E-05 -.912E-05 -.179E-05
   0.152E+01 -.152E+01 -.319E+01   -.158E+01 0.158E+01 0.345E+01   0.577E-01 -.577E-01 -.244E+00   0.257E-04 -.257E-04 -.535E-04
   0.580E+01 -.208E+01 -.580E+01   -.592E+01 0.194E+01 0.592E+01   0.114E+00 0.144E+00 -.114E+00   0.607E-04 0.179E-04 -.607E-04
   0.947E+00 -.947E+00 -.947E+00   -.914E+00 0.914E+00 0.914E+00   -.274E-01 0.274E-01 0.274E-01   0.778E-05 -.778E-05 -.778E-05
   0.260E+00 -.123E+01 -.123E+01   -.117E+00 0.128E+01 0.128E+01   -.138E+00 -.501E-01 -.501E-01   0.179E-05 -.912E-05 -.912E-05
   0.191E+01 -.231E+01 0.191E+01   -.179E+01 0.208E+01 -.179E+01   -.117E+00 0.218E+00 -.117E+00   0.337E-04 0.222E-04 0.337E-04
   0.288E-08 0.496E-08 -.131E-10   0.370E-13 -.617E-14 0.388E-14   0.943E-18 0.161E-18 0.207E-17   -.992E-13 0.104E-12 0.121E-12
   0.152E+01 -.319E+01 -.152E+01   -.158E+01 0.345E+01 0.158E+01   0.577E-01 -.244E+00 -.577E-01   0.257E-04 -.535E-04 -.257E-04
   0.580E+01 -.580E+01 -.208E+01   -.592E+01 0.592E+01 0.194E+01   0.114E+00 -.114E+00 0.144E+00   0.607E-04 -.607E-04 0.179E-04
   0.209E+02 -.209E+02 0.209E+02   -.200E+02 0.200E+02 -.200E+02   -.101E+01 0.101E+01 -.101E+01   0.293E-04 -.293E-04 0.293E-04
   0.580E+01 0.208E+01 0.580E+01   -.592E+01 -.194E+01 -.592E+01   0.114E+00 -.144E+00 0.114E+00   0.607E-04 -.179E-04 0.607E-04
   0.191E+01 -.191E+01 0.231E+01   -.179E+01 0.179E+01 -.208E+01   -.117E+00 0.117E+00 -.218E+00   0.337E-04 -.337E-04 -.222E-04
   -.260E+00 -.123E+01 0.123E+01   0.117E+00 0.128E+01 -.128E+01   0.138E+00 -.501E-01 0.501E-01   -.179E-05 -.912E-05 0.912E-05
   0.319E+01 -.152E+01 -.152E+01   -.345E+01 0.158E+01 0.158E+01   0.244E+00 -.577E-01 -.577E-01   0.535E-04 -.257E-04 -.257E-04
   0.527E-08 0.208E-08 -.177E-10   0.433E-13 -.221E-13 0.233E-14   0.630E-18 -.315E-17 0.368E-17   -.881E-13 0.118E-12 -.122E-12
   -.191E+01 0.231E+01 0.191E+01   0.179E+01 -.208E+01 -.179E+01   0.117E+00 -.218E+00 -.117E+00   -.337E-04 -.222E-04 0.337E-04
   -.123E+01 0.123E+01 -.260E+00   0.128E+01 -.128E+01 0.117E+00   -.501E-01 0.501E-01 0.138E+00   -.912E-05 0.912E-05 -.179E-05
   -.947E+00 0.947E+00 -.947E+00   0.914E+00 -.914E+00 0.914E+00   0.274E-01 -.274E-01 0.274E-01   -.778E-05 0.778E-05 -.778E-05
   -.123E+01 0.260E+00 -.123E+01   0.128E+01 -.117E+00 0.128E+01   -.501E-01 -.138E+00 -.501E-01   -.912E-05 0.179E-05 -.912E-05
   -.152E+01 0.152E+01 -.319E+01   0.158E+01 -.158E+01 0.345E+01   -.577E-01 0.577E-01 -.244E+00   -.257E-04 0.257E-04 -.535E-04
   -.208E+01 0.580E+01 -.580E+01   0.194E+01 -.592E+01 0.592E+01   0.144E+00 0.114E+00 -.114E+00   0.179E-04 0.607E-04 -.607E-04
   -.231E+01 0.191E+01 0.191E+01   0.208E+01 -.179E+01 -.179E+01   0.218E+00 -.117E+00 -.117E+00   0.222E-04 0.337E-04 0.337E-04
   0.496E-08 0.288E-08 -.144E-10   0.408E-13 -.766E-14 0.600E-14   0.362E-17 -.238E-18 -.213E-18   0.740E-13 -.129E-12 0.122E-12
   -.319E+01 0.152E+01 -.152E+01   0.345E+01 -.158E+01 0.158E+01   -.244E+00 0.577E-01 -.577E-01   -.535E-04 0.257E-04 -.257E-04
   -.580E+01 0.580E+01 -.208E+01   0.592E+01 -.592E+01 0.194E+01   -.114E+00 0.114E+00 0.144E+00   -.607E-04 0.607E-04 0.179E-04
   -.191E+01 0.191E+01 0.231E+01   0.179E+01 -.179E+01 -.208E+01   0.117E+00 -.117E+00 -.218E+00   -.337E-04 0.337E-04 -.222E-04
   -.123E+01 -.260E+00 0.123E+01   0.128E+01 0.117E+00 -.128E+01   -.501E-01 0.138E+00 0.501E-01   -.912E-05 -.179E-05 0.912E-05
   -.209E+02 0.209E+02 0.209E+02   0.200E+02 -.200E+02 -.200E+02   0.101E+01 -.101E+01 -.101E+01   -.293E-04 0.293E-04 0.293E-04
   0.208E+01 0.580E+01 0.580E+01   -.194E+01 -.592E+01 -.592E+01   -.144E+00 0.114E+00 0.114E+00   -.179E-04 0.607E-04 0.607E-04
   -.152E+01 0.319E+01 -.152E+01   0.158E+01 -.345E+01 0.158E+01   -.577E-01 0.244E+00 -.577E-01   -.257E-04 0.535E-04 -.257E-04
   0.208E-08 0.527E-08 -.180E-10   0.249E-13 -.150E-13 -.595E-15   -.355E-17 0.486E-17 0.308E-18   0.829E-13 -.129E-12 -.119E-12
   -.947E+00 -.947E+00 0.947E+00   0.914E+00 0.914E+00 -.914E+00   0.274E-01 0.274E-01 -.274E-01   -.778E-05 -.778E-05 0.778E-05
   -.123E+01 -.123E+01 0.260E+00   0.128E+01 0.128E+01 -.117E+00   -.501E-01 -.501E-01 -.138E+00   -.912E-05 -.912E-05 0.179E-05
   -.191E+01 -.231E+01 -.191E+01   0.179E+01 0.208E+01 0.179E+01   0.117E+00 0.218E+00 0.117E+00   -.337E-04 0.222E-04 -.337E-04
   -.580E+01 0.208E+01 -.580E+01   0.592E+01 -.194E+01 0.592E+01   -.114E+00 -.144E+00 -.114E+00   -.607E-04 -.179E-04 -.607E-04
   -.231E+01 -.191E+01 -.191E+01   0.208E+01 0.179E+01 0.179E+01   0.218E+00 0.117E+00 0.117E+00   0.222E-04 -.337E-04 -.337E-04
   0.208E+01 -.580E+01 -.580E+01   -.194E+01 0.592E+01 0.592E+01   -.144E+00 -.114E+00 -.114E+00   -.179E-04 -.607E-04 -.607E-04
   -.152E+01 -.152E+01 0.319E+01   0.158E+01 0.158E+01 -.345E+01   -.577E-01 -.577E-01 0.244E+00   -.257E-04 -.257E-04 0.535E-04
   0.502E-08 0.502E-08 -.227E-10   0.404E-13 -.385E-15 -.810E-14   0.376E-17 0.416E-17 -.947E-17   0.979E-13 0.118E-12 0.124E-12
   -.191E+01 -.191E+01 -.231E+01   0.179E+01 0.179E+01 0.208E+01   0.117E+00 0.117E+00 0.218E+00   -.337E-04 -.337E-04 0.222E-04
   -.580E+01 -.580E+01 0.208E+01   0.592E+01 0.592E+01 -.194E+01   -.114E+00 -.114E+00 -.144E+00   -.607E-04 -.607E-04 -.179E-04
   -.319E+01 -.152E+01 0.152E+01   0.345E+01 0.158E+01 -.158E+01   -.244E+00 -.577E-01 0.577E-01   -.535E-04 -.257E-04 0.257E-04
   -.580E+01 -.208E+01 0.580E+01   0.592E+01 0.194E+01 -.592E+01   -.114E+00 0.144E+00 0.114E+00   -.607E-04 0.179E-04 0.607E-04
   -.152E+01 -.319E+01 0.152E+01   0.158E+01 0.345E+01 -.158E+01   -.577E-01 -.244E+00 0.577E-01   -.257E-04 -.535E-04 0.257E-04
   -.208E+01 -.580E+01 0.580E+01   0.194E+01 0.592E+01 -.592E+01   0.144E+00 -.114E+00 0.114E+00   0.179E-04 -.607E-04 0.607E-04
   -.209E+02 -.209E+02 -.209E+02   0.200E+02 0.200E+02 0.200E+02   0.101E+01 0.101E+01 0.101E+01   -.293E-04 -.293E-04 -.293E-04
 -----------------------------------------------------------------------------------------------
   -.604E-06 -.604E-06 0.146E-09   0.327E-12 0.320E-13 -.533E-13   0.222E-15 -.222E-15 0.000E+00   -.579E-13 -.111E-12 0.161E-12


 POSITION                                       TOTAL-FORCE (eV/Angst)
 -----------------------------------------------------------------------------------
     10.82086     10.82086     10.81885         0.000862      0.000862     -0.002290
      1.34893      1.34893      1.35526         0.000396      0.000396     -0.001583
     10.82192      2.69408      2.71718         0.003000     -0.000818      0.000818
      1.34893      4.05601      4.06233         0.000396      0.001583     -0.000396
      2.69408     10.82192      2.71718        -0.000818      0.003000      0.000818
      4.05601      1.34893      4.06233         0.001583      0.000396     -0.000396
      2.70472      2.70472     10.82162         0.004921      0.004921      0.004921
      4.05845      4.05845      1.35282         0.000000     -0.000000     -0.000000
     10.75023     10.75023      5.48357         0.002964      0.002964     -0.002964
      1.31907      1.31907      6.76383         0.001090      0.001090      0.001924
     10.82086      2.70195      8.11523         0.000862     -0.002290      0.000862
      1.34893      4.06089      9.46583         0.000396     -0.001583      0.000396
      2.70195     10.82086      8.11523        -0.002290      0.000862      0.000862
      4.06089      1.34893      9.46583        -0.001583      0.000396      0.000396
      2.69408      2.69408      5.41187        -0.000818     -0.000818     -0.003000
      4.05845      4.05845      6.76408         0.000000     -0.000000     -0.000000
     10.82192      5.42282     10.81098         0.003000      0.000818     -0.000818
      1.34893      6.76796      1.35038         0.000396     -0.000396      0.001583
     10.82086      8.11857      2.70931         0.000862     -0.000862      0.002290
      1.31907      9.46996      4.09219         0.001090     -0.001924     -0.001090
      2.70472      5.41217      2.70654         0.004921     -0.004921     -0.004921
      4.06089      6.76796      4.06233        -0.001583     -0.000396     -0.000396
      2.69408      8.11751     10.81098        -0.000818     -0.003000     -0.000818
      4.05845      9.46971      1.35282         0.000000     -0.000000     -0.000000
     10.82086      5.41495      5.41293         0.000862      0.002290     -0.000862
      1.31907      6.79782      6.76433         0.001090     -0.001090     -0.001924
     10.75023      8.18920      8.04460         0.002964     -0.002964      0.002964
      1.31907      9.46946      9.43597         0.001090      0.001924      0.001090
      2.69408      5.42282      8.11629        -0.000818      0.000818      0.003000
      4.05601      6.76796      9.46583         0.001583     -0.000396      0.000396
      2.70195      8.11857      5.41293        -0.002290     -0.000862     -0.000862
      4.05845      9.46971      6.76408         0.000000     -0.000000     -0.000000
      5.42282     10.82192     10.81098         0.000818      0.003000     -0.000818
      6.76796      1.34893      1.35038        -0.000396      0.000396      0.001583
      5.41217      2.70472      2.70654        -0.004921      0.004921     -0.004921
      6.76796      4.06089      4.06233        -0.000396     -0.001583     -0.000396
      8.11857     10.82086      2.70931        -0.000862      0.000862      0.002290
      9.46996      1.31907      4.09219        -0.001924      0.001090     -0.001090
      8.11751      2.69408     10.81098        -0.003000     -0.000818     -0.000818
      9.46971      4.05845      1.35282         0.000000     -0.000000     -0.000000
      5.41495     10.82086      5.41293         0.002290      0.000862     -0.000862
      6.79782      1.31907      6.76433        -0.001090      0.001090     -0.001924
      5.42282      2.69408      8.11629         0.000818     -0.000818      0.003000
      6.76796      4.05601      9.46583        -0.000396      0.001583      0.000396
      8.18920     10.75023      8.04460        -0.002964      0.002964      0.002964
      9.46946      1.31907      9.43597         0.001924      0.001090      0.001090
      8.11857      2.70195      5.41293        -0.000862     -0.002290     -0.000862
      9.46971      4.05845      6.76408         0.000000     -0.000000     -0.000000
      5.41217      5.41217     10.82162        -0.004921     -0.004921      0.004921
      6.76796      6.76796      1.35526        -0.000396     -0.000396     -0.001583
      5.42282      8.11751      2.71718         0.000818     -0.003000      0.000818
      6.79782      9.46946      4.09219        -0.001090      0.001924     -0.001090
      8.11751      5.42282      2.71718        -0.003000      0.000818      0.000818
      9.46946      6.79782      4.09219         0.001924     -0.001090     -0.001090
      8.11857      8.11857     10.81885        -0.000862     -0.000862     -0.002290
      9.46971      9.46971      1.35282         0.000000     -0.000000     -0.000000
      5.42282      5.42282      5.41187         0.000818      0.000818     -0.003000
      6.79782      6.79782      6.76383        -0.001090     -0.001090      0.001924
      5.41495      8.11857      8.11523         0.002290     -0.000862      0.000862
      6.79782      9.46996      9.43597        -0.001090     -0.001924      0.001090
      8.11857      5.41495      8.11523        -0.000862      0.002290      0.000862
      9.46996      6.79782      9.43597        -0.001924     -0.001090      0.001090
      8.18920      8.18920      5.48357        -0.002964     -0.002964     -0.002964
 -----------------------------------------------------------------------------------
    total drift:                               -0.000001     -0.000001      0.000000


--------------------------------------------------------------------------------------------------------



  FREE ENERGIE OF THE ION-ELECTRON SYSTEM (eV)
  ---------------------------------------------------
  free  energy   TOTEN  =      -626.51065424 eV

  energy  without entropy=     -626.48488922  energy(sigma->0) =     -626.49777173



--------------------------------------------------------------------------------------------------------


    POTLOK:  cpu time      1.9243: real time      1.9253


--------------------------------------------------------------------------------------------------------


     LOOP+:  cpu time    604.0063: real time    604.7748
    4ORBIT:  cpu time      0.0000: real time      0.0000



 total charge

# of ion       s       p       d       tot
------------------------------------------
    1        0.724   0.948   0.066   1.738
    2        0.723   0.946   0.066   1.736
    3        0.728   0.933   0.066   1.726
    4        0.723   0.946   0.066   1.736
    5        0.728   0.933   0.066   1.726
    6        0.723   0.946   0.066   1.736
    7        0.725   0.941   0.066   1.732
    8        0.724   0.947   0.066   1.736
    9        0.766   0.845   0.051   1.662
   10        0.726   0.934   0.067   1.727
   11        0.724   0.948   0.066   1.738
   12        0.723   0.946   0.066   1.736
   13        0.724   0.948   0.066   1.738
   14        0.723   0.946   0.066   1.736
   15        0.728   0.933   0.066   1.726
   16        0.728   0.932   0.064   1.725
   17        0.728   0.933   0.066   1.726
   18        0.723   0.946   0.066   1.736
   19        0.724   0.948   0.066   1.738
   20        0.726   0.934   0.067   1.727
   21        0.725   0.941   0.066   1.732
   22        0.723   0.946   0.066   1.736
   23        0.728   0.933   0.066   1.726
   24        0.728   0.932   0.064   1.725
   25        0.724   0.948   0.066   1.738
   26        0.726   0.934   0.067   1.727
   27        0.766   0.845   0.051   1.662
   28        0.726   0.934   0.067   1.727
   29        0.728   0.933   0.066   1.726
   30        0.723   0.946   0.066   1.736
   31        0.724   0.948   0.066   1.738
   32        0.723   0.948   0.066   1.737
   33        0.728   0.933   0.066   1.726
   34        0.723   0.946   0.066   1.736
   35        0.725   0.941   0.066   1.732
   36        0.723   0.946   0.066   1.736
   37        0.724   0.948   0.066   1.738
   38        0.726   0.934   0.067   1.727
   39        0.728   0.933   0.066   1.726
   40        0.728   0.932   0.064   1.725
   41        0.724   0.948   0.066   1.738
   42        0.726   0.934   0.067   1.727
   43        0.728   0.933   0.066   1.726
   44        0.723   0.946   0.066   1.736
   45        0.766   0.845   0.051   1.662
   46        0.726   0.934   0.067   1.727
   47        0.724   0.948   0.066   1.738
   48        0.723   0.948   0.066   1.737
   49        0.725   0.941   0.066   1.732
   50        0.723   0.946   0.066   1.736
   51        0.728   0.933   0.066   1.726
   52        0.726   0.934   0.067   1.727
   53        0.728   0.933   0.066   1.726
   54        0.726   0.934   0.067   1.727
   55        0.724   0.948   0.066   1.738
   56        0.723   0.948   0.066   1.737
   57        0.728   0.933   0.066   1.726
   58        0.726   0.934   0.067   1.727
   59        0.724   0.948   0.066   1.738
   60        0.726   0.934   0.067   1.727
   61        0.724   0.948   0.066   1.738
   62        0.726   0.934   0.067   1.727
   63        0.766   0.845   0.051   1.662
--------------------------------------------------
tot         45.866  58.864   4.093 108.823


 total amount of memory used by VASP MPI-rank0    90190. kBytes
=======================================================================

   base                                    :      30000. kBytes
   nonl-proj                               :      11873. kBytes
   fftplans                                :      22255. kBytes
   grid                                    :      16313. kBytes
   one-center                              :         62. kBytes
   wavefun                                 :       9687. kBytes

  
  
 General timing and accounting informations for this job:
 ========================================================
  
                  Total CPU time used (sec):      637.366
                            User time (sec):      597.112
                          System time (sec):       40.254
                         Elapsed time (sec):      638.155
  
                   Maximum memory used (kb):      615040.
                   Average memory used (kb):          N/A
  
                          Minor page faults:      2267931
                          Major page faults:         1127
                 Voluntary context switches:         3086
