LAMMPS data file via write_data, version 2 Apr 2025, timestep = 1001000, units = metal

1000 atoms
2 atom types

0 22.879336122565487 xlo xhi
0 22.879336122565487 ylo yhi
0 22.879336122565487 zlo zhi

Atom Type Labels

1 H
2 Si

Masses

1 1.00784
2 28.0855

Atoms # atomic

361 2 5.546770236534066 1.2000923332238478 1.7652552199214957 2 -1 -2
881 2 1.3226421618494093 3.1383297489426 3.783596846442574 0 0 0
422 2 3.6867559870272983 3.7782167227513153 4.954507067303268 0 0 0
967 2 1.582076546636432 2.833276046344579 1.5297222285471528 -1 1 -2
799 2 3.7452789031105143 2.6756538055013896 2.91795513695407 -1 1 2
10 1 7.087400078118981 2.039293949548442 0.5913222525095609 -1 4 1
491 2 3.445652149031715 6.3239670273085755 3.136668265646061 0 -1 3
363 2 6.15499078812149 3.608763757565484 4.538179168125387 -1 0 0
325 1 6.173259081966067 4.5361900160602096 2.007805843021002 -1 4 1
767 2 3.8142415908676486 10.993822479258803 0.038582369946458896 -1 -1 1
408 2 0.3527993459338467 5.049752738576041 4.021998039931198 1 -1 -1
134 1 3.03576858576291 4.14837528347288 0.8932123678957905 -3 -1 1
928 2 0.4406848642635789 2.934063295346251 6.57869121835332 1 0 -1
542 2 3.6622585482384977 0.8404536512118533 0.4621376335712282 1 -1 0
382 2 1.7061516420953278 5.6594789957143865 0.24838378681734133 1 1 1
773 2 4.086507409685814 11.225837929278411 9.402005328865192 2 -1 -1
85 1 5.336830859883044 7.077457325793935 3.7371793252355014 1 2 -1
306 1 5.859547612637949 10.192368986430061 11.184400327844935 3 0 -3
172 1 6.327846766288821 6.325332190660259 2.5657549748771737 2 3 4
368 2 8.859247658075583 3.0643499272952495 5.809327244958247 2 1 -1
931 2 10.161338502571784 1.2946651993542373 0.0986802662358383 0 2 1
771 2 6.789385561299273 3.0300409759960605 2.1255287888115677 1 -1 1
795 2 8.5847563394469 4.073402182642389 1.3042850797247536 1 2 0
878 2 9.159622392028476 1.3240364692466158 2.917444662250034 0 0 -1
202 1 7.979947236005827 2.0375981902011198 3.464084584764712 -2 0 2
244 1 7.283696423198906 11.151874557701333 8.390096113749841 0 1 -1
775 2 9.056517914086 4.2275286709301945 3.597536811321265 0 1 0
781 2 8.28875768207816 0.19921028309597788 1.017844233610752 2 0 1
796 2 7.421352231260544 5.360763658182713 4.9306198147606874 0 0 1
99 1 3.349527878082227 1.3352524769955763 3.2145468155252246 3 2 0
564 2 11.204101587281668 3.1142565083137845 9.577590126553646 -1 1 1
867 2 10.133968479247505 0.8765988702270776 5.743710100244979 2 -1 0
558 2 10.595514482533005 3.091569389717457 2.0934775105384915 0 1 1
739 2 5.512641065898617 6.187069628051662 5.079284426620635 0 2 2
909 2 3.4376986529942726 8.274544096138396 1.9144374247918026 -2 0 -1
817 2 2.3208592071597165 8.224502037918484 4.3876944190178095 1 -1 1
793 2 0.6734779837825098 9.690119231970806 5.449659937677978 -1 1 0
949 2 5.002221954228529 8.848143242150233 4.457719096823815 -1 1 3
762 2 5.332892721538088 5.944712255536963 1.0738144591180483 2 0 1
161 1 0.033137820642977545 0.6331999313739021 8.170561022589006 1 -1 -1
985 2 0.6858677388376444 7.036232502000315 2.5508712236032935 0 0 -1
199 1 0.9726308206568229 8.592606504890192 1.4728794235560678 2 1 -6
593 2 2.8318298989447137 10.290338004368476 3.4818625468745052 2 0 0
616 2 2.4434799195864714 6.01146777598328 5.578626387965172 0 -1 2
345 1 0.6700198620925328 3.486579261516232 10.246547795367057 1 2 -1
404 2 5.991892486984784 10.387469896998542 2.8672956290541363 0 -1 2
131 1 2.681827441475209 9.414644135402934 11.132307820499744 -1 0 2
1000 2 11.434474573635088 6.644591675389851 1.942210524765305 1 -1 -1
715 2 5.854880846670868 8.02588813698145 2.146551720452927 2 0 0
203 1 8.978362004676633 7.468915593074416 1.6192814164143206 0 0 4
100 1 7.874645975005443 7.096764962870111 3.775810097231404 -1 0 2
334 1 0.8435218295884714 5.589630056528281 10.95051420901606 5 0 2
753 2 10.27436036351404 8.938549426153328 2.112481934936255 -1 -3 1
364 2 7.879900874844813 6.226327078576433 2.421353297351693 2 0 1
26 1 7.318445554474952 9.807995836471767 3.566321053672346 -3 -2 -1
52 1 9.431061327730418 9.307812703822684 3.4778847498766403 2 3 0
677 2 10.2235191351288 6.445865933560467 3.7643016528610844 0 0 0
989 2 7.834090037309651 9.147328536194843 0.4163488105851976 0 0 3
141 1 7.548504642964911 10.142450034023463 11.310067886372801 1 1 3
720 2 5.4270727988189424 10.002215036538633 0.7300258788042437 0 1 1
915 2 2.4411218382812487 2.0110928955650937 5.738501220251795 2 1 -1
359 2 3.034610194126961 1.385866285903725 10.466977106428915 1 0 1
590 2 1.182931443131363 5.158485819960259 7.288818395774169 1 0 -1
933 2 3.0241722644755473 1.303954864350578 8.056265107657872 -1 1 1
701 2 1.3734933946398253 4.961216531170882 9.479254669989981 1 1 1
735 2 4.032634974650572 3.3629060279761394 7.7732962056617945 -1 2 -1
241 1 4.744803451923072 0.8703440811975439 7.079975852248638 0 -2 3
51 1 2.0036556948880895 3.146378300422784 9.058306502891453 1 1 0
645 2 5.491359109916106 5.304833362472078 9.126652428041295 -1 1 1
184 1 4.213055022174744 3.5121212413017404 1.7420893914210933 0 -2 0
853 2 0.8236119666572266 1.8633445720825934 8.52479545594351 0 3 0
269 1 8.419479080403168 9.197396631449388 9.533014025060087 -1 0 2
598 2 5.115474005203424 1.5516389304944074 5.830077514132842 -1 2 1
239 1 4.6748238792949515 3.232436971449767 11.250543721311827 0 0 -1
192 1 6.272275425213192 4.562086968450235 10.825417643707809 2 0 3
95 1 4.810455601349392 4.119290456571741 11.13594647584848 -2 0 -2
604 2 5.5583614643463255 1.5151986595948588 8.66623786449603 0 -2 0
396 2 10.074027159026087 5.211663110854857 6.246914028522389 0 0 1
768 2 7.9235437254593295 5.002973339196499 10.733249538826604 -1 1 1
692 2 8.13451594807662 1.512852020167151 9.855031034949834 1 0 1
691 2 7.630929973855757 3.532713193036989 8.761588701562198 3 0 2
849 2 6.982948072785057 2.2935222650726788 6.7210843245481 1 0 0
416 2 10.950318016645895 0.028911440529007227 9.85080612033046 0 1 -1
401 2 10.060279768554159 3.399262280354206 7.563010006699804 2 0 -1
652 2 5.553350053638191 4.407799751625539 6.705565828329597 1 0 -1
397 2 7.178549347824804 0.03439655118048194 5.5572142825421995 0 2 1
47 1 9.83628245490496 10.517197030327115 3.0347620529082726 -1 -1 3
215 1 8.40551341494961 10.212681055813077 6.747821426860817 -2 3 0
770 2 9.778775702133164 1.0324177915468826 8.217134320118305 0 -1 1
232 1 4.959881015065003 11.384545434116236 6.968275196667223 -1 -2 -1
662 2 5.22320684237406 0.7144638242415645 11.2849426944262 0 -1 1
4 1 2.3606187147274396 5.208495878918884 2.803888181203006 3 2 3
168 1 3.940983449899359 5.702651320490148 5.019894391199596 -3 1 -2
785 2 2.7309159547950514 6.728248524827461 10.82845392329423 -1 1 0
370 2 1.9770246351448009 10.551671115876738 10.007972897150795 0 -1 -1
102 1 2.8514707602957987 4.421271181812525 8.247162127620863 1 0 -4
809 2 4.286747125869204 9.486332560811656 11.191715555888061 0 -2 1
711 2 2.5781297350512404 9.266078631120745 6.781792683239226 1 0 2
324 1 2.489023700116607 8.986959205425002 8.978812227890037 -3 -3 -1
439 2 3.2097548156622824 7.264639645689732 7.459316105570608 1 -1 1
831 2 1.2011328573982407 7.505640746308107 8.189468512932484 0 -2 -1
747 2 4.742487050074667 9.88913446169749 7.33801051394507 0 0 0
749 2 0.2746760444890928 9.500105489148785 8.344154367673859 1 1 1
257 1 0.7003535363018649 9.866533580552309 3.178747776548511 5 -3 3
335 1 4.699842604372222 8.001050329111548 11.059841529959996 -1 2 -3
230 1 8.62910255826062 11.064725298468112 0.890326382272554 -2 -1 1
183 1 3.9650546288494875 5.989872107699255 9.320391083720896 1 -2 1
128 1 1.334165503763318 7.793922609261828 10.279443571994156 0 0 1
18 1 10.470130448626115 11.1953391666241 0.7705907995936879 1 -1 4
69 1 8.758012106443488 11.346860902455148 6.81489488618131 3 -2 3
119 1 0.5057963811767113 0.4878232922172706 2.3090600562538888 3 -1 -3
106 1 10.380287519775427 5.766690982262536 1.2605995539113837 1 -2 0
384 2 10.923362852420501 8.859715739358313 8.108234070634815 1 2 1
958 2 6.837883628487702 9.833120701143471 5.963118585570837 -1 0 1
42 1 6.922479318357648 5.249047833676008 8.552535484349592 1 1 -1
393 2 11.085185210772138 9.575768703930411 5.803011662384216 -1 -1 -1
941 2 6.952459684769074 8.916032280906066 8.840777879029273 0 0 1
856 2 8.42766485705109 7.053224319185207 7.604731099088846 -1 -2 0
885 2 10.15358868551025 5.315145775383379 9.007172082813492 1 1 1
445 2 9.120428065128745 7.900402308489068 5.068965724237374 0 0 1
307 1 6.09267311848925 7.966583012228811 9.442368452694888 -2 3 1
499 2 10.192580887841922 10.615066250994207 11.391216753870493 0 0 0
629 2 6.6954319922803505 7.47158489351567 6.412247945761571 1 1 -1
50 1 9.592715432261116 9.452855175119614 7.659522133935868 4 -2 -1
400 2 8.015235522938436 10.8974283737942 10.060200976438297 1 1 0
246 1 8.921904370000645 3.4271218225066997 10.786506255978875 1 -3 -4
53 1 10.291484672237019 7.363903475473604 10.81158957302754 0 0 -2
160 1 11.4097664174416 6.422298798636882 10.473730906930813 4 3 3
646 2 8.511972099798315 7.614955075804256 11.338804227745138 -1 2 1
788 2 0.855320810311035 2.0529988025132346 11.21802448312278 2 3 -1
961 2 11.122681966163986 8.624938336856314 10.503822934349522 1 1 1
709 2 4.556139915518026 11.407533891375516 4.927330544267364 1 1 -1
921 2 3.67279813435243 1.8044955180725 14.029637043154445 0 1 -2
841 2 2.0833451272496037 2.0526611946671003 16.712913221023424 -1 1 -1
67 1 0.7531177475971145 11.073701172552632 14.117904176679705 -5 -4 1
563 2 1.3466136574445782 5.3503040863273945 12.572283885615457 2 2 -2
897 2 5.782904032352941 4.115192117564313 22.634742530576585 0 -1 0
142 1 6.8539212163558485 6.591088918126794 14.176794026221073 0 0 1
653 2 3.036855923196761 3.855312355288252 14.046055076560867 1 -1 1
832 2 1.2598919374689412 3.4490531940663414 15.273729009681318 0 1 0
574 2 6.168655381633568 1.6391621069753048 13.365893380433 0 3 -1
412 2 5.185212279362992 4.118636114706754 16.89175105515014 0 1 -3
159 1 10.538959376587284 3.3100076058392887 18.54995183655879 -1 1 -1
32 1 3.9320757374968713 10.918740805414474 21.32222127824543 0 0 -5
186 1 1.818808564556073 1.1858491729781355 13.200929858207116 2 0 -2
179 1 11.089966647520974 5.041884623745984 18.4030933085981 0 -1 -1
592 2 0.015645690018065355 1.0321991470014455 15.06464927327301 1 -1 2
173 1 1.8892467153830508 0.6699287721951739 18.36213240091322 2 1 2
71 1 4.228056940708577 0.6499898002932454 16.621396564340245 2 0 0
519 2 6.054905312757839 9.037166138302254 21.63181946744762 0 -1 0
41 1 4.684182936172544 0.2291287826463593 16.212760251066467 1 3 -2
744 2 4.677639975895962 5.677063515252307 12.30164667947174 0 2 0
289 1 6.675320805438188 2.68574138910095 12.32697297530011 1 2 1
260 1 2.076289301030547 0.22986427135370427 21.38818615579701 2 -2 1
890 2 6.354227663045751 4.378104616254938 14.704403067049777 3 0 1
251 1 1.294030375018938 7.356870309118388 22.765020378887435 3 -1 0
113 1 8.818702301395657 0.8903428696683983 12.804058331278318 2 0 1
975 2 8.935770939253501 1.9981336065629984 11.882775787172015 0 0 0
514 2 10.178147366717717 1.8387363737162399 15.778781808245089 -1 0 -1
925 2 8.547027330315618 3.8577278782551656 13.37256351890162 0 0 -1
924 2 9.792163178039223 4.30347102631817 15.396973152780177 -1 1 0
614 2 10.844157769326166 2.325861648012323 13.504248945762049 0 0 1
569 2 6.827335246820924 5.626045370644631 12.737098663054558 2 1 1
520 2 7.90780034951176 3.8238455807822658 16.6517967474251 0 0 0
654 2 10.333655244762888 8.660215945627442 22.7672517177513 -1 0 -1
529 2 9.411304637528026 6.015605114907894 12.476458320008554 -2 -1 1
129 1 8.188792975835131 1.122847779445205 17.785825791119933 -2 2 1
190 1 6.378085235217762 2.2236964093736993 14.731883887577222 3 1 -1
722 2 8.05931779489182 10.124254607307291 20.744569961805063 2 -1 1
151 1 4.098592786212488 4.658556981734815 14.161951630431966 -2 3 -1
649 2 1.1619768221658882 6.781137928207027 15.83458606074501 2 1 0
386 2 2.2696585301100693 10.79432378493871 15.6950752796026 0 2 -2
669 2 0.6780901519285963 9.274717087837715 13.234203859611387 0 -2 -1
660 2 2.318777389743206 7.68156615777037 13.48716079479902 1 -1 2
453 2 4.419591324786035 9.497195055151092 13.748939656898626 1 -1 0
833 2 2.7094367728035986 8.976757610302666 17.316248167184813 1 1 0
787 2 3.406489530099411 11.089079194231775 12.736663375641609 1 -1 0
557 2 4.9488026266339356 8.902927425207174 15.908345691075587 1 2 1
395 2 7.4045161918152065 7.20421024373717 18.07476854308799 0 -2 -2
103 1 4.298572496375649 6.310433359032828 14.380475765100295 3 -2 -3
957 2 11.37578863140207 9.298392718002125 13.247280688280823 -2 -1 -1
44 1 9.33642581132967 8.244408940247585 17.439996735536482 1 2 -1
114 1 4.541230420534259 6.893686587871513 14.936934822415267 1 1 -1
743 2 10.466161869569813 7.80857512529137 14.80929412031455 -1 2 -1
70 1 5.321991697137097 1.1020825676749604 14.520507471766678 1 -2 -1
187 1 7.488777318541747 5.771248912227613 15.836895413456363 3 -4 2
538 2 5.990439701286813 10.934399587880744 12.62790653270657 0 0 1
988 2 8.38017816253348 8.644220303754746 13.718549144595395 -1 2 1
699 2 7.316805388187615 7.382857471109777 15.794326325937941 1 0 0
500 2 9.548795549462827 11.284459390471634 13.548843499504533 1 1 1
452 2 5.622184181787655 7.8053417460147365 12.39249622777698 1 2 2
876 2 10.691511445646572 11.023769535202378 15.416370138651788 1 0 0
803 2 10.598393118109271 9.619849932718635 19.065392505133403 2 2 -1
342 1 8.296247345181596 10.08401961557741 14.64844782769956 -1 0 -3
147 1 10.043381875256657 6.614401712418574 16.290684621544564 -2 2 -1
943 2 6.666857990637208 10.733663332793046 15.457882829343017 -2 0 0
107 1 5.569538680156279 2.318327482129466 16.150790902732485 -3 -3 -3
495 2 0.6490426703289237 1.2361830589224405 18.407615392114607 1 2 1
674 2 0.8774319544720196 4.358640397277988 19.16641233008184 -2 1 0
905 2 1.6637277646731568 1.435330475750788 20.790322171853553 0 1 0
899 2 3.922451045842332 2.351047926785852 20.33432837943748 -1 -2 -2
583 2 9.038430160293402 9.491398160208487 16.597229899407722 0 2 0
152 1 3.908036166532976 1.3119615712537416 18.756074142578296 -2 2 3
5 1 5.339525669792063 3.234189752821662 18.978715817594924 1 1 4
871 2 2.9583523730597907 3.8806540552775384 18.02251039447877 -1 0 0
756 2 4.422592511093938 4.55820049216439 20.84624758594193 -1 -1 -1
40 1 5.418395549197568 8.926643529717573 19.260325532301774 0 0 1
634 2 0.9322317325985727 4.02945280257278 21.838873039949558 2 2 -1
228 1 0.197151798048237 2.9771175931664073 11.977608511312717 -2 0 0
233 1 1.9359145522329937 3.9623284898985305 12.382416188451526 1 3 -3
72 1 6.00097027529064 3.3813388215079345 18.386030324444658 -2 -2 0
360 2 5.918648280392195 1.8697639000199948 21.597149884355666 2 0 -1
387 2 9.966407538492062 1.034816987138537 17.89058210110884 0 -1 -1
972 2 9.63230134979279 3.690821186805226 22.206134562410416 0 -1 0
814 2 10.568447040240326 5.101259271027205 20.880045624579953 -2 1 -1
640 2 9.408809151743224 6.913073841787829 21.8244687996907 1 1 1
599 2 9.15086635275402 2.36577821154296 19.680277857378016 0 1 1
580 2 5.979681104957526 5.632333448226987 19.720133957264697 1 1 -1
492 2 8.288597459428834 4.4949209639351775 19.14314995991675 1 -1 -1
956 2 8.050704109351788 0.12213273264807685 20.556090047408226 -1 0 -2
790 2 6.820386000712278 1.7310192756798017 19.564844300715272 0 0 -2
862 2 6.820575313591557 1.9560418020891854 17.10189121583745 1 1 0
658 2 7.550561838968371 3.7128271290514823 21.1891905643463 1 0 2
356 2 9.15391116371906 0.20258678600940674 14.965905150873231 1 -1 0
313 1 11.192926329975169 2.9829963456871766 19.222091838167668 3 -1 0
914 2 5.127356580611586 6.8893539626713896 16.87548208424024 2 -1 -1
371 2 11.256118782319747 5.502920437799057 13.823194958460812 2 1 0
218 1 2.647946179222829 4.388752352107939 16.648683423810507 -3 -1 -1
116 1 4.809918976705348 11.117645444478793 19.844930818155856 2 -4 -1
221 1 6.531056463522847 6.303367355471754 20.92156311859413 -2 -1 -1
180 1 2.42488497307157 11.30665941012844 11.50216380426259 -2 2 3
468 2 10.228252199783629 10.40939458966216 21.27221558735272 1 1 0
273 1 3.7801931412453254 6.4831175802979475 20.803265662525376 2 -2 -2
262 1 7.15280556659554 11.347661686742109 20.469033186986824 -3 4 1
844 2 3.0361409350998256 6.264552843580645 17.179663824659972 1 1 0
448 2 0.6444392351584063 6.59057731806608 18.176579867592004 -1 1 0
30 1 4.131328951306829 7.709003413236994 19.6029778905022 0 -1 -2
883 2 1.02015165290617 9.047767831102268 22.58140581699004 1 0 1
274 1 3.6662199913523783 1.2462525693245328 12.685883542921452 -1 -1 0
553 2 3.374080930563084 9.18762834437181 21.445698218638043 0 2 0
434 2 2.2021585133914416 9.910772345919133 19.182369685699246 -1 0 -1
837 2 0.7203118941349944 10.557953322993416 20.76947928068392 1 -1 1
675 2 2.9753618750496957 6.393184132591434 19.37917206768541 0 2 -2
719 2 4.523181694386561 11.145791174341777 17.37429985272632 0 0 0
619 2 3.55725238620433 6.95616899787388 22.6429984974375 1 -2 -1
96 1 5.85461102675053 9.213602983059427 18.433061099849883 0 -1 -1
894 2 6.9483008687864976 6.594269028357362 22.44062172586834 3 -1 -2
336 1 4.976030975107737 9.29082583688398 20.731235840894843 2 -5 -1
524 2 8.759619912325778 7.889022297960462 19.739288198133032 1 0 0
748 2 9.736735969128558 5.661810558541018 17.74061334869542 0 0 0
623 2 7.351709799690994 10.710799862899648 17.7539640378567 1 -1 1
308 1 6.066768521718339 0.5794163089587047 17.799078980582983 2 3 -3
87 1 11.312435179102716 2.8340819107701596 16.585966216485385 3 1 0
321 1 2.587266173374345 9.169084568757198 15.300877945481998 1 0 -3
996 2 3.530146429726292 2.9060680730007165 22.845260661406726 -2 2 -1
732 2 11.43227226609765 7.600439373963077 18.18208045811957 0 2 -1
326 1 7.6470265647946665 1.62804397632292 22.8040306659007 1 -6 0
175 1 3.74556716673086 17.718583932719945 3.2684135633578797 1 -2 0
372 2 5.395657924999137 15.927962030604833 5.306341481010759 -1 0 1
891 2 2.5137623967551397 13.700673490191395 2.199745923708035 2 0 -1
268 1 4.802520829048029 12.882518088507348 1.1948552573766629 3 -1 1
295 1 5.450528591949326 13.013594842057811 1.6158936797498014 1 -2 -2
319 1 0.38725999655954063 17.209184737329775 7.9530704641081424 -2 -1 -3
7 1 4.437888676455422 17.345732140171094 3.548958047641172 -1 -1 0
245 1 3.0164322876365417 15.812815441362138 2.118607162738716 1 2 -1
545 2 1.0792674418537995 12.045528628828302 4.139778330240045 -1 2 0
299 1 7.44316510295795 11.67974555010321 5.076379772750642 5 2 1
819 2 2.2192320550526436 17.554422301670275 0.7814458645903605 1 1 0
253 1 1.5683874516487257 15.963648823335076 3.57879427778515 5 0 2
534 2 2.786646392331537 13.26936815954838 5.352664589540995 2 -1 0
135 1 3.7755874460578687 15.767062159376517 1.9714344394022143 0 -1 0
874 2 0.10854083538826535 18.976735715768697 10.601715338548999 0 0 -1
62 1 5.432522577089356 15.309139154285361 1.9619738580216413 3 -1 1
959 2 10.150943572235494 18.14355519886862 7.587505394410455 -1 -1 0
405 2 0.3042398641476537 15.28954792567229 4.805412704305779 1 1 -1
391 2 3.048683914617454 16.11915096525087 5.1230007531198565 -2 -1 0
188 1 8.76689940163912 15.226104648646196 11.014563325245096 0 0 0
911 2 6.590389402072325 15.372283327157131 2.9524970711323166 2 -2 0
882 2 6.685423738808791 12.420630750461402 3.9549835066325585 1 -1 2
530 2 10.147496464652626 12.533869717313216 1.4811181763080299 -1 -1 0
805 2 10.41479169980862 12.942666334203423 4.231293835991463 0 2 0
682 2 8.148051205036976 14.93863030321376 0.7566919079540056 0 1 1
631 2 10.128497574698425 12.104761930335863 6.184303765785861 2 2 0
589 2 7.456810448160221 12.740650885748215 0.5076861750625963 -1 0 1
839 2 10.00535745738973 16.23753334966215 0.33510387705522604 0 0 1
469 2 8.520564043802398 14.743058942990311 4.264250098027169 2 -2 -2
74 1 9.716355687330616 13.977092907826616 2.18115644175398 -3 1 0
153 1 9.613820505936927 17.44414371244969 2.007778802398496 1 0 -2
58 1 9.388777334353435 17.219959255714265 2.9001371801979032 3 -1 2
952 2 11.132194857766795 15.727215907782325 2.448822045313115 1 0 1
920 2 10.945953101346827 15.75174367514124 4.848708225470277 -1 1 2
174 1 0.050241589512671894 12.778573842344231 3.2355516756647056 -1 0 -2
250 1 9.14858184828495 11.854843476766654 4.365456974992509 -2 -3 -3
358 2 4.530298180968167 17.65604688333376 0.9581699633580438 0 -1 1
178 1 0.024353076035638625 18.352663012831485 2.5662157735620856 -4 0 2
443 2 1.3896454494812678 19.563438583099018 1.5675473533374769 1 1 2
454 2 3.1680448125075573 19.894220507294012 3.9780107931637776 -1 1 -1
442 2 0.998324360454065 20.867235935609255 4.270792382864417 1 0 1
541 2 2.080617942385025 22.50785058127587 2.050980429501238 1 0 -1
504 2 7.577907624712844 22.172363816205376 7.999309626004414 1 0 -1
584 2 3.886445275112216 20.6942215812615 1.6987246275305194 1 0 0
155 1 6.032568470579348 18.394551362980057 4.510671376861552 -1 0 -1
736 2 2.832952050283265 22.313273839849007 4.733161481369099 2 -1 -1
285 1 4.9384245419738395 20.014262954605787 3.6019229185442665 3 -1 0
999 2 0.37121358599899656 17.286820408831396 5.6522851104300385 0 1 1
66 1 9.977591510160629 17.077410015591425 10.537244915665225 -2 0 0
700 2 11.215583134766629 14.320688761218886 6.850497739323366 1 0 -1
109 1 6.084657829114355 20.07326572679909 5.474727314329435 -1 4 -3
525 2 6.6237946437969395 17.854428302525857 3.362414983810182 0 -2 -1
243 1 8.061211042034639 17.812824872187868 4.358889840174009 -2 0 -1
286 1 9.670245884673308 22.08863355223835 1.4146001087110525 -2 -1 3
851 2 6.30406308723936 21.83354303143998 1.3792385443398776 1 -1 0
554 2 6.427473559855649 20.68559171045792 4.037435264266066 -1 0 2
481 2 9.79896015510345 17.98906106130153 5.266407737371217 -1 -1 0
889 2 9.712318919689144 20.491815089681094 1.4403848845939453 0 -1 1
421 2 7.435904875719939 19.76277945455161 2.280254913117185 0 0 1
346 1 10.541370058413417 20.664326237999322 4.799456085853888 2 -1 1
282 1 5.968907267373989 11.784245141295276 0.2343289678447544 0 1 0
697 2 6.778783747036686 17.654012217278094 0.8105545358386135 1 -2 1
686 2 10.194844412600974 22.44089831478303 3.4981012303298593 0 0 0
718 2 8.628195952760985 21.105004395051488 4.878453527305303 1 0 0
344 1 8.168192242186693 18.936286404570996 6.322465624627048 1 0 1
879 2 10.351658646288218 18.46222953722084 2.9768027681765807 0 -1 1
380 2 0.6233413929429693 11.705373516624558 8.703178732057019 -1 -1 0
169 1 1.7357824696619075 13.183169477674053 9.97596671434709 -4 -7 -2
293 1 4.774103652809641 13.97560258502839 10.006183146457612 1 0 0
409 2 3.1570951593433265 12.73123510607284 7.4183547761040876 0 1 1
585 2 2.277073776789064 15.408759417060446 7.231135245491025 0 1 -1
714 2 2.992360576183385 13.9885457630766 9.63284057318791 0 -1 1
822 2 5.743399949714318 13.701892402055977 5.50723339112689 1 0 0
477 2 2.4776492521295475 16.529616480142572 9.141298199656376 2 1 0
332 1 1.1333559117795888 16.462763100548408 9.430959974250712 0 -2 -1
130 1 11.341557966984086 21.737634667936256 3.3218528338910094 -3 0 -2
162 1 5.677028159138277 12.640183066004491 6.578373468698878 -1 -1 4
333 1 4.367878718116424 15.741091741264228 8.682068569718272 -4 0 -2
940 2 0.44268938505535316 15.042904018551479 2.4842240944891727 -1 0 1
126 1 6.977623941946945 14.965557204458289 10.823184449730896 3 2 1
681 2 3.684819740844838 16.03756055035986 11.365595868351855 -3 1 0
437 2 5.644754342451731 22.831997244254186 3.633411161563994 -1 2 -1
811 2 6.473017237096961 12.579691477561726 9.253814794607244 0 1 0
626 2 9.939552097316966 14.583095395384273 8.579704047292957 0 2 0
12 1 0.24062975037100148 20.287445576488366 6.003376141464361 -2 0 0
750 2 7.960428456870466 13.501013422429763 6.1586394205134205 0 0 -2
88 1 10.265616846459919 16.096766362142844 8.406103081248942 -1 0 -1
214 1 9.307195079113137 14.759551455728126 6.872706097687157 8 -8 -3
884 2 9.885123773615042 11.882276209285303 9.287530153599146 -1 0 0
824 2 8.645506325355324 13.707548562938715 10.40131031460429 -2 2 0
374 2 7.301822442809761 14.70216257321043 8.587592716271166 1 1 1
661 2 6.6473928373326725 16.897085963336565 7.37292408472452 2 -2 0
247 1 7.852837941776308 17.74901121028211 8.632925753556062 1 0 1
284 1 8.30168251037031 16.83689879308794 6.944449531591328 3 1 -1
91 1 10.444728379336068 11.545285172857612 7.611418448752173 4 0 0
816 2 5.452896447168104 16.37002993770787 9.429719886755544 0 1 2
539 2 2.8740428289086752 18.272601178049975 5.659470391961975 1 0 1
22 1 0.14000718619571587 19.079938736895567 7.712190683112282 -1 1 0
418 2 8.338515014747886 11.469073214854507 2.4823328773902684 0 -1 0
993 2 1.222958436135912 17.23779100530616 11.293443077428304 2 0 -1
551 2 3.8513654883682236 18.476146340115456 9.745786163279899 1 0 1
655 2 1.430392030273287 19.285759858979706 8.637064780781266 1 -1 1
112 1 1.6503739529902721 17.55394528278305 7.931353635668944 0 -1 1
399 2 3.421526159238316 21.98760673420173 10.086271651053023 0 0 0
836 2 1.7367469107204978 21.924116549137903 8.439680996391916 2 1 1
568 2 4.259115511003024 19.4866243111126 7.415526812498234 0 0 1
537 2 5.359461751825882 21.702597753284284 8.913362217156298 0 1 0
140 1 1.0111519745878272 20.43257203443328 6.722970647493166 -1 2 -2
425 2 3.6075457360494667 21.900953823982313 7.046061058828828 0 -2 0
527 2 0.7644440975033197 13.788817677958557 6.9642943051077575 -1 0 -1
105 1 8.04325282928399 18.345524051272818 10.885521897334831 1 0 1
659 2 7.140604784723809 22.52664121147481 10.68743981722139 1 1 2
271 1 9.763010430696024 20.93422960133687 7.673185026422 0 2 3
630 2 6.744147189412836 19.084490958485294 7.202826894923549 -1 -2 -1
430 2 7.329290930147767 17.510988432374056 10.097125033938115 0 -2 1
845 2 5.799063870334442 19.65911647284737 10.125434551824625 1 1 -2
977 2 8.253730597277304 20.070686640868704 8.930482734851536 -1 -1 0
59 1 3.3280006959251693 12.618610621128612 10.261660809133954 1 1 0
441 2 10.824171001736085 20.059570520451025 9.988017154423178 1 0 -2
208 1 6.830795152115744 15.35397271268895 5.396169255894049 -3 -3 1
870 2 0.08040878203765583 14.370434796549294 9.377751936840383 2 0 0
742 2 11.238789754446755 20.958537804544413 7.884433479099287 1 0 2
54 1 10.81821143691111 22.130620847292832 5.927101084052795 1 -3 -4
204 1 5.816764012642288 14.994809782708368 11.091606466128653 -1 0 2
310 1 11.293228672842329 20.310383080219626 4.955430809996593 0 -2 1
125 1 10.655481853006728 12.92473122997431 11.202184141684306 0 -2 1
402 2 2.0893376759022573 11.539596509765905 1.7234293318259064 1 1 -1
473 2 1.5241666509904686 21.08499475299944 11.42296583164599 1 2 0
713 2 0.9042353226781514 22.020538966981565 0.03124279652512385 0 -1 0
602 2 3.067067419248315 12.482754911877672 14.106952964893336 -2 1 2
297 1 2.599311228244197 12.800166478175798 15.947492592970468 -1 -1 -1
231 1 11.224351779254839 19.92417606679227 21.666909754518358 1 2 3
605 2 1.1386780435388257 16.415786503404494 14.861189706945352 -1 0 0
698 2 0.03769231605751242 12.265728290849955 15.984992455920088 1 -1 -1
707 2 1.6229467609158323 15.631324126527973 17.0507884876306 0 -2 0
872 2 0.10610993782221348 12.274586458156339 13.377678651016762 0 0 -1
960 2 5.369515358542204 15.643340326341399 14.46378911350101 1 -1 0
351 2 5.025251679935122 13.222265401421318 12.348584581715071 0 -3 1
919 2 2.6986657399053664 13.873179457626524 12.267303520313783 0 -2 2
854 2 3.0746281642763535 15.747488986539109 13.809885450997175 -1 1 0
145 1 4.889133376870212 18.273826955237542 14.335751312149315 -1 0 1
86 1 3.713836433342422 12.559116441388234 22.26418083237501 1 3 -2
111 1 2.118563062744773 17.58428244381874 17.172723282302815 -1 4 -2
115 1 1.1063986869537088 11.729730945240727 12.224988238553617 2 0 -3
108 1 0.6853154474053839 16.891981419351566 13.033997712950086 -1 0 1
61 1 1.600997480399684 13.57637603393534 18.26381912830142 1 -4 -1
376 2 4.274803252988979 13.863370310153716 16.061648504242687 1 0 -1
55 1 8.812810584624676 20.016916190801908 21.68793784272295 1 -1 -3
166 1 3.068695111457703 14.54805777916712 15.036464687067802 -2 2 0
77 1 0.48123885198970673 11.442703745516038 17.858666201573946 -2 -1 1
572 2 0.3038365634038489 19.59734391991525 20.10242742515058 2 -1 -1
485 2 5.732565690757007 13.23995212716781 14.61109357878139 2 -1 1
512 2 7.5906026926316885 16.163009987069323 11.983287456694347 1 2 0
450 2 7.9010757893835155 16.102760669991035 15.343100520630298 -1 -1 0
794 2 8.469485295382317 12.304433067951203 15.013558855294791 -1 0 0
352 2 10.295520139164784 16.16692898833268 15.24518154787919 -1 -1 0
812 2 8.619154345585534 14.678424978535485 13.590605006182404 -1 2 -1
433 2 10.607292285138884 15.395306334249758 12.618829635784541 0 1 -2
157 1 5.183626387719774 12.903778655578046 17.213568818148143 -1 1 -1
467 2 7.670305377277999 12.424793719029385 12.391313610157736 -1 0 2
276 1 5.441290815834599 17.112912177761928 19.608114823798402 3 3 1
378 2 9.93606510776156 14.018679357848132 15.790050804676241 0 0 -1
939 2 4.659962521727832 18.066553375194598 12.544977536053949 -1 -1 0
375 2 2.654696736876786 19.116117670862508 12.087988916357057 0 0 -1
21 1 1.3559118373535906 18.705062803685816 14.714184562514317 -1 1 2
56 1 6.792127771223345 18.204325237650863 11.492918994238781 1 -1 1
488 2 2.5797481459328 17.87046179095734 15.50992468005852 0 -1 -1
676 2 2.156613326678108 20.323290329156908 14.172366132041217 1 1 1
766 2 4.283887864066063 21.29891620405716 12.120261969176095 -1 -1 1
559 2 2.2608556100336794 22.38332790283828 15.603098823321577 2 1 0
389 2 3.3572153631710306 20.15729709320393 16.45796902580198 -1 -1 -1
579 2 5.524297115310841 18.88015390062463 16.341582166453335 0 -1 -1
802 2 4.47820358648611 21.35515728424521 14.353659187691306 1 -1 -1
196 1 3.2155842662354863 17.95487314169582 13.471049349212134 1 -1 0
154 1 11.434204075100622 19.844049246850368 12.909213612094097 0 -2 0
532 2 8.875014135421242 17.458210703828563 13.733940555661924 -2 0 0
987 2 10.86475269190819 18.07639731743316 16.9869800082071 0 0 -1
577 2 10.795517791563665 17.5096304994874 12.098516484155718 -3 -2 1
20 1 7.620763566086722 18.84376322959797 13.101965451483753 0 -1 -1