ITEM: TIMESTEP
0
ITEM: NUMBER OF ATOMS
1000
ITEM: BOX BOUNDS pp pp pp
0.0000000000000000e+00 2.1158707884739954e+01
0.0000000000000000e+00 2.1158707884739954e+01
0.0000000000000000e+00 2.1158707884739954e+01
ITEM: ATOMS id element x y z fx fy fz c_PEa
1 H 18.2135 20.0784 19.2232 0.576335 0.0697313 -0.0381932 0.0869382
2 H 13.8892 12.0091 4.20837 -1.29025 -0.53311 0.350636 -0.316478
3 H 13.1884 1.04637 4.79852 -0.115025 0.552847 0.456988 -0.131176
4 H 5.94647 0.840857 5.44071 0.48344 -0.0150204 0.556573 0.0295156
5 H 8.02357 2.4787 4.60623 0.432796 -0.101865 -0.570123 0.329115
6 H 10.7841 10.2044 13.2424 0.636237 -0.126723 -0.504969 -0.208623
7 H 7.63299 19.1576 5.21317 -0.245266 0.440116 -0.331013 0.317945
8 H 2.35611 8.55925 9.8115 0.658195 0.462981 -0.857588 -0.0598113
9 H 11.4638 10.7752 17.3606 -0.506019 0.299763 -0.431975 0.180702
10 H 16.3086 19.2863 19.2496 0.7453 -1.54335 -0.278887 -0.179902
11 H 16.1869 2.12305 18.1986 0.22207 -2.14094 -2.1072 -0.555923
12 H 20.2317 5.54039 14.4272 0.623652 0.319114 0.583974 1.2165
13 H 11.7729 4.94019 17.8115 0.81994 -0.216468 -0.0363736 -0.205441
14 H 1.07801 19.5939 10.7283 -0.923391 0.00727926 0.571234 0.474409
15 H 17.2049 8.30889 7.74361 0.295885 0.428455 0.625674 0.136823
16 H 13.4254 8.13647 8.26787 -0.434725 -0.921203 0.51162 -0.172923
17 H 13.4401 5.85271 15.2128 -0.445688 0.17368 0.308078 0.0293724
18 H 8.09202 4.78013 20.0074 0.131545 -0.854108 0.917659 -0.323221
19 H 1.05044 7.1382 1.52778 1.51558 -0.766679 1.94137 -0.544383
20 H 12.2593 1.65758 3.2088 0.323763 0.803243 0.565868 0.122977
21 H 3.50124 14.9706 19.4699 -0.655685 0.886876 -0.118005 0.457208
22 H 4.69619 11.2003 8.36791 -0.136348 -0.967691 0.237887 0.39127
23 H 6.28636 19.6218 8.94141 0.434651 0.0125281 -0.0751575 -0.109076
24 H 9.935 16.6593 19.7018 -0.54406 -1.02091 -0.107914 0.257371
25 H 14.8202 4.60687 11.288 -0.0124099 0.172128 -0.33259 0.462447
26 H 20.8576 7.20459 16.3237 -0.0156757 1.01428 0.576998 0.670763
27 H 15.2197 15.881 0.274977 0.529499 0.0342865 1.53069 -0.423472
28 H 6.3391 4.37001 19.2287 0.278192 1.31097 -0.800212 -0.486376
29 H 18.9411 8.84839 16.0841 1.57339 0.135541 0.31162 0.0081192
30 H 19.1521 1.8251 12.6263 2.73002 0.0434788 -2.66185 0.325465
31 H 16.3578 3.67466 11.1405 0.311621 -0.561101 -0.292557 0.61791
32 H 20.7087 10.6388 16.2874 -0.516556 0.304351 1.21863 0.185961
33 H 17.1895 17.4658 20.2756 -0.159025 0.552304 0.224342 -0.231406
34 H 11.6772 14.669 20.5216 1.34236 0.691811 -0.616431 0.11617
35 H 1.8279 17.2715 5.51151 -0.199456 0.605225 0.167721 0.0196595
36 H 7.24874 12.1222 17.7229 0.856055 -0.132245 -0.558294 0.267118
37 H 20.617 14.4967 13.3758 0.561391 -0.214324 -0.0342984 0.0623378
38 H 19.5965 10.2935 7.47832 -1.20689 -0.576014 0.945333 0.357969
39 H 19.6953 1.57623 19.6998 0.765404 -0.33075 0.502197 0.156149
40 H 10.3883 0.230444 14.099 0.0791181 0.00754352 -1.0031 -0.378545
41 H 8.43895 10.6368 21.1193 0.233236 -0.205928 0.356807 0.308143
42 H 9.03775 8.80107 12.6204 0.0835674 -0.347063 0.176257 -0.0490657
43 H 18.3139 5.33498 9.57016 1.0264 0.0465114 0.900519 1.03009
44 H 18.9722 21.1105 10.5148 0.755461 -0.209 0.323125 1.22926
45 H 15.4712 1.17661 3.22378 1.95382 -0.964037 -0.264751 0.0328723
46 H 18.3127 20.3852 3.55407 0.0879742 0.743992 0.948532 -0.19281
47 H 13.8017 14.27 0.3265 -0.315596 -0.117665 -1.28387 -0.177845
48 H 9.14336 16.4479 4.18091 -0.20192 0.907929 -0.201743 -0.229982
49 H 11.8163 20.0429 1.10539 -2.06356 0.851373 -0.703094 -0.0574909
50 H 10.3662 3.35051 12.1129 0.534388 0.56167 0.338745 -0.405809
51 H 6.39173 9.95872 14.435 0.280866 -0.263298 -0.146064 0.0152933
52 H 2.45982 4.53271 13.7584 -0.269188 -2.0595 0.555216 2.16483
53 H 11.6104 15.4029 12.0344 0.174466 0.0861756 -0.180601 1.51292
54 H 11.8572 3.98687 20.6954 -1.09415 0.537403 -0.629595 -0.114623
55 H 3.35699 1.14879 0.0297046 0.503866 1.00926 -0.680767 0.225751
56 H 0.905105 4.24675 18.9686 -0.37074 0.221761 -0.822468 1.02321
57 H 1.93108 2.6616 9.17796 0.24252 -0.0552446 -0.274889 0.384094
58 H 19.1323 10.1797 17.8738 0.876502 0.210115 0.522914 -0.228886
59 H 19.9554 14.1666 17.1342 1.29952 -0.797482 0.745686 0.0527497
60 H 18.6898 12.5026 17.1157 0.749187 -0.474329 -0.25858 0.638019
61 H 4.94306 7.86238 6.20067 0.156699 -1.66194 -1.18333 -0.003946
62 H 6.87768 14.929 16.7471 0.354415 -0.651366 0.638674 -0.167766
63 H 9.98355 18.8601 16.2421 0.0549748 0.226752 1.28091 0.375018
64 H 8.43852 0.208589 11.472 -0.486605 0.0763625 -0.257058 -0.230052
65 H 7.80566 1.68133 10.3669 -0.0449001 0.11867 -0.222867 0.338906
66 H 3.97971 2.94501 17.0995 -0.503685 0.983525 -0.845527 0.12099
67 H 16.874 19.4964 5.09886 -0.321914 0.20035 -0.232566 -0.369307
68 H 14.7448 12.7482 1.26083 0.218667 0.102306 0.0916596 -0.102191
69 H 10.8982 13.9825 7.24998 0.0208618 -0.339812 0.216713 0.174865
70 H 9.19121 20.0121 4.13033 -1.02114 -0.055033 0.154689 0.15992
71 H 17.2659 16.8998 0.827899 0.37439 0.0388461 -0.182094 0.38595
72 H 5.98911 16.7695 7.36009 -0.355775 -0.34907 0.536758 0.244119
73 H 6.07648 13.4962 18.495 0.043554 -0.725153 0.457159 0.0942323
74 H 12.6129 9.28923 3.1926 0.118779 -0.0577652 -0.689959 -0.265192
75 H 2.50275 16.9272 16.8275 -0.744052 -0.546177 0.843961 1.18513
76 H 14.8876 20.7752 18.6648 1.00605 -0.687205 0.964672 -0.0764984
77 H 13.1529 9.78898 10.6816 0.46277 0.116516 -0.145325 0.100083
78 H 0.597446 13.6179 5.49017 0.653543 1.65347 0.359814 -0.00539923
79 H 0.590966 20.3807 2.73385 -0.203986 0.498497 0.336694 1.58117
80 H 6.49898 12.8714 15.9864 -1.04202 0.49616 -0.0401244 0.247117
81 H 7.6403 16.8885 1.27097 0.886868 0.219694 -0.36979 0.408496
82 H 3.99515 6.6928 15.3695 -3.45028 5.58442 3.56135 2.86779
83 H 3.65449 17.4048 5.5678 0.359631 -0.430858 -0.384049 0.463718
84 H 15.9532 15.3214 6.09632 0.704971 -0.102934 1.83676 -0.169714
85 H 8.61956 17.9329 11.9892 -0.199058 -0.667979 -0.526337 0.794203
86 H 9.02817 16.1566 11.7727 0.561808 -0.583091 -1.60849 2.97526
87 H 19.9508 2.92531 18.2081 -0.0279697 -0.117512 -0.367636 0.560574
88 H 0.843157 8.73783 6.35149 -0.35944 -0.541772 -0.534421 -0.128449
89 H 3.28393 12.3398 7.70039 -0.500049 -0.449241 0.139548 -0.000629693
90 H 1.8469 2.65397 20.6433 0.758048 0.986244 -0.707642 0.607833
91 H 5.391 17.7076 2.21025 -0.0819037 0.606105 1.28995 1.48265
92 H 11.3413 15.7189 18.5642 -0.014564 -0.122439 -0.831055 0.360786
93 H 15.1443 3.21214 7.03469 -0.833082 -2.75866 -0.489906 0.803991
94 H 5.91478 2.04053 9.89361 -0.176779 0.577165 0.182263 0.250922
95 H 11.4188 9.04867 10.3688 -0.555431 -0.161373 -0.094918 0.207622
96 H 3.77302 0.783134 7.57651 0.493571 -0.852671 -0.435405 0.143248
97 H 19.5939 20.9006 17.2378 0.484912 -0.960452 2.65946 2.4879
98 H 18.589 4.78224 1.3268 -0.18387 -0.567014 1.35008 -0.27088
99 H 14.2137 9.15026 16.795 -1.37876 -0.254589 -0.214399 0.0786186
100 H 17.3582 6.68493 17.9812 0.513919 1.58318 0.631477 0.674289
101 H 7.54505 3.01444 15.5174 0.481542 -0.519498 0.0597827 0.00746391
102 H 14.3024 5.6634 17.999 -0.15529 0.201871 -1.03324 -0.334929
103 H 8.25323 13.86 12.5764 -0.468398 1.20002 0.274246 0.909258
104 H 19.3626 4.45047 7.24822 0.362377 0.478391 0.744798 0.758776
105 H 1.30175 9.01596 3.41052 -0.250686 -0.309122 -0.304966 0.0243535
106 H 11.9415 19.5832 10.9004 0.290589 0.532907 -0.336718 0.314046
107 H 13.5793 18.4692 17.1872 -0.853604 0.0724051 -0.293356 -0.123812
108 H 8.65059 6.35348 11.668 -1.13271 0.0632054 -0.0697364 0.416954
109 H 4.01116 10.9826 18.8867 -0.0407178 0.142145 0.827677 1.03978
110 H 6.11809 2.56251 4.42264 0.636179 0.489358 0.138079 0.37
111 H 0.428925 7.34157 3.85894 0.753807 -0.22073 -0.194077 0.215268
112 H 17.2981 19.8664 0.696306 0.202427 0.15969 -0.116371 -0.306031
113 H 2.1427 14.1067 16.1344 -0.229758 0.0299902 -1.00318 -0.217743
114 H 19.1055 1.13989 5.74556 -0.896616 -1.95253 -0.564592 0.289034
115 H 6.41352 5.37488 16.3135 3.62847 1.71626 6.19364 0.162885
116 H 15.1845 3.77119 18.0803 -0.580955 -0.086612 0.271992 0.226949
117 H 11.7034 6.65401 10.5015 0.214845 -0.550582 -0.07978 0.05479
118 H 1.86844 9.78579 7.50017 0.583828 -0.107737 0.217829 -0.060339
119 H 8.25882 19.121 8.59996 0.311037 -0.175427 -0.0666424 0.21074
120 H 16.9169 20.9851 20.2523 -1.19076 1.25959 -0.738247 -0.640476
121 H 6.30345 21.0162 2.29344 0.336223 0.947433 0.694698 0.320124
122 H 7.13861 19.1524 0.563839 -0.579727 0.147899 0.323529 -0.0183103
123 H 16.9105 0.869171 13.5883 -3.33315 -2.66151 -16.3036 0.166918
124 H 19.1444 18.9446 15.1954 -1.84503 -3.22403 -0.559362 1.97396
125 H 16.2344 4.56532 19.7198 -0.566452 0.710886 0.95741 0.013436
126 H 13.9615 19.0152 2.61129 0.370602 -0.796869 0.889961 -0.712878
127 H 11.7327 6.56029 13.0632 0.923002 -0.357494 -0.0424655 -0.447966
128 H 13.0089 17.2438 4.02077 -0.41714 1.35761 0.289686 -0.11853
129 H 6.09504 17.9289 11.681 -1.33183 -0.420496 0.638926 0.216995
130 H 9.41163 8.25525 10.5831 1.00235 -0.609268 -0.525802 0.0709825
131 H 1.60659 14.0945 1.96534 0.0371792 -1.51476 0.450933 0.146924
132 H 17.672 15.1684 9.72799 0.6153 0.147145 0.427108 0.491357
133 H 13.1887 6.15419 1.34138 0.0295249 1.02096 0.0223906 -0.206304
134 H 15.401 9.6888 2.91892 -1.01911 -0.17463 0.16161 -0.359131
135 H 4.52948 17.6658 14.9968 0.180896 0.00720274 -0.481185 0.7438
136 H 8.74871 9.02762 5.95501 0.279488 0.178184 -0.400402 -0.142803
137 H 19.5605 12.3516 20.0987 -1.57024 -1.13989 -1.13662 0.00408523
138 H 16.7893 2.97231 7.93713 0.535997 -0.450599 0.624796 0.501252
139 H 18.5703 6.86006 20.6856 0.585415 -0.493042 0.39286 0.102269
140 H 2.5405 9.25674 12.5282 2.00444 0.14234 1.0531 0.351149
141 H 14.9145 11.1276 17.3718 0.97093 0.785812 0.0277183 -0.0977257
142 H 6.51685 11.8256 8.3733 -0.693874 1.38977 0.252985 0.552385
143 H 17.8917 18.4366 1.90091 0.167417 -0.66981 -0.163158 0.144302
144 H 13.0134 12.519 14.3748 -0.827256 -0.19876 0.193595 -0.0473595
145 H 7.43437 10.9543 3.25426 -0.0247082 -0.551013 0.919294 0.53079
146 H 0.35184 17.8026 6.66494 -0.878731 -0.186734 0.660649 -0.315208
147 H 15.0228 2.39491 11.2517 -1.0346 -0.51704 -0.725754 0.0440759
148 H 5.31671 4.49454 9.39349 0.232505 -0.151756 0.368418 1.43167
149 H 16.2303 12.4996 12.8137 0.475311 0.535414 0.897168 0.839605
150 H 17.6382 7.08139 11.3236 0.528516 0.174787 -0.0462435 0.653435
151 H 5.97007 5.41751 3.58144 0.506752 -0.435746 0.578833 1.56305
152 H 0.919504 13.4626 19.5361 0.194205 -0.130517 -1.0554 -0.282304
153 H 18.8471 20.9373 1.27449 0.772764 -0.278732 0.220347 -0.0449225
154 H 10.9796 18.2922 4.34415 0.172096 0.940515 0.301777 0.05082
155 H 16.7683 19.9524 13.4467 0.771693 1.26268 0.311484 0.140275
156 H 0.448365 11.052 19.015 -1.25633 -0.180895 -0.887125 -0.480101
157 H 9.27736 5.80708 18.7647 -0.391405 -0.564194 0.0355057 0.0506985
158 H 13.8948 16.2693 12.7961 -0.611057 0.58797 -0.330996 1.12301
159 H 9.56404 9.99433 16.9156 -0.0984297 0.614591 -0.815446 0.155085
160 H 19.7591 20.6677 7.45205 -0.0609623 -0.035202 -0.216336 -0.108932
161 H 16.6917 10.3424 18.4815 -0.237982 0.1886 -0.209239 -0.0130043
162 H 16.6899 5.89694 8.73012 0.889534 0.812934 0.807303 0.403414
163 H 7.10654 7.26283 16.6752 -0.162017 0.0232696 -0.61061 0.749447
164 H 4.6724 20.4253 5.0925 0.0932591 0.262336 0.375637 0.164046
165 H 3.71669 15.8031 10.8806 0.221564 0.108462 -0.431475 -0.000591601
166 H 2.89216 20.4613 6.47671 -0.0334711 0.562724 -0.332728 0.126547
167 H 2.92705 13.2214 5.44723 -0.212794 0.295592 0.480185 0.847382
168 H 6.13206 6.79357 11.053 1.66958 0.612249 -0.890853 1.22628
169 H 10.9605 9.76587 4.49846 -1.17045 1.29025 -0.0957845 -0.180176
170 H 15.0695 14.2884 18.547 -1.08749 0.0751776 -0.735775 0.68576
171 H 3.48452 15.7912 12.7294 0.355322 0.252725 0.131946 0.483528
172 H 1.51998 12.0591 4.93663 -0.121137 0.13384 -0.0134486 0.612448
173 H 17.5114 17.0347 14.2561 0.986808 0.214972 0.10748 1.84607
174 H 11.99 15.7579 16.3531 -0.0170731 -0.885283 0.219411 0.939667
175 H 15.7229 9.18321 15.6855 -0.0269039 -1.52019 -0.595736 -0.129072
176 H 9.84649 14.2831 21.0117 0.442865 0.43584 0.0332755 0.0394697
177 H 20.2942 10.5934 10.085 -0.0338099 0.0270178 -1.16018 0.0462937
178 H 1.28036 16.9819 10.6867 -0.232752 0.603747 0.437427 0.613051
179 H 0.2454 8.33907 14.2057 -0.68361 0.0706651 -1.37635 0.680804
180 H 20.3304 7.26449 10.4063 -0.69382 -0.277978 -0.137604 0.405457
181 H 5.31995 13.147 3.67698 -0.329649 0.471109 -0.334401 2.43425
182 H 18.7246 17.2414 16.2637 -0.0750986 0.177183 -0.653464 0.287825
183 H 0.0969458 12.4441 3.76537 0.24013 -0.278651 -0.395358 0.00161952
184 H 6.61571 8.68767 2.78639 0.249466 0.50881 0.383363 0.358046
185 H 20.5803 11.7589 6.65003 1.1147 -0.954077 -0.665164 0.459699
186 H 6.39782 3.52832 12.6413 0.862273 -0.666132 -0.594866 0.341289
187 H 15.7375 5.89771 2.08785 -1.67324 -0.563844 -1.28448 -0.103411
188 H 17.3857 18.0554 3.70897 -0.394357 -0.459995 0.972109 -0.19623
189 H 11.2016 4.75845 1.89589 -0.324361 -0.588902 -0.366925 -0.343973
190 H 12.3166 13.2051 19.1473 -1.36076 0.0755376 -0.296587 -0.00897774
191 H 13.0647 2.25523 7.83507 0.485179 0.23199 -0.622971 0.8768
192 H 12.8637 2.61474 15.6004 0.458302 1.6835 1.07883 -0.476385
193 H 6.49277 12.5035 6.63065 0.156194 0.498555 0.093223 1.1943
194 H 10.6631 13.2633 13.5674 0.212891 0.328284 -1.30131 -0.151819
195 H 11.6466 10.9985 19.3162 -0.340796 0.0556461 1.66482 0.0104817
196 H 10.5638 18.2414 21.1006 -1.30148 -0.628859 -0.290718 -0.389183
197 H 20.473 6.60013 12.9051 0.00187861 1.22294 0.704172 1.54081
198 H 9.48637 5.28006 13.0708 0.986276 -0.846007 0.10154 -0.288966
199 H 15.3886 8.33127 17.9545 -0.331233 0.00695426 1.15197 -0.363986
200 H 12.6123 15.2379 13.6381 0.0921833 -0.570908 -0.931079 0.813394
201 H 0.950166 13.0274 10.1387 -0.335106 -0.834206 -0.602626 0.0330308
202 H 18.3261 3.3175 13.7488 0.361237 0.116689 -0.338654 0.0815536
203 H 8.87715 8.63419 0.427854 -0.665352 -0.684747 0.464364 0.178942
204 H 0.262862 4.06296 1.10524 0.327377 -0.366807 0.516912 0.645195
205 H 12.8162 0.351581 14.2745 -0.416375 -0.448996 -0.387496 0.0108712
206 H 5.29053 12.1546 14.0229 -0.0649683 -0.353086 0.700934 -0.0589494
207 H 0.528493 0.427367 6.56888 1.20086 -1.76495 -0.936119 -0.0229383
208 H 10.0785 5.38537 16.4132 0.181185 0.939798 -0.524026 -0.0598044
209 H 7.46465 16.3987 9.81149 -0.0321611 -0.369731 0.551126 -0.222631
210 H 13.2412 11.8502 1.72139 -0.866017 0.31465 -0.959458 -0.256849
211 H 13.6118 15.8743 5.50837 -0.039374 0.373655 0.64876 0.0894467
212 H 4.50848 14.6711 13.9663 0.138364 -0.297071 -0.759218 0.363726
213 H 15.7929 17.2304 6.58385 -0.798129 0.00784214 1.40459 0.0184388
214 H 4.1608 9.52135 5.59726 0.61984 1.12408 0.527536 -0.117253
215 H 2.10465 2.06874 6.58386 1.28208 1.01416 1.03516 -0.0477954
216 H 16.9409 11.6027 2.54628 -0.659671 1.92774 0.35205 -0.694457
217 H 15.3893 16.7204 4.03733 0.401442 0.306103 -0.977982 -0.849362
218 H 17.1621 7.03586 2.08799 0.371074 1.01341 0.352781 0.115645
219 H 8.63073 1.04433 17.0877 1.11929 1.2087 -0.289012 1.60466
220 H 1.86244 10.6614 11.5436 -0.00640663 0.670234 0.741621 0.0528995
221 H 5.2504 8.24548 4.06547 0.415589 0.698219 0.400971 0.0967183
222 H 8.37821 3.83779 18.4441 0.606045 -0.0489918 -1.1002 -0.798099
223 H 17.7375 2.12443 10.2475 -0.11935 0.986131 0.858901 1.34864
224 H 16.754 17.3379 11.0576 0.157872 -0.551422 0.314062 0.121228
225 H 2.44039 11.143 20.2009 0.168242 0.865913 0.24309 0.499943
226 H 7.68168 1.55765 20.4559 0.0855416 1.1413 -0.00774798 0.234146
227 H 3.6584 3.809 12.5144 0.0425786 -1.1696 0.1196 2.38834
228 H 15.9342 21.0037 16.6871 -19.4499 -11.4923 12.7878 0.143402
229 H 15.5898 3.61748 16.3293 -0.748647 -2.21285 -1.64614 -0.0442846
230 H 9.87462 1.47877 19.4864 -1.06758 0.242351 -0.930705 0.447047
231 H 20.3556 3.92513 12.5664 -0.231549 -0.043469 0.48765 1.11639
232 H 1.95029 7.54031 13.0396 -1.33329 0.820112 1.0611 1.80249
233 H 5.57058 0.365356 16.0613 -0.0799789 0.00477474 -0.560993 0.34092
234 H 20.5375 9.90128 13.3958 -1.18578 -1.00707 0.509288 -0.158977
235 H 10.1419 7.44794 12.1651 0.947469 0.955079 0.0610251 0.142563
236 H 18.5599 13.2001 0.5821 0.62685 -0.453331 0.827079 -0.0789811
237 H 13.7749 14.8609 9.06343 -0.573404 -0.373641 -0.152282 0.0296669
238 H 19.583 10.1161 5.55299 0.48097 -0.23147 -0.100891 -0.0752881
239 H 7.82187 13.3682 7.81352 0.542544 0.267482 -0.717954 0.743694
240 H 12.6672 4.53922 8.74135 1.18451 -0.395773 0.248482 0.339664
241 H 18.0116 8.5828 17.9121 0.748105 -0.581515 -0.548937 0.355645
242 H 20.2357 0.419577 13.5628 1.81192 -0.536662 -2.09159 2.08275
243 H 6.80054 18.5018 7.06644 -0.204518 0.421199 -0.882312 0.00754315
244 H 5.75899 17.077 9.79116 -0.241938 -1.98608 -0.726932 -0.242703
245 H 18.2005 9.25885 1.013 0.676725 -1.03217 -0.713153 -0.0455273
246 H 14.8204 5.86701 20.407 -1.14828 -0.7152 0.51376 -0.0289797
247 H 4.55645 14.6621 17.7124 0.425041 -0.299963 -0.84556 0.343406
248 H 17.5053 1.89456 20.0268 -1.05548 0.212213 -1.40065 -0.320464
249 H 7.28151 7.21591 7.00385 0.621534 -0.617531 -0.632944 0.0342347
250 H 12.489 6.68831 17.8482 -0.986057 1.4457 0.248182 -0.474593
251 H 12.2162 20.2965 6.30869 1.0797 -0.557134 0.319118 0.960312
252 H 2.03455 17.4513 12.6336 -0.0394206 0.0657219 0.300775 1.17809
253 H 14.3666 14.8884 2.05632 -0.271139 -0.0495308 0.0869932 -0.0132595
254 H 3.97731 8.55967 14.6876 -0.0823899 0.790985 0.325662 0.65323
255 H 10.0116 2.70419 0.860092 0.16168 1.16571 -0.376735 0.256817
256 H 11.3734 11.5735 1.67185 1.24662 -0.457237 -0.623973 0.0431765
257 H 16.0659 10.9183 0.457698 -1.0316 -0.206643 -0.789184 -0.195463
258 H 19.9318 0.961747 3.09015 -0.154315 0.607104 -0.320476 -0.278707
259 H 15.0511 10.13 4.97853 0.451651 -0.270816 -0.589351 -0.409504
260 H 18.5508 2.81096 6.45329 -0.613989 1.00915 -0.650403 -0.00744529
261 H 12.9468 12.3839 10.2837 -0.229081 0.0984442 -0.440406 0.182418
262 H 6.70887 10.7285 16.4047 -0.434148 0.634401 -0.792236 0.563871
263 H 5.66486 19.1231 13.1798 -0.903501 -0.678232 0.446598 0.677009
264 H 20.5628 7.22345 0.134662 0.86451 1.17568 -2.34357 0.0487142
265 H 9.33609 14.765 2.50572 0.440283 0.235631 1.19805 -0.0676597
266 H 15.3507 2.05401 5.132 -1.63495 0.268847 -0.143346 0.0458768
267 H 6.89131 9.58279 7.21412 0.565883 0.663643 0.411196 -0.0309896
268 H 19.6467 3.53417 16.2197 1.23178 2.64028 0.462997 0.888757
269 H 14.843 20.4483 12.721 -0.386684 -0.702022 0.331165 0.287809
270 H 2.30862 4.12025 5.80371 0.039889 1.37352 0.375732 0.583863
271 H 12.8505 8.96293 14.8025 -0.181942 -0.282806 0.917709 -0.49715
272 H 2.45627 5.37243 0.587026 0.597391 -0.701705 0.488232 0.683553
273 H 12.3533 18.5197 21.0495 -0.963185 -0.0460521 -0.253529 0.163827
274 H 8.74173 0.223123 8.92934 0.158404 -0.262952 0.287835 0.544914
275 H 15.4456 2.411 0.419908 1.82351 0.888047 -0.484413 0.000408035
276 H 19.5931 18.5413 5.80152 -0.700362 0.649259 0.144917 0.0315617
277 H 19.8305 8.4449 7.74583 1.24329 -0.574339 0.595857 0.249446
278 H 20.3947 1.54596 1.16384 -0.119674 -0.158814 0.0949819 -0.0356917
279 H 9.52332 9.70101 7.96654 -0.246267 0.381789 0.397427 0.0141559
280 H 4.87607 10.3599 3.15632 0.0731112 -0.139425 -0.722837 0.410741
281 H 6.25681 1.19807 7.98939 0.474277 -0.7851 -0.404115 0.306136
282 H 10.4461 1.94063 7.3042 0.532777 0.0219923 0.253027 1.33064
283 H 1.7979 18.9153 3.37772 -0.0482652 -0.366693 0.3568 1.69885
284 H 6.04905 7.42193 14.3309 2.56033 5.20635 1.39994 0.14109
285 H 11.9725 1.06684 0.859248 -0.565362 2.35158 0.93281 0.197537
286 H 9.39433 14.1773 14.6948 0.403715 0.709385 -0.335183 0.292975
287 H 1.55841 4.81195 7.33214 -0.574319 1.33691 0.864619 0.930726
288 H 15.1362 18.8889 4.61552 -0.257535 -0.462806 0.134354 -0.188779
289 H 17.8929 5.46441 19.729 -0.624531 0.489123 0.0110093 -0.053197
290 H 9.99759 4.67357 5.03676 -0.819377 0.250598 -0.631021 0.423226
291 H 16.1696 9.90192 12.5705 0.15546 -0.444307 0.419181 0.579679
292 H 3.98749 8.38084 8.07668 -0.676244 -0.816034 -0.188414 -0.474076
293 H 1.56561 6.34058 6.05487 0.392132 -0.386799 -0.460175 0.542912
294 H 10.9822 8.08864 3.64244 -0.653579 0.943284 -1.24818 -0.432878
295 H 15.2516 19.2394 8.59305 0.147365 -0.656877 -0.205095 0.490552
296 H 1.02341 4.70557 2.66257 0.20504 0.38625 -0.589565 0.888265
297 H 0.280226 12.1974 0.109209 -1.30831 2.03038 1.99986 -0.122959
298 H 2.54459 13.1358 20.8471 -0.204957 -0.823443 0.954548 -0.104458
299 H 13.7703 9.09207 20.3068 -1.32824 -0.657027 -0.178156 0.36686
300 H 17.5744 0.21635 17.9461 0.817088 -0.613822 4.02982 -0.103572
301 H 19.7182 8.68663 4.22255 0.943528 -0.582824 -0.662734 0.118056
302 H 8.70653 6.50247 3.02201 -0.575983 -0.721951 0.0201589 -0.397425
303 H 0.512845 6.52987 18.8125 -0.132337 -0.164418 0.749696 0.297786
304 H 5.55776 14.9842 7.04841 0.649661 0.226859 -0.682825 0.816545
305 H 14.2486 13.6152 11.1538 -0.551699 0.155082 0.0920854 0.405329
306 H 17.395 4.97184 2.70368 -0.581617 -0.333228 1.568 -0.103751
307 H 13.7136 4.06061 12.7794 -1.23561 -0.868121 0.486332 -0.237853
308 H 4.21735 7.18604 20.1004 -0.0968191 0.650329 0.312149 0.586231
309 H 14.7214 1.51708 14.495 0.791669 0.446748 0.251944 -0.0895281
310 H 2.85904 12.9233 12.3615 -0.287496 0.158776 -0.0494645 0.449416
311 H 0.822611 14.5454 3.9634 0.480652 -0.90813 -0.676398 1.59464
312 H 0.061851 18.2299 19.7631 -0.107105 -0.686272 -0.353934 0.96019
313 H 19.2304 13.1365 7.73142 -0.0754838 0.985293 0.0111386 0.224124
314 H 12.3346 0.789776 10.9405 -0.41318 -1.36517 0.63076 1.81034
315 H 11.4444 20.4833 8.71959 1.17024 -0.0881132 0.432486 1.08785
316 H 7.35697 14.8804 0.874199 1.19486 -1.93734 1.22787 1.14903
317 H 9.16072 6.40043 9.02645 -0.347706 0.339043 -0.232836 0.481251
318 H 15.1816 20.8795 0.537734 -0.489847 0.731889 -0.104941 -0.386167
319 H 2.62612 9.45293 1.4209 -0.580355 -0.41199 0.685105 0.139655
320 H 13.8433 5.88474 9.99237 0.600942 -0.291177 -1.53583 0.331937
321 H 6.13244 13.451 20.9559 0.468189 1.27658 -0.373695 2.05107
322 H 0.776631 1.82145 12.7619 -0.632694 0.934536 -1.72239 0.878884
323 H 5.59251 19.34 3.10224 -0.686585 0.408896 0.405472 0.0981428
324 H 12.3024 14.0455 17.5444 0.546893 0.254562 -0.773719 0.352088
325 H 1.04751 18.4056 17.5129 0.21302 -0.748881 0.988704 1.5562
326 H 12.1579 13.8078 5.07201 -0.539298 -0.312404 -0.352544 -0.324742
327 H 19.5969 13.3298 15.467 -1.06479 -0.31502 -0.508237 0.159872
328 H 11.6103 12.0351 6.08081 0.562637 -0.237588 -0.544321 -0.390545
329 H 3.12057 12.2434 2.45863 0.342272 -0.171581 -0.412529 1.64879
330 H 15.1156 0.0667569 9.07362 -0.154937 -0.690347 -0.207341 0.609198
331 H 7.64626 5.43954 1.15748 -0.895733 -0.422419 0.735607 -0.281954
332 H 13.9379 4.19378 6.09419 0.300485 0.36682 -1.0254 -0.365067
333 H 2.6601 1.4565 16.7827 1.968 0.16804 2.39223 0.942187
334 H 20.1683 4.81118 5.28942 -0.565925 -0.888738 0.471 0.304693
335 H 13.745 16.9181 20.7835 -0.565183 -1.27999 -0.00992648 -0.184476
336 H 11.2673 6.76263 2.24896 -0.264425 -0.648733 0.73142 -0.255273
337 H 3.79659 11.447 0.857323 -0.485123 0.0918295 0.389642 0.711173
338 H 5.31622 19.0856 19.9645 0.0730037 -0.450622 1.34619 0.849153
339 H 4.20339 1.73444 15.7618 0.807536 0.761553 -0.502091 0.0688134
340 H 6.55439 6.46309 21.1055 0.091675 1.16473 0.14148 -0.389313
341 H 12.2623 8.38427 5.00838 -0.73043 -0.0967611 1.3271 -0.219288
342 H 20.0599 16.9181 11.9877 0.291109 -0.0805582 0.438313 0.704346
343 H 3.10553 6.12728 9.21198 1.22554 -0.282135 -2.36285 1.19202
344 H 14.3411 3.3418 19.84 -0.525939 0.517678 0.152221 -0.630244
345 H 8.02176 3.32753 11.305 -0.328716 0.48729 -0.523394 0.144397
346 H 11.5542 5.02807 14.7852 -1.58355 -1.1481 -1.08283 -0.226513
347 H 13.049 0.254172 2.20517 0.577091 0.836925 0.571568 -0.126506
348 H 8.82528 13.9839 16.8631 -0.338603 -1.04136 -0.498478 0.0560413
349 H 15.7391 10.1131 7.98592 0.228704 0.572598 1.07499 -0.0324026
350 H 15.3 13.6045 8.59087 -0.343179 -0.0595163 -0.440074 0.00774234
351 H 13.9483 14.2732 3.83435 -1.23907 -0.494059 -0.768894 -0.783573
352 H 16.4426 5.78694 0.186975 -0.914189 0.538949 -0.700546 0.0234783
353 H 5.93722 1.28689 13.8076 0.355525 -1.27925 0.0522416 -0.0078249
354 H 10.9676 11.556 8.78603 -0.723739 1.16549 -0.765973 0.139782
355 H 2.82693 6.20351 4.57863 -0.0997782 0.265214 -0.138457 0.498202
356 H 2.25642 14.706 18.0026 0.107502 0.0862639 -0.0221012 0.421517
357 H 2.83099 2.91846 18.6008 -0.429536 0.208314 1.41976 0.555221
358 H 17.2659 0.696169 0.653062 1.0646 1.7098 1.59816 -0.70865
359 H 17.5746 10.315 20.3592 0.638769 0.700165 -1.42548 -0.423287
360 H 13.2755 17.6743 5.97105 0.333606 0.484393 0.323571 0.655519
361 H 9.16863 1.46727 12.8311 1.14236 -0.687929 -1.04521 -0.527844
362 H 4.65415 3.83877 20.1345 -0.987977 0.0346646 0.00158716 -0.271206
363 H 17.5757 5.39437 15.1775 0.543304 -1.11506 -0.119674 1.52177
364 H 1.80005 15.3904 9.5674 -0.236818 0.174163 -0.436591 0.298199
365 H 10.7505 17.9079 2.47294 -1.04238 0.360613 -0.403642 -0.0588411
366 H 20.3125 17.1929 2.01412 -0.499472 -0.591806 0.651434 1.73779
367 H 19.0833 13.3924 9.78034 0.578257 0.496619 0.0208034 0.620651
368 H 8.80148 3.1456 2.38921 -0.0735813 0.97318 0.592923 -0.326182
369 H 16.9274 9.41741 9.82309 -0.739447 -0.799925 -0.122916 0.0520361
370 H 5.38713 20.7598 0.443898 -0.456306 0.299201 -0.941007 0.296156
371 H 19.6274 13.6194 12.0403 -0.271939 -0.17568 -0.529889 -0.0252336
372 H 14.5917 11.567 6.97234 -2.43471 1.34047 1.18662 0.105214
373 H 4.88942 20.4582 12.1962 0.684486 -0.193522 0.763622 0.00601349
374 H 19.8531 16.7117 4.05571 -0.78338 0.286002 -0.533369 2.10266
375 H 6.80918 19.7427 19.0024 -0.375347 0.0848615 0.279269 1.13176
376 H 18.9987 17.6805 10.554 0.311227 0.45662 -0.147333 -0.000243958
377 H 19.7668 10.5129 1.05816 -0.646253 0.626909 0.819647 0.0556415
378 H 11.4289 6.16056 5.46065 0.232246 -0.851928 -1.19259 -0.294702
379 H 11.4578 14.2896 1.40233 0.902082 -0.685385 0.314315 -0.680915
380 H 13.2968 11.2101 12.3137 -0.298009 -0.847727 0.292325 0.142429
381 H 15.923 2.68876 12.8559 -0.669242 -0.708835 0.759167 0.383046
382 H 11.6662 18.2995 9.46029 0.198035 -0.401865 -0.0416167 1.51523
383 H 12.9661 16.0891 1.98072 1.0637 0.747828 0.272719 -0.404296
384 H 19.2162 18.6319 3.94593 1.0394 -0.207668 0.246122 0.418561
385 H 15.1731 7.35797 9.83814 0.225609 0.224613 0.502622 0.259755
386 H 1.45592 0.83837 8.42513 0.312471 -0.756079 0.130749 0.486954
387 H 2.63499 0.713913 18.9858 0.650053 0.774626 0.416921 0.483905
388 H 16.3252 8.72805 1.15151 -0.883293 -0.438144 -0.324845 -0.383663
389 H 7.3547 16.564 17.8554 0.0896334 0.0815216 0.223879 0.757535
390 H 11.8324 9.80395 0.833262 -0.173725 0.857383 -0.335509 -0.336627
391 H 1.08095 2.43668 18.7772 -0.281881 -0.750416 1.45903 0.741953
392 H 14.0426 19.0167 20.2243 0.162362 2.24274 -0.664277 -0.186131
393 H 17.0286 0.182338 2.60397 0.319142 -0.0970825 0.193982 -0.0764795
394 H 12.0465 17.4554 15.5244 0.275234 0.528566 0.46266 0.519836
395 H 19.1888 15.1081 15.0585 0.00136504 0.809956 -0.547156 0.0174818
396 H 9.78712 10.8537 2.24681 0.703466 -2.11276 -0.126566 -0.400193
397 H 1.81408 13.5157 7.63613 -0.296132 0.649409 -0.00657451 0.0919964
398 H 2.74714 10.314 15.2103 0.430564 -1.14949 -0.350468 2.35263
399 H 5.30873 6.25166 8.34619 0.185569 0.666818 0.0242358 0.0684493
400 H 0.393869 16.331 8.09947 -0.199005 -0.243044 0.391708 0.384545
401 H 20.2329 2.20115 7.38563 1.31099 1.06189 -0.0348857 -0.103518
402 H 2.72406 8.18 5.07968 -0.276101 0.565934 0.0897359 0.127829
403 H 14.8598 16.687 18.0389 -2.08891 0.490721 -0.00129248 -0.046718
404 H 18.9584 16.5459 7.26411 -0.12132 -0.423692 0.102261 0.43816
405 H 8.56639 16.3299 6.20884 0.108433 0.233247 0.171013 0.458135
406 H 13.7125 0.0488283 16.8243 0.873413 0.483188 -1.4194 0.107205
407 H 6.81246 1.56927 1.27982 -0.500719 0.144857 -0.0367352 0.0019549
408 H 19.284 10.6255 15.081 0.0480678 0.945482 -0.26393 0.287938
409 H 6.86184 16.5306 5.38864 -0.390562 -0.324036 0.0474262 0.138058
410 H 20.8659 5.4961 8.63492 -1.65116 0.505964 -1.02136 1.79055
411 H 19.4209 15.9505 17.5791 0.017528 0.389301 -0.507861 -0.276397
412 H 17.4873 10.2976 14.4322 1.60227 0.24095 -1.13005 -0.293453
413 H 3.79634 17.3823 3.34422 1.07649 0.546045 1.19971 0.540963
414 H 12.2941 4.58896 11.0436 -0.795719 -0.102136 0.569756 0.297336
415 H 16.2439 13.725 0.42783 0.337164 0.0462582 -0.0616018 -0.198828
416 H 12.8156 6.71953 7.01644 -0.470588 -0.190825 0.169871 -0.0282444
417 H 7.91404 4.90113 5.9617 -0.304383 0.270254 -0.872596 0.796216
418 H 4.25477 1.77158 12.6491 -0.331235 0.398045 0.210665 0.525861
419 H 16.9851 4.07276 0.824223 -1.06615 -0.684608 -0.352561 -0.168993
420 H 4.17071 16.3479 20.5084 -1.49642 0.0999256 -0.892104 1.17109
421 H 1.00689 9.45068 15.8381 0.482245 0.405151 -0.636986 1.60602
422 H 5.49642 9.01912 12.8858 -0.913795 0.0982431 -0.327276 0.617817
423 H 18.4524 10.3133 2.69785 1.01086 0.613301 0.819182 0.1078
424 H 9.87763 14.689 8.69138 -0.351574 -0.328954 -1.07986 0.971966
425 H 12.7406 9.40309 18.3142 -0.822437 -0.770942 -0.506965 -0.153352
426 H 20.01 14.5669 2.00443 -0.246715 -0.579233 0.312319 0.366583
427 H 8.72748 7.2635 13.7371 -0.67392 0.642553 0.881729 0.226366
428 H 0.548192 9.16281 11.4292 -1.1768 -2.56217 -1.5015 0.0732586
429 H 5.99523 19.538 14.947 -1.69583 -0.0444631 -0.152672 0.277345
430 H 13.4684 11.8004 18.5374 1.10982 0.184343 0.0886814 -0.307642
431 H 5.40996 6.23058 18.5528 0.572534 -0.675971 -0.424648 0.214227
432 H 13.0879 10.6204 9.04621 0.522828 -0.384674 -1.50668 -0.0293885
433 H 3.63543 4.32598 4.50671 0.277414 -0.237961 -0.922435 1.4114
434 H 14.6301 1.86074 16.9733 2.32513 -1.52333 -1.70422 -0.0155196
435 H 7.73188 2.07366 13.7475 0.848499 -0.952344 0.440823 0.0460395
436 H 2.13163 18.0883 19.0895 -0.536838 -0.930276 -0.441753 1.12061
437 H 18.6694 9.04022 11.3183 1.10569 0.208577 -0.472624 0.525074
438 H 21.0967 0.24869 9.28514 0.75198 -0.257164 0.153886 0.311471
439 H 18.4853 14.8472 6.19385 0.0148933 0.192533 0.30518 0.0649108
440 H 7.62633 11.8948 12.0123 0.0759538 1.2721 0.987797 0.305796
441 H 15.5662 14.153 15.3923 0.0766439 -0.0157441 -0.623397 1.23043
442 H 11.4009 3.20412 17.1667 -0.198018 0.0110992 0.628019 -0.677253
443 H 19.3323 19.6613 20.5803 0.054109 -0.773923 -0.204204 0.248766
444 H 14.4909 9.07177 6.72772 -1.66755 -1.65665 -0.757478 0.210793