ITEM: TIMESTEP
233694
ITEM: NUMBER OF ATOMS
12500
ITEM: BOX BOUNDS pp pp pp
-1.1526214907779464e+00 5.9073805096953080e+01
-1.1526214907779464e+00 5.9073805096953080e+01
-1.1526214907779464e+00 6.7434496745548529e+01
ITEM: ATOMS id type xs ys zs
1 2 0.366195 0.381905 0.255823
2 2 0.17334 0.0336903 0.252734
3 2 0.171101 0.0515402 0.199306
4 2 0.518663 0.123583 0.176151
5 2 0.039812 0.478506 0.0125802
6 2 0.663248 0.202853 0.105074
7 2 0.306384 0.425329 0.70459
8 2 0.278373 0.206517 0.512824
9 2 0.436271 0.204994 0.0485497
10 2 0.832164 0.0922738 0.163604
11 2 0.278119 0.864136 0.815423
12 2 0.335116 0.844831 0.230387
13 2 0.467012 0.062979 0.517792
14 2 0.249683 0.318197 0.0757142
15 2 0.249173 0.40419 0.386594
16 2 0.296852 0.178114 0.107458
17 2 0.700539 0.189649 0.675776
18 2 0.132398 0.123918 0.162078
19 2 0.294523 0.991054 0.438516
20 2 0.0957166 0.234905 0.892865
21 2 0.422621 0.948081 0.496471
22 2 0.345454 0.0991015 0.0435154
23 2 0.322401 0.229905 0.850901
24 2 0.189683 0.676141 0.327482
25 2 0.666724 0.927812 0.116042
26 2 0.476894 0.644369 0.115353
27 2 0.0610979 0.854908 0.363854
28 2 0.195719 0.550647 0.319353
29 2 0.218731 0.576426 0.781961
30 2 0.25064 0.904002 0.391079
31 2 0.720477 0.899433 0.132787
32 2 0.369823 0.283516 0.98981
33 2 0.353542 0.382394 0.0757475
34 2 0.380374 0.32116 0.223455
35 2 0.0798807 0.409626 0.0524244
36 2 0.326826 0.439556 0.965962
37 2 0.247113 0.989844 0.232371
38 2 0.577291 0.56428 0.313707
39 2 0.277592 0.805465 0.847849
40 2 0.301727 0.324155 0.551056
41 2 0.19204 0.241212 0.647201
42 2 0.0357318 0.0514386 0.602106
43 2 0.246503 0.152717 0.175745
44 2 0.585806 0.981569 0.438241
45 2 0.29005 0.238519 0.907158
46 2 0.00910681 0.792389 0.933119
47 2 0.386191 0.423288 0.158811
48 2 0.434449 0.211155 0.477944
49 2 0.901082 0.919233 0.130362
50 2 0.880384 0.624891 0.119574
51 2 0.292201 0.324453 0.33774
52 2 0.372354 0.121887 0.996058
53 2 0.153956 0.275038 0.235537
54 2 0.25773 0.421034 0.665345
55 2 0.0442188 0.354606 0.704702
56 2 0.511401 0.0879103 0.328766
57 2 0.379743 0.249488 0.0329025
58 2 0.181332 0.343379 0.35577
59 2 0.255023 0.13055 0.031979
60 2 0.299178 0.345596 0.261233
61 2 0.508748 0.232687 0.12466
62 2 0.854402 0.0632576 0.823221
63 2 0.0677232 0.0306225 0.338971
64 2 0.226348 0.352835 0.289919
65 2 0.219606 0.246306 0.975073
66 2 0.0463521 0.585062 0.496307
67 2 0.290094 0.223877 0.617141
68 2 0.0907552 0.76244 0.0992952
69 2 0.0129664 0.0994871 0.0208636
70 2 0.304223 0.382568 0.272907
71 2 0.0256118 0.454771 0.40958
72 2 0.164834 0.812193 0.256112
73 2 0.119075 0.119808 0.0283328
74 2 0.170956 0.890386 0.41241
75 2 0.326359 0.972003 0.994964
76 2 0.0332292 0.805354 0.694099
77 2 0.128241 0.788029 0.514356
78 2 0.297707 0.108986 0.517297
79 2 0.384023 0.74465 0.220203
80 2 0.0247987 0.159933 0.353824
81 2 0.169624 0.364407 0.403155
82 2 0.129448 0.466972 0.386532
83 2 0.00961914 0.963384 0.142599
84 2 0.5639 0.350649 0.256283
85 2 0.830381 0.857405 0.950968
86 2 0.354392 0.650303 0.751693
87 2 0.362232 0.148326 0.971434
88 2 0.97949 0.169054 0.634252
89 2 0.179349 0.0751238 0.940955
90 2 0.555615 0.0877902 0.390659
91 2 0.785827 0.377385 0.0402318
92 2 0.224877 0.348467 0.391367
93 2 0.34742 0.25279 0.642354
94 2 0.380553 0.341226 0.0428784
95 2 0.187489 0.240909 0.279663
96 2 0.608744 0.0643901 0.308077
97 2 0.0866731 0.129533 0.118657
98 2 0.283584 0.290129 0.549158
99 2 0.213233 0.257019 0.703915
100 2 0.30269 0.31582 0.283324
101 2 0.117029 0.948189 0.506075
102 2 0.0163884 0.656248 0.317636
103 2 0.388264 0.981415 0.0845519
104 2 0.139616 0.122596 0.27522
105 2 0.230935 0.469352 0.241851
106 2 0.374427 0.0281827 0.294536
107 2 0.259951 0.276944 0.25582
108 2 0.295592 0.198972 0.542772
109 2 0.116013 0.266572 0.156894
110 2 0.104301 0.377823 0.108239
111 2 0.711551 0.424147 0.326968
112 2 0.0898132 0.344572 0.303357
113 2 0.0186688 0.189308 0.174782
114 2 0.00494556 0.277758 0.409796
115 2 0.541253 0.919686 0.951537
116 2 0.544944 0.652274 0.312839
117 2 0.221154 0.147372 0.296862
118 2 0.0571931 0.217107 0.231467
119 2 0.268642 0.240067 0.210702
120 2 0.409951 0.693428 0.394936
121 2 0.986108 0.529301 0.668618
122 2 0.0753655 0.28543 0.188699
123 2 0.995576 0.697207 0.627214
124 2 0.176699 0.147398 0.54216
125 2 0.492656 0.6874 0.300941
126 2 0.889273 0.417275 0.321296
127 2 0.13033 0.76553 0.950388
128 2 0.949045 0.207689 0.265417
129 2 0.417561 0.183199 0.946817
130 2 0.27009 0.0811847 0.31393
131 2 0.148077 0.159128 0.87831
132 2 0.336381 0.0022855 0.0451803
133 2 0.731656 0.309918 0.338642
134 2 0.796313 0.685027 0.653917
135 2 0.304481 0.407814 0.246209
136 2 0.489228 0.0509427 0.924781
137 2 0.361033 0.181124 0.234971
138 2 0.287872 0.691302 0.374088
139 2 0.0280493 0.907177 0.366863
140 2 0.122579 0.354436 0.931461
141 2 0.0743418 0.101364 0.29718
142 2 0.260518 0.300859 0.201036
143 2 0.335691 0.258179 0.290604
144 2 0.244872 0.285984 0.39189
145 2 0.394164 0.302586 0.520787
146 2 0.00560147 0.559861 0.730952
147 2 0.00388964 0.0145509 0.723794
148 2 0.337943 0.0752034 0.229117
149 2 0.261087 0.385438 0.577183
150 2 0.0462703 0.35698 0.440517
151 2 0.0279546 0.288414 0.152196
152 2 0.389318 0.754364 0.515523
153 2 0.08054 0.0447533 0.65201
154 2 0.125042 0.167973 0.351035
155 2 0.375588 0.165215 0.566529
156 2 0.209094 0.169668 0.176477
157 2 0.783576 0.128385 0.0566952
158 2 0.501172 0.195257 0.293278
159 2 0.224495 0.091328 0.428362
160 2 0.780988 0.331345 0.475491
161 2 0.873878 0.176665 0.242905
162 2 0.509498 0.160547 0.0439082
163 2 0.286176 0.228687 0.270619
164 2 0.589006 0.225879 0.183579
165 2 0.246726 0.486295 0.652954
166 2 0.357487 0.165926 0.0736152
167 2 0.146143 0.1561 0.820834
168 2 0.983441 0.414949 0.716072
169 2 0.349039 0.428087 0.742275
170 2 0.206157 0.0644505 0.311928
171 2 0.0875959 0.159742 0.219451
172 2 0.230318 0.347681 0.551363
173 2 0.260486 0.425924 0.338834
174 2 0.474062 0.0981768 0.125517
175 2 0.0431322 0.415842 0.179873
176 2 0.394161 0.29329 0.269431
177 2 0.43492 0.388539 0.98865
178 2 0.315036 0.1322 0.162359
179 2 0.0391074 0.422974 0.905966
180 2 0.164292 0.109618 0.336791
181 2 0.287105 0.369761 0.626903
182 2 0.219201 0.231702 0.00796908
183 2 0.576309 0.502985 0.487294
184 2 0.954288 0.195513 0.198262
185 2 0.248203 0.414809 0.030923
186 2 0.17328 0.142987 0.962389
187 2 0.935567 0.0594837 0.195537
188 2 0.0847432 0.397603 0.270252
189 2 0.191612 0.0762469 0.690642
190 2 0.169477 0.34715 0.135532
191 2 0.0523071 0.4371 0.313941
192 2 0.26075 0.119025 0.485351
193 2 0.968308 0.0705629 0.780169
194 2 0.278914 0.524455 0.224966
195 2 0.481055 0.212624 0.396037
196 2 0.476578 0.856281 0.368106
197 2 0.0578884 0.08397 0.160083
198 2 0.919345 0.211503 0.404884
199 2 0.250889 0.581061 0.954954
200 2 0.384917 0.384475 0.387821
201 2 0.264259 0.140052 0.0658763
202 2 0.148746 0.236073 0.717044
203 2 0.108706 0.469514 0.296955
204 2 0.515054 0.0615704 0.0988229
205 2 0.490651 0.177295 0.346514
206 2 0.0326351 0.271268 0.104862
207 2 0.18507 0.112428 0.190591
208 2 0.67934 0.861918 0.100766
209 2 0.909339 0.568156 0.470024
210 2 0.145293 0.10685 0.190534
211 2 0.513114 0.974591 0.175548
212 2 0.948441 0.861942 0.345377
213 2 0.9592 0.00184886 0.324531
214 2 0.416786 0.965827 0.74797
215 2 0.290454 0.196143 0.160831
216 2 0.900786 0.723427 0.374884
217 2 0.0940403 0.210267 0.143396
218 2 0.103175 0.408803 0.298095
219 2 0.95695 0.0582202 0.645093
220 2 0.961419 0.396972 0.156905
221 2 0.336198 0.278349 0.137299
222 2 0.0960172 0.257947 0.0385672
223 2 0.204315 0.648859 0.762654
224 2 0.196071 0.888668 0.852975
225 2 0.797397 0.497114 0.478889
226 2 0.609672 0.214661 0.731619
227 2 0.422352 0.986793 0.30762
228 2 0.231838 0.284324 0.0777958
229 2 0.309736 0.142707 0.472236
230 2 0.347423 0.242252 0.261443
231 2 0.246096 0.545454 0.281196
232 2 0.965711 0.773878 0.986141
233 2 0.0740405 0.998994 0.145982
234 2 0.267019 0.914388 0.361722
235 2 0.183457 0.989281 0.10536
236 2 0.219736 0.867188 0.186002
237 2 0.0311497 0.916565 0.291828
238 2 0.224184 0.169042 0.996427
239 2 0.984191 0.113792 0.114907
240 2 0.901196 0.15655 0.365912
241 2 0.374196 0.286583 0.375104
242 2 0.00256027 0.444497 0.948381
243 2 0.389119 0.93954 0.256734
244 2 0.118008 0.167073 0.198829
245 2 0.343748 0.750453 0.933652
246 2 0.791366 0.380187 0.723316
247 2 0.970997 0.25858 0.407151
248 2 0.288584 0.238288 0.163774
249 2 0.444773 0.746236 0.267592
250 2 0.246801 0.184196 0.329376
251 2 0.519689 0.592659 0.98124
252 2 0.159525 0.75217 0.883187
253 2 0.158138 0.59271 0.304841
254 2 0.118912 0.180927 0.146184
255 2 0.406801 0.222463 0.245743
256 2 0.557504 0.0546737 0.0215751
257 2 0.407283 0.365822 0.338443
258 2 0.495068 0.075421 0.827505
259 2 0.380472 0.552813 0.246623
260 2 0.36736 0.120519 0.253637
261 2 0.0431114 0.5132 0.998435
262 2 0.269182 0.290357 0.988753
263 2 0.602259 0.0730435 0.0640134
264 2 0.118081 0.183184 0.877888
265 2 0.367542 0.082103 0.249662
266 2 0.134886 0.514453 0.26744
267 2 0.935459 0.503906 0.0714449
268 2 0.196177 0.275398 0.985837
269 2 0.229104 0.40667 0.616569
270 2 0.231667 0.169044 0.920096
271 2 0.0813904 0.272888 0.249227
272 2 0.93645 0.25354 0.229404
273 2 0.595235 0.353831 0.149819
274 2 0.271336 0.174432 0.240617
275 2 0.35527 0.143429 0.228092
276 2 0.625288 0.604646 0.29082
277 2 0.647065 0.895351 0.315223
278 2 0.549541 0.171475 0.0416795
279 2 0.200749 0.399209 0.990472
280 2 0.0488355 0.127902 0.258244
281 2 0.0640378 0.152467 0.05217
282 2 0.266154 0.744344 0.149417
283 2 0.430444 0.0338638 0.151807
284 2 0.272011 0.392395 0.291752
285 2 0.376537 0.133904 0.148989
286 2 0.943203 0.886632 0.459597
287 2 0.290729 0.244292 0.107791
288 2 0.684631 0.105357 0.159001
289 2 0.828126 0.372048 0.169115
290 2 0.115976 0.748468 0.394458
291 2 0.0628057 0.804491 0.630611
292 2 0.429936 0.120811 0.171171
293 2 0.0827691 0.933515 0.991729
294 2 0.308751 0.209438 0.687293
295 2 0.179389 0.389362 0.252684
296 2 0.0967578 0.338993 0.270305
297 2 0.14389 0.354216 0.353014
298 2 0.181948 0.796073 0.357218
299 2 0.878429 0.35851 0.365545
300 2 0.163586 0.436717 0.509724
301 2 0.242586 0.413602 0.0984063
302 2 0.156209 0.00654904 0.0146108
303 2 0.251949 0.238162 0.107309
304 2 0.0982343 0.798437 0.300338
305 2 0.241881 0.207674 0.126762
306 2 0.394929 0.328547 0.333802
307 2 0.816296 0.603376 0.721066
308 2 0.478549 0.789083 0.529426
309 2 0.911868 0.353967 0.104209
310 2 0.297091 0.113779 0.944932
311 2 0.245025 0.455251 0.922173
312 2 0.964958 0.0518308 0.35435
313 2 0.15775 0.750459 0.119943
314 2 0.336031 0.0340709 0.28986
315 2 0.68832 0.948651 0.346665
316 2 0.548249 0.750131 0.100049
317 2 0.430629 0.023514 0.56375
318 2 0.140289 0.575031 0.160053
319 2 0.139403 0.475787 0.435334
320 2 0.58594 0.410591 0.255321
321 2 0.20083 0.499065 0.292953
322 2 0.508973 0.876558 0.36442
323 2 0.487177 0.0886797 0.37766
324 2 0.443628 0.123055 0.304359
325 2 0.402942 0.352721 0.95861
326 2 0.805437 0.451609 0.335904
327 2 0.190127 0.371171 0.0112694
328 2 0.150086 0.315504 0.124871
329 2 0.0331383 0.33052 0.973245
330 2 0.180845 0.567236 0.781282
331 2 0.282585 0.350621 0.136596
332 2 0.33518 0.674156 0.954192
333 2 0.459889 0.352847 0.526972
334 2 0.972343 0.0827963 0.898965
335 2 0.336348 0.289214 0.102019
336 2 0.261328 0.350981 0.681324
337 2 0.222615 0.638837 0.475035
338 2 0.315142 0.988306 0.182815
339 2 0.313764 0.436616 0.311876
340 2 0.260514 0.000714334 0.556436
341 2 0.0702785 0.288125 0.00132855
342 2 0.864776 0.282649 0.0227768
343 2 0.092489 0.274735 0.894618
344 2 0.263069 0.339591 0.24671
345 2 0.504415 0.198018 0.228727
346 2 0.502192 0.756823 0.355671
347 2 0.615736 0.227564 0.936047
348 2 0.244699 0.265003 0.194336
349 2 0.469083 0.719182 0.2274
350 2 0.641232 0.145489 0.643421
351 2 0.012399 0.212566 0.0802479
352 2 0.00468483 0.852742 0.447177
353 2 0.474938 0.593261 0.360933
354 2 0.386695 0.0454783 0.347773
355 2 0.0495279 0.336797 0.221659
356 2 0.30247 0.510105 0.385953
357 2 0.214544 0.711411 0.223914
358 2 0.0977678 0.654994 0.680308
359 2 0.230644 0.556822 0.0696571
360 2 0.23818 0.506585 0.959249
361 2 0.267895 0.139466 0.254097
362 2 0.231636 0.70177 0.479543
363 2 0.99366 0.875898 0.831417
364 2 0.0279839 0.851066 0.30241
365 2 0.152914 0.0544012 0.358088
366 2 0.401612 0.19002 0.484502
367 2 0.311819 0.767475 0.275114
368 2 0.0333496 0.265143 0.913477
369 2 0.308746 0.403026 0.129332
370 2 0.972607 0.839399 0.327371
371 2 0.33902 0.723025 0.308019
372 2 0.220441 0.0662665 0.861651
373 2 0.999483 0.0230684 0.251305
374 2 0.499994 0.0132913 0.423912
375 2 0.419252 0.32273 0.216577
376 2 0.16807 0.0982574 0.238489
377 2 0.160586 0.986861 0.392709
378 2 0.985263 0.206402 0.00640953
379 2 0.864626 0.141658 0.160461
380 2 0.585974 0.167663 0.106296
381 2 0.40245 0.614616 0.0638313
382 2 0.377245 0.854717 0.772641
383 2 0.0100108 0.299993 0.0561558
384 2 0.544522 0.233589 0.261629
385 2 0.192379 0.270085 0.22865
386 2 0.648709 0.0350614 0.148217
387 2 0.193605 0.11392 0.157199
388 2 0.616613 0.268576 0.339261
389 2 0.47319 0.00634917 0.371777
390 2 0.936293 0.363373 0.0570197
391 2 0.229074 0.301694 0.33824
392 2 0.128366 0.199682 0.0499133
393 2 0.414475 0.535894 0.45345
394 2 0.0902406 0.0395264 0.189916
395 2 0.388254 0.402517 0.419903
396 2 0.194781 0.265379 0.576137
397 2 0.939746 0.766114 0.376324
398 2 0.319938 0.463579 0.89633
399 2 0.294347 0.0248993 0.250841
400 2 0.23158 0.284132 0.755924
401 2 0.24569 0.217337 0.348201
402 2 0.161287 0.404101 0.877716
403 2 0.332873 0.77764 0.208965
404 2 0.439123 0.986615 0.415965
405 2 0.108164 0.247256 0.321946
406 2 0.945071 0.0854278 0.600241
407 2 0.0537888 0.478016 0.362333
408 2 0.386139 0.163636 0.127996
409 2 0.287981 0.0212194 0.871309
410 2 0.121194 0.992467 0.674594
411 2 0.52671 0.967857 0.143384
412 2 0.94914 0.1277 0.211347
413 2 0.53147 0.144426 0.31063
414 2 0.0537381 0.375562 0.772455
415 2 0.632865 0.758093 0.267276
416 2 0.544706 0.689548 0.352634
417 2 0.326897 0.0726741 0.286303
418 2 0.391842 0.197828 0.146051
419 2 0.569678 0.883475 0.404355
420 2 0.872499 0.45204 0.11144
421 2 0.0428268 0.857809 0.190524
422 2 0.120963 0.503896 0.518432
423 2 0.0935261 0.782651 0.868645
424 2 0.989843 0.988814 0.23787
425 2 0.31156 0.0481139 0.133252
426 2 0.275346 0.807628 0.437901
427 2 0.353649 0.397104 0.516074
428 2 0.0751939 0.314516 0.0518824
429 2 0.0897732 0.266303 0.0917679
430 2 0.107378 0.433384 0.00139827
431 2 0.273764 0.447315 0.466669
432 2 0.633376 0.974359 0.574718
433 2 0.411519 0.12032 0.421466
434 2 0.117314 0.325658 0.184092
435 2 0.204727 0.131397 0.883811
436 2 0.323015 0.644415 0.178769
437 2 0.286014 0.0112766 0.191344
438 2 0.834992 0.588083 0.185965
439 2 0.802967 0.102185 0.28755
440 2 0.448923 0.0948283 0.0231125
441 2 0.41227 0.348953 0.149862
442 2 0.215865 0.547836 0.0350477
443 2 0.537693 0.224199 0.0787608
444 2 0.333559 0.513919 0.709402
445 2 0.246506 0.317052 0.741465
446 2 0.179196 0.215881 0.77575
447 2 0.113486 0.254065 0.937172
448 2 0.410357 0.0769559 0.196046
449 2 0.30854 0.303402 0.686818
450 2 0.112061 0.941093 0.371024
451 2 0.848882 0.415923 0.435079
452 2 0.304079 0.175213 0.670891
453 2 0.400612 0.443895 0.385621
454 2 0.0526421 0.328814 0.376058
455 2 0.149676 0.622781 0.189747
456 2 0.800884 0.588958 0.201606
457 2 0.104796 0.979128 0.961559
458 2 0.327086 0.240997 0.917853
459 2 0.340497 0.0945152 0.199394
460 2 0.401409 0.2566 0.692805
461 2 0.307854 0.195671 0.747019
462 2 0.60284 0.258313 0.245651
463 2 0.253206 0.383335 0.052842
464 2 0.462351 0.362965 0.194555
465 2 0.335862 0.432843 0.240984
466 2 0.981063 0.321948 0.178423
467 2 0.421 0.872215 0.335213
468 2 0.0769109 0.867663 0.416055
469 2 0.347299 0.181022 0.180466
470 2 0.782688 0.198003 0.276938
471 2 0.998904 0.0735731 0.206534
472 2 0.515251 0.351531 0.430151
473 2 0.111851 0.372008 0.258938
474 2 0.132071 0.318006 0.921637
475 2 0.370937 0.676194 0.274065
476 2 0.13792 0.255308 0.394482
477 2 0.704592 0.120287 0.848248
478 2 0.43685 0.334676 0.959763
479 2 0.10484 0.151627 0.095692
480 2 0.0259727 0.943391 0.677381
481 2 0.219149 0.255242 0.62606
482 2 0.275449 0.174134 0.307278
483 2 0.253367 0.157955 0.484375
484 2 0.597675 0.0207935 0.882317
485 2 0.533874 0.970984 0.386388
486 2 0.0380966 0.350421 0.275107
487 2 0.457018 0.488458 0.2606
488 2 0.380382 0.147866 0.53641
489 2 0.168557 0.325602 0.689911
490 2 0.276686 0.0533882 0.98078
491 2 0.169948 0.216996 0.224251
492 2 0.976323 0.0553292 0.386527
493 2 0.9479 0.540034 0.201062
494 2 0.290859 0.564243 0.0908826
495 2 0.0709321 0.425523 0.157093
496 2 0.875351 0.756195 0.918005
497 2 0.704975 0.315562 0.092162
498 2 0.456759 0.690844 0.497885
499 2 0.989758 0.32915 0.0177854
500 2 0.705023 0.038247 0.338697
501 2 0.34579 0.328291 0.9496
502 2 0.724328 0.4906 0.122171
503 2 0.511504 0.130086 0.409905
504 2 0.448029 0.481597 0.442224
505 2 0.331944 0.271794 0.992884
506 2 0.189685 0.440408 0.11218
507 2 0.192593 0.40621 0.129444
508 2 0.0766914 0.0563203 0.117602
509 2 0.738827 0.529264 0.396295
510 2 0.155302 0.138397 0.0288799
511 2 0.363145 0.48131 0.175573
512 2 0.824098 0.368219 0.772964
513 2 0.699207 0.357659 0.32299
514 2 0.353548 0.091529 0.010777
515 2 0.936932 0.291722 0.44229
516 2 0.586738 0.31242 0.989648
517 2 0.284644 0.171646 0.468443
518 2 0.0107297 0.0980384 0.295565
519 2 0.241829 0.170392 0.543797
520 2 0.851723 0.412514 0.992411
521 2 0.956792 0.439511 0.729944
522 2 0.807359 0.300622 0.278218
523 2 0.903414 0.681053 0.324731
524 2 0.200414 0.438915 0.314638
525 2 0.479682 0.55701 0.205161
526 2 0.194111 0.286422 0.0681551
527 2 0.521042 0.261495 0.698618
528 2 0.976172 0.434344 0.97271
529 2 0.480025 0.313502 0.244917
530 2 0.010825 0.511918 0.0733816
531 2 0.236822 0.71487 0.801095
532 2 0.181038 0.31065 0.308192
533 2 0.15881 0.186444 0.0677348
534 2 0.273914 0.239919 0.529476
535 2 0.316764 0.140174 0.221117
536 2 0.0804459 0.639 0.351058
537 2 0.832867 0.275108 0.155551
538 2 0.734515 0.958934 0.117551
539 2 0.0730558 0.154487 0.272037
540 2 0.318274 0.143302 0.277959
541 2 0.316184 0.714178 0.889225
542 2 0.977519 0.416703 0.0561481
543 2 0.124608 0.321892 0.775729
544 2 0.505191 0.70268 0.225737
545 2 0.377158 0.579937 0.863635
546 2 0.336858 0.88347 0.231058
547 2 0.188689 0.0091882 0.348029
548 2 0.327346 0.0286891 0.0219065
549 2 0.0941382 0.168862 0.902454
550 2 0.337138 0.157092 0.326721
551 2 0.0349367 0.174833 0.0403352
552 2 0.038077 0.0665353 0.112647
553 2 0.130355 0.123951 0.74487
554 2 0.522112 0.249711 0.372847
555 2 0.418008 0.38672 0.912922
556 2 0.279761 0.241726 0.586306
557 2 0.0807474 0.337832 0.65418
558 2 0.246547 0.399155 0.26596
559 2 0.951349 0.331107 0.687661
560 2 0.34578 0.986417 0.41562
561 2 0.583313 0.8953 0.565441
562 2 0.442632 0.407554 0.307434
563 2 0.339208 0.0846433 0.3441
564 2 0.165209 0.412003 0.363435
565 2 0.361368 0.424314 0.566361
566 2 0.629417 0.935733 0.701707
567 2 0.0809839 0.0124071 0.397954
568 2 0.740622 0.142514 0.358055
569 2 0.0460524 0.388607 0.275535
570 2 0.540914 0.262551 0.204556
571 2 0.826281 0.26011 0.204423
572 2 0.850945 0.57284 0.425624
573 2 0.335208 0.362704 0.441907
574 2 0.0538612 0.539418 0.206522
575 2 0.309947 0.638203 0.401731
576 2 0.3677 0.643441 0.219261
577 2 0.164363 0.491753 0.279934
578 2 0.424145 0.379257 0.463592
579 2 0.324808 0.847216 0.547436
580 2 0.634145 0.910458 0.102834
581 2 0.384183 0.985532 0.980296
582 2 0.410945 0.240318 0.517056
583 2 0.350717 0.393521 0.549464
584 2 0.51145 0.982251 0.240659
585 2 0.0568505 0.182689 0.214966
586 2 0.252572 0.293498 0.311259
587 2 0.397845 0.187609 0.997709
588 2 0.0540673 0.571499 0.987903
589 2 0.976871 0.241275 0.941237
590 2 0.127841 0.817937 0.413012
591 2 0.477037 0.0150615 0.0797081
592 2 0.374851 0.519342 0.861363
593 2 0.468611 0.191521 0.47386
594 2 0.0628997 0.247929 0.182792
595 2 0.261475 0.939635 0.568541
596 2 0.470709 0.212896 0.535524
597 2 0.293883 0.425434 0.413881
598 2 0.398392 0.985783 0.927101
599 2 0.836779 0.716828 0.172058
600 2 0.455334 0.199846 0.194856
601 2 0.3724 0.962769 0.193693
602 2 0.429996 0.182741 0.421901
603 2 0.293505 0.44796 0.985406
604 2 0.408115 0.390744 0.115125
605 2 0.1441 0.311899 0.239338
606 2 0.708122 0.0372303 0.905559
607 2 0.40428 0.113883 0.0498442
608 2 0.152842 0.0675571 0.255709
609 2 0.310168 0.117561 0.194151
610 2 0.934633 0.0357126 0.167437
611 2 0.0181311 0.221033 0.384327
612 2 0.164585 0.569186 0.0559017
613 2 0.146655 0.254053 0.324558
614 2 0.808557 0.658233 0.00104574
615 2 0.161943 0.189033 0.928932
616 2 0.468109 0.246415 0.519488
617 2 0.306872 0.497459 0.495691
618 2 0.651398 0.666447 0.430194
619 2 0.270779 0.269458 0.372992
620 2 0.21375 0.156531 0.228301
621 2 0.190083 0.198631 0.049871
622 2 0.28685 0.549926 0.172236
623 2 0.188759 0.162265 0.253235
624 2 0.966319 0.940063 0.219972
625 2 0.780932 0.275888 0.362782
626 2 0.943951 0.990323 0.275466
627 2 0.183321 0.816729 0.000290429
628 2 0.389955 0.331998 0.125529
629 2 0.599314 0.785573 0.481244
630 2 0.0231992 0.945121 0.371531
631 2 0.162231 0.0910754 0.851207
632 2 0.381561 0.598826 0.0370118
633 2 0.17843 0.0916006 0.307514
634 2 0.996881 0.494909 0.680662
635 2 0.240442 0.12864 0.232212
636 2 0.415965 0.967568 0.25065
637 2 0.693999 0.221127 0.47146
638 2 0.219531 0.145584 0.0234775
639 2 0.139358 0.580883 0.86111
640 2 0.224775 0.881624 0.0520327
641 2 0.303773 0.123926 0.250668
642 2 0.314053 0.183428 0.311195
643 2 0.124497 0.678583 0.330096
644 2 0.22017 0.239896 0.56085
645 2 0.771805 0.47674 0.384342
646 2 0.364471 0.431841 0.50409
647 2 0.204979 0.235559 0.387928
648 2 0.975685 0.486843 0.176018
649 2 0.451532 0.0469014 0.409248
650 2 0.480958 0.391515 0.104671
651 2 0.251528 0.205916 0.201385
652 2 0.952925 0.719305 0.045102
653 2 0.170655 0.939638 0.0765962
654 2 0.112555 0.933245 0.0153193
655 2 0.883217 0.358335 0.749693
656 2 0.27525 0.42747 0.307027
657 2 0.215857 0.398055 0.212985
658 2 0.18693 0.55547 0.837229
659 2 0.376847 0.156174 0.176472
660 2 0.205688 0.338224 0.145202
661 2 0.300193 0.245419 0.299535
662 2 0.693241 0.612852 0.380444
663 2 0.197869 0.101839 0.405012
664 2 0.376114 0.316396 0.860468
665 2 0.348072 0.943516 0.0589598
666 2 0.869586 0.0152474 0.170652
667 2 0.308474 0.556114 0.430553
668 2 0.0535024 0.957462 0.495302
669 2 0.318369 0.0743538 0.0555149
670 2 0.45781 0.255893 0.169723
671 2 0.987843 0.175607 0.124615
672 2 0.515153 0.229114 0.158393
673 2 0.0817061 0.233185 0.253863
674 2 0.20089 0.477125 0.429005
675 2 0.110613 0.68633 0.754877
676 2 0.0310769 0.673846 0.239133
677 2 0.4741 0.623694 0.408918
678 2 0.323613 0.126085 0.30942
679 2 0.58329 0.832001 0.321208
680 2 0.0392065 0.0196131 0.149569
681 2 0.060323 0.380648 0.415159
682 2 0.145865 0.198615 0.16699
683 2 0.614118 0.654189 0.0925444
684 2 0.263533 0.599383 0.129449
685 2 0.0808068 0.197399 0.986112
686 2 0.852272 0.222596 0.495552
687 2 0.262702 0.682563 0.250946
688 2 0.51239 0.512982 0.384613
689 2 0.379492 0.966685 0.950961
690 2 0.592752 0.405676 0.40635
691 2 0.597978 0.658172 0.146762
692 2 0.101053 0.377887 0.318972
693 2 0.508091 0.35677 0.982989
694 2 0.175922 0.798917 0.0306729
695 2 0.562703 0.177538 0.631569
696 2 0.590999 0.377775 0.205113
697 2 0.365062 0.313563 0.351241
698 2 0.257343 0.886072 0.261137
699 2 0.768764 0.153596 0.195606
700 2 0.363365 0.271714 0.161589
701 2 0.330283 0.782693 0.385217
702 2 0.395059 0.298928 0.800927
703 2 0.163825 0.118725 0.583987
704 2 0.152925 0.156879 0.2131
705 2 0.316858 0.297372 0.231616
706 2 0.490126 0.118754 0.769487
707 2 0.226222 0.225725 0.153664
708 2 0.257979 0.360168 0.308261
709 2 0.355805 0.957022 0.818044
710 2 0.101679 0.492485 0.268145
711 2 0.492127 0.0995767 0.158394
712 2 0.502704 0.189353 0.99112
713 2 0.785934 0.535531 0.588568
714 2 0.0575835 0.602091 0.313274
715 2 0.249272 0.78145 0.25016
716 2 0.509635 0.365312 0.261026
717 2 0.287316 0.0764672 0.00650604
718 2 0.155945 0.257213 0.291222
719 2 0.97107 0.894403 0.770234
720 2 0.0892855 0.137912 0.300651
721 2 0.167998 0.157347 0.848948
722 2 0.584236 0.243729 0.380204
723 2 0.473147 0.245871 0.117248
724 2 0.31227 0.278273 0.0219041
725 2 0.308826 0.451051 0.194594
726 2 0.360524 0.211555 0.162831
727 2 0.30737 0.360685 0.180444
728 2 0.0306351 0.818078 0.615913
729 2 0.201259 0.428969 0.505668
730 2 0.14142 0.650884 0.211707
731 2 0.546432 0.340338 0.874267
732 2 0.913081 0.261622 0.0621162
733 2 0.517178 0.179684 0.32112
734 2 0.432298 0.380372 0.14061
735 2 0.519275 0.129281 0.090903
736 2 0.934981 0.0731768 0.120425
737 2 0.879333 0.0639946 0.23303
738 2 0.0127448 0.357717 0.344884
739 2 0.907419 0.334738 0.0192801
740 2 0.330124 0.601999 0.72624
741 2 0.431177 0.158493 0.313911
742 2 0.0321099 0.436385 0.0648426
743 2 0.459308 0.439459 0.230161
744 2 0.17206 0.192801 0.295555
745 2 0.259221 0.0169783 0.165504
746 2 0.00789742 0.361437 0.443801
747 2 0.364306 0.0221319 0.168396
748 2 0.412737 0.226543 0.13219
749 2 0.0915272 0.1491 0.0274959
750 2 0.1064 0.0248718 0.281872
751 2 0.197962 0.294167 0.183672
752 2 0.423906 0.561064 0.768579
753 2 0.981381 0.242964 0.332297
754 2 0.146075 0.57035 0.43872
755 2 0.192057 0.122984 0.291638
756 2 0.240826 0.958067 0.21301
757 2 0.265371 0.126066 0.90364
758 2 0.975877 0.228544 0.152353
759 2 0.0709911 0.541499 0.468483
760 2 0.118374 0.223025 0.248892
761 2 0.431134 0.89728 0.0169314
762 2 0.36236 0.135688 0.379494
763 2 0.411648 0.319135 0.406185
764 2 0.305411 0.924068 0.301968
765 2 0.520633 0.692643 0.48534
766 2 0.99844 0.361963 0.0348418
767 2 0.668957 0.327476 0.158701
768 2 0.399464 0.133413 0.268344
769 2 0.448149 0.394692 0.439033
770 2 0.619699 0.531436 0.155079
771 2 0.167016 0.410254 0.181057
772 2 0.490064 0.0312606 0.163416
773 2 0.258565 0.147009 0.142383
774 2 0.672148 0.216296 0.306105
775 2 0.204222 0.115359 0.914408
776 2 0.282469 0.0133785 0.281564
777 2 0.162243 0.250141 0.0301749
778 2 0.112806 0.329624 0.352426
779 2 0.431051 0.245053 0.303924
780 2 0.327673 0.236702 0.424605
781 2 0.310626 0.248684 0.137522
782 2 0.858555 0.130386 0.0705508
783 2 0.220079 0.468739 0.187146
784 2 0.485033 0.522384 0.0936636
785 2 0.380372 0.133843 0.890355
786 2 0.167404 0.508783 0.0292397
787 2 0.229543 0.857747 0.445915
788 2 0.230101 0.119391 0.343973
789 2 0.00511975 0.170755 0.577174
790 2 0.675496 0.359005 0.351757
791 2 0.238249 0.216342 0.381977
792 2 0.258589 0.111484 0.519576
793 2 0.425967 0.316523 0.275325
794 2 0.201832 0.59957 0.980489
795 2 0.293001 0.139634 0.563063
796 2 0.51815 0.238143 0.475325
797 2 0.277283 0.0642392 0.209756
798 2 0.42585 0.230632 0.37577
799 2 0.308556 0.559847 0.145076
800 2 0.497958 0.0967453 0.098152
801 2 0.298668 0.174523 0.216239
802 2 0.610125 0.467211 0.284146
803 2 0.157199 0.362131 0.300367
804 2 0.124645 0.635467 0.239515
805 2 0.43438 0.34139 0.469511
806 2 0.541708 0.365346 0.123493
807 2 0.534384 0.197621 0.205043
808 2 0.224503 0.0185293 0.222262
809 2 0.0598923 0.143324 0.357618
810 2 0.144975 0.263555 0.178783
811 2 0.0503973 0.686303 0.211288
812 2 0.211579 0.376902 0.599727
813 2 0.879772 0.93492 0.86476
814 2 0.95217 0.174644 0.330612
815 2 0.295314 0.939735 0.251935
816 2 0.161284 0.318423 0.0200975
817 2 0.544094 0.00368735 0.241348
818 2 0.996057 0.252305 0.173721
819 2 0.165996 0.905002 0.473834
820 2 0.203521 0.299716 0.150596
821 2 0.689843 0.501085 0.135445
822 2 0.103789 0.314468 0.320914
823 2 0.151342 0.925613 0.834727
824 2 0.64155 0.0872553 0.343033
825 2 0.0843684 0.807408 0.598035
826 2 0.531626 0.762183 0.043892
827 2 0.13004 0.264377 0.210524
828 2 0.0536475 0.283037 0.297449
829 2 0.378144 0.896538 0.115493
830 2 0.951208 0.391326 0.0110096
831 2 0.000268681 0.551162 0.792468
832 2 0.8998 0.703326 0.773379
833 2 0.970302 0.147272 0.348729
834 2 0.00110596 0.454504 0.347319
835 2 0.43828 0.245053 0.99909
836 2 0.316485 0.219882 0.321775
837 2 0.948356 0.150425 0.159729
838 2 0.325616 0.927087 0.271729
839 2 0.47769 0.127934 0.287167
840 2 0.10352 0.493596 0.988566
841 2 0.232966 0.205897 0.749418
842 2 0.0169861 0.921631 0.0286627
843 2 0.0369682 0.383146 0.0941115
844 2 0.587385 0.969817 0.167745
845 2 0.688273 0.381687 0.466897
846 2 0.222513 0.947587 0.987639
847 2 0.985787 0.168891 0.777479
848 2 0.919188 0.244913 0.176037
849 2 0.160331 0.438426 0.31097
850 2 0.107914 0.294631 0.598909
851 2 0.024811 0.217277 0.557493
852 2 0.492256 0.231254 0.304574
853 2 0.372997 0.956584 0.135455
854 2 0.0674604 0.129511 0.207087
855 2 0.880502 0.953446 0.470317
856 2 0.355543 0.264083 0.424019
857 2 0.226505 0.0491424 0.280615
858 2 0.256623 0.213423 0.635384
859 2 0.429964 0.382152 0.242449
860 2 0.0384128 0.210455 0.0544174
861 2 0.399252 0.286702 0.0863894
862 2 0.495161 0.351833 0.208567
863 2 0.80226 0.61031 0.230013
864 2 0.18467 0.345599 0.19739
865 2 0.203766 0.173079 0.549307
866 2 0.362901 0.559954 0.388673
867 2 0.133278 0.780133 0.29287
868 2 0.482854 0.333727 0.347494
869 2 0.227267 0.390842 0.122156
870 2 0.175096 0.126736 0.261689
871 2 0.531653 0.263351 0.170297
872 2 0.0825165 0.389545 0.166279
873 2 0.533838 0.443204 0.303913
874 2 0.443494 0.898556 0.349793
875 2 0.188326 0.0475 0.76504
876 2 0.662523 0.127115 0.115418
877 2 0.0195551 0.801845 0.1656
878 2 0.196891 0.142001 0.0742901
879 2 0.685299 0.912995 0.500944
880 2 0.851622 0.77251 0.104795
881 2 0.198173 0.981614 0.440268
882 2 0.391446 0.622604 0.26907
883 2 0.319462 0.213628 0.258959
884 2 0.31863 0.288094 0.86818
885 2 0.0151797 0.300532 0.022136
886 2 0.10177 0.158899 0.250199
887 2 0.305373 0.0447136 0.190801
888 2 0.301417 0.198571 0.486378
889 2 0.184616 0.000692334 0.175925
890 2 0.0442382 0.304978 0.200851
891 2 0.773891 0.896466 0.971736
892 2 0.261749 0.240904 0.24467
893 2 0.361039 0.206138 0.947457
894 2 0.00742868 0.438203 0.0906348
895 2 0.212034 0.302177 0.236541
896 2 0.128058 0.398745 0.128367
897 2 0.928391 0.422356 0.0203351
898 2 0.289131 0.328499 0.403142
899 2 0.238679 0.920618 0.223736
900 2 0.213619 0.0896851 0.461314
901 2 0.200801 0.585708 0.466778
902 2 0.272226 0.0298005 0.0425815
903 2 0.189564 0.334949 0.388339