 vasp.6.5.0 16Dec24 (build Jan 20 2025 08:32:48) complex                         
 executed on        HPECrayEX_GCC date 2025.07.22  00:19:39
 running  128 mpi-ranks, with    1 threads/rank, on    1 nodes
 distrk:  each k-point on  128 cores,    1 groups
 distr:  one band on NCORE=  16 cores,    8 groups


--------------------------------------------------------------------------------------------------------


 INCAR:
   SYSTEM = a-Si SPC
   NCORE = 16
   ISTART = 1
   ICHARG = 1
   ISPIN = 1
   ISYM = 1
   EDIFF = 1E-6
   NELM = 150
   EDIFFG = -0.01
   NSW = 0
   ISIF = 2
   IBRION = -1
   PREC = Accurate
   ENCUT = 1200
   KSPACING = 0.23
   KGAMMA = .TRUE.
   METAGGA = SCAN
   LASPH = .TRUE.
   LDIAG = .FALSE.
   LMIXTAU = .TRUE.
   ADDGRID = .TRUE.
   ALGO = Normal
   ISMEAR = 0
   SIGMA = 0.1
   LORBIT = 11
   NEDOS = 2000
   LWAVE = .FALSE.
   LCHARG = .FALSE.

 POTCAR:    PAW_PBE H 15Jun2001                   
 POTCAR:    PAW_PBE Si 05Jan2001                  
 POTCAR:    PAW_PBE H 15Jun2001                   
   SHA256 =  030f79b5d3ab3cf0e668861823c8fb652ff669f3e15e46930bd03bfd63a607b6 H/POTCAR              
   COPYR  = (c) Copyright 15Jun2001 Georg Kresse                                                    
   COPYR  = This file is part of the software VASP. Any use, copying, and all other rights are regul
   COPYR  = If you do not have a valid VASP license, you may not use, copy or distribute this file. 
   VRHFIN =H: ultrasoft test                                                                        
   LEXCH  = PE                                                                                      
   EATOM  =    12.4884 eV,    0.9179 Ry                                                             
                                                                                                    
   TITEL  = PAW_PBE H 15Jun2001                                                                     
   LULTRA =        F    use ultrasoft PP ?                                                          
   IUNSCR =        0    unscreen: 0-lin 1-nonlin 2-no                                               
   RPACOR =    0.000    partial core radius                                                         
   POMASS =    1.000; ZVAL   =    1.000    mass and valenz                                          
   RCORE  =    1.100    outmost cutoff radius                                                       
   RWIGS  =    0.700; RWIGS  =    0.370    wigner-seitz radius (au A)                               
   ENMAX  =  250.000; ENMIN  =  200.000 eV                                                          
   RCLOC  =    0.701    cutoff for local pot                                                        
   LCOR   =        T    correct aug charges                                                         
   LPAW   =        T    paw PP                                                                      
   EAUG   =  400.000                                                                                
   RMAX   =    1.123    core radius for proj-oper                                                   
   RAUG   =    1.200    factor for augmentation sphere                                              
   RDEP   =    1.112    radius for radial grids                                                     
   RDEPT  =    0.926    core radius for aug-charge                                                  
                                                                                                    
   Atomic configuration                                                                             
    2 entries                                                                                       
     n  l   j            E        occ.                                                              
     1  0  0.50        -6.4927   1.0000                                                             
     2  1  0.50        -3.4015   0.0000                                                             
   Description                                                                                      
     l       E           TYP  RCUT    TYP  RCUT                                                     
     0     -6.4927494     23  1.100                                                                 
     0      6.8029130     23  1.100                                                                 
     1     -4.0817478     23  1.100                                                                 
  local pseudopotential read in
  atomic valenz-charges read in
  non local Contribution for L=           0  read in
    real space projection operators read in
  non local Contribution for L=           0  read in
    real space projection operators read in
  non local Contribution for L=           1  read in
    real space projection operators read in
    PAW grid and wavefunctions read in

   number of l-projection  operators is LMAX  =           3
   number of lm-projection operators is LMMAX =           5

 POTCAR:    PAW_PBE Si 05Jan2001                  
   SHA256 =  79d9987ad8750f624c4d6acb2a16d13abf6a777132adc04dc6c8399be72b42bb Si/POTCAR             
   COPYR  = (c) Copyright 05Jan2001 Georg Kresse                                                    
   COPYR  = This file is part of the software VASP. Any use, copying, and all other rights are regul
   COPYR  = If you do not have a valid VASP license, you may not use, copy or distribute this file. 
   VRHFIN =Si: s2p2                                                                                 
   LEXCH  = PE                                                                                      
   EATOM  =   103.0669 eV,    7.5752 Ry                                                             
                                                                                                    
   TITEL  = PAW_PBE Si 05Jan2001                                                                    
   LULTRA =        F    use ultrasoft PP ?                                                          
   IUNSCR =        1    unscreen: 0-lin 1-nonlin 2-no                                               
   RPACOR =    1.500    partial core radius                                                         
   POMASS =   28.085; ZVAL   =    4.000    mass and valenz                                          
   RCORE  =    1.900    outmost cutoff radius                                                       
   RWIGS  =    2.480; RWIGS  =    1.312    wigner-seitz radius (au A)                               
   ENMAX  =  245.345; ENMIN  =  184.009 eV                                                          
   ICORE  =        2    local potential                                                             
   LCOR   =        T    correct aug charges                                                         
   LPAW   =        T    paw PP                                                                      
   EAUG   =  322.069                                                                                
   DEXC   =    0.000                                                                                
   RMAX   =    1.950    core radius for proj-oper                                                   
   RAUG   =    1.300    factor for augmentation sphere                                              
   RDEP   =    1.993    radius for radial grids                                                     
   RDEPT  =    1.837    core radius for aug-charge                                                  
                                                                                                    
   Atomic configuration                                                                             
    6 entries                                                                                       
     n  l   j            E        occ.                                                              
     1  0  0.50     -1785.8828   2.0000                                                             
     2  0  0.50      -139.4969   2.0000                                                             
     2  1  1.50       -95.5546   6.0000                                                             
     3  0  0.50       -10.8127   2.0000                                                             
     3  1  0.50        -4.0811   2.0000                                                             
     3  2  1.50        -4.0817   0.0000                                                             
   Description                                                                                      
     l       E           TYP  RCUT    TYP  RCUT                                                     
     0    -10.8127223     23  1.900                                                                 
     0     -7.6451159     23  1.900                                                                 
     1     -4.0811372     23  1.900                                                                 
     1      2.4879257     23  1.900                                                                 
     2     -4.0817478      7  1.900                                                                 
  local pseudopotential read in
  partial core-charges read in
  partial kinetic energy density read in
  atomic valenz-charges read in
  non local Contribution for L=           0  read in
    real space projection operators read in
  non local Contribution for L=           0  read in
    real space projection operators read in
  non local Contribution for L=           1  read in
    real space projection operators read in
  non local Contribution for L=           1  read in
    real space projection operators read in
    PAW grid and wavefunctions read in

   number of l-projection  operators is LMAX  =           4
   number of lm-projection operators is LMMAX =           8

 -----------------------------------------------------------------------------
|                                                                             |
|               ----> ADVICE to this user running VASP <----                  |
|                                                                             |
|     You have a (more or less) 'large supercell' and for larger cells it     |
|     might be more efficient to use real-space projection operators.         |
|     Therefore, try LREAL= Auto in the INCAR file.                           |
|     Mind: For very accurate calculation, you might also keep the            |
|     reciprocal projection scheme (i.e. LREAL=.FALSE.).                      |
|                                                                             |
 -----------------------------------------------------------------------------

 -----------------------------------------------------------------------------
|                                                                             |
|               ----> ADVICE to this user running VASP <----                  |
|                                                                             |
|     You enforced a specific xc type in the INCAR file but a different       |
|     type was found in the POTCAR file.                                      |
|     I HOPE YOU KNOW WHAT YOU ARE DOING!                                     |
|                                                                             |
 -----------------------------------------------------------------------------

  PAW_PBE H 15Jun2001                   :
 energy of atom  1       EATOM=  -12.4884
 kinetic energy error for atom=    0.0000 (will be added to EATOM!!)
  PAW_PBE Si 05Jan2001                  :
 energy of atom  2       EATOM= -103.0669
 kinetic energy error for atom=    0.0001 (will be added to EATOM!!)


 POSCAR:  H Si
  positions in cartesian coordinates
  No initial velocities read in


 exchange-correlation table for SCAN
   RHO(1)=    0.500       N(1)  =     2000
   RHO(2)=  100.500       N(2)  =     4000



--------------------------------------------------------------------------------------------------------


 ion  position               nearest neighbor table
   1  0.216  0.284  0.470-  14 0.70
   2  0.224  0.513  0.559-  96 1.49
   3  0.261  0.674  0.548-  96 1.48
   4  0.091  0.470  0.484- 119 1.40
   5  0.115  0.838  0.491- 121 1.49
   6  0.009  0.582  0.603- 116 1.61
   7  0.302  0.263  0.409-  89 1.41
   8  0.322  0.467  0.461-  58 1.52
   9  0.154  0.593  0.463-  12 0.74
  10  0.365  0.979  0.402-  40 0.72
  11  0.081  0.985  0.459- 121 1.48
  12  0.187  0.571  0.447-   9 0.74
  13  0.154  0.089  0.528-  62 1.54
  14  0.236  0.323  0.481-   1 0.70
  15  0.205  0.956  0.523-  23 0.77
  16  0.092  0.335  0.482-  44 0.72
  17  0.287  0.428  0.409-  97 1.41
  18  0.242  0.731  0.481-  45 0.78
  19  0.269  0.198  0.545- 115 1.49
  20  0.249  0.042  0.428- 114 1.47
  21  0.213  0.776  0.410-  93 1.54
  22  0.120  0.439  0.562- 106 1.44
  23  0.184  0.961  0.548-  15 0.77
  24  0.083  0.692  0.497-  50 1.47
  25  0.363  0.107  0.454-  53 1.41
  26  0.313  0.369  0.529- 115 1.50
  27  0.212  0.814  0.558-  33 0.87
  28  0.371  0.962  0.488- 120 1.57
  29  0.994  0.918  0.501-  68 1.55
  30  0.218  0.918  0.435- 121 1.52
  31  0.034  0.201  0.489-  86 1.46
  32  0.156  0.171  0.459- 114 1.45
  33  0.154  0.799  0.560-  27 0.87 102 1.81
  34  0.564  0.637  0.456-  75 1.46
  35  0.309  0.784  0.555-  71 1.52
  36  0.303  0.616  0.484-  58 1.44
  37  0.967  0.275  0.543-  85 1.48
  38  0.251  0.025  0.355-
  39  0.309  0.030  0.539- 110 1.51
  40  0.390  0.942  0.391-  10 0.72
  41  0.395  0.342  0.445-  57 1.54
  42  0.093  0.361  0.426- 122 1.50
  43  0.367  0.457  0.582-  79 1.47
  44  0.072  0.314  0.502-  16 0.72
  45  0.198  0.727  0.497-  18 0.78
  46  0.481  0.148  0.530- 110 2.23  83 2.26  53 2.29  90 2.39
  47  0.809  0.850  0.543- 100 2.29  68 2.32 103 2.33  84 2.42
  48  0.778  0.817  0.419-  98 2.30 107 2.35  84 2.40 117 2.44
  49  0.074  0.080  0.361-  82 2.26 114 2.37
  50  0.988  0.676  0.483-  24 1.47 103 2.35  80 2.39 119 2.50
  51  0.055  0.844  0.374- 121 2.37  80 2.39
  52  0.560  0.401  0.529- 108 2.22  61 2.27  83 2.32  79 2.42
  53  0.450  0.147  0.450-  25 1.41  57 2.22  46 2.29  65 2.35
  54  0.848  0.312  0.464- 105 2.30  99 2.31 118 2.34  86 2.35
  55  0.478  0.644  0.641-  70 2.24
  56  0.346  0.130  0.644-  76 2.31  74 2.39 110 2.44
  57  0.475  0.288  0.423-  41 1.54  53 2.22  61 2.32
  58  0.375  0.549  0.479-  36 1.44   8 1.52  75 2.30  79 2.33
  59  0.543  0.565  0.366-  75 2.26  92 2.34
  60  0.773  0.574  0.442-  92 2.24  98 2.29 101 2.35  99 2.45
  61  0.598  0.372  0.452-  52 2.27  57 2.32 105 2.38  92 2.46
  62  0.106  0.114  0.574-  13 1.54  91 2.24  85 2.30  76 2.33
  63  0.660  0.239  0.623-  67 2.22  83 2.38
  64  0.617  0.977  0.588-  90 2.23 100 2.27 113 2.40
  65  0.552  0.049  0.410- 112 2.29  53 2.35  73 2.39
  66  0.043  0.902  0.639- 102 2.30  91 2.38
  67  0.766  0.206  0.570-  63 2.22 104 2.34 118 2.35 109 2.40
  68  0.918  0.963  0.531-  29 1.55  87 2.29  47 2.32  91 2.33
  69  0.856  0.600  0.579- 111 2.30 103 2.35 101 2.38
  70  0.493  0.657  0.562-  55 2.24  71 2.27  94 2.30  79 2.41
  71  0.413  0.788  0.550-  35 1.52  70 2.27 113 2.30 120 2.36
  72  0.438  0.769  0.416-  75 2.20 120 2.32  93 2.36
  73  0.575  0.935  0.469-  90 2.25  84 2.28 120 2.38  65 2.39
  74  0.400  0.275  0.617- 115 2.27  83 2.30  56 2.39
  75  0.477  0.626  0.431-  34 1.46  72 2.20  59 2.26  58 2.30
  76  0.189  0.110  0.645-  56 2.31  62 2.33
  77  0.674  0.746  0.628- 100 2.27  94 2.41
  78  0.966  0.469  0.373-  88 2.22  99 2.30 122 2.32
  79  0.437  0.503  0.552-  43 1.47  58 2.33  70 2.41  52 2.42
  80  0.992  0.700  0.399-  88 2.18  98 2.23  50 2.39  51 2.39
  81  0.682  0.492  0.633- 108 2.30
  82  0.981  0.200  0.378-  49 2.26 122 2.33  86 2.42
  83  0.532  0.268  0.572-  46 2.26  74 2.30  52 2.32  63 2.38
  84  0.683  0.827  0.488-  73 2.28  48 2.40  47 2.42  94 2.45
  85  0.040  0.258  0.578-  37 1.48 106 2.25  62 2.30
  86  0.950  0.187  0.462-  31 1.46  87 2.31  54 2.35  82 2.42
  87  0.854  0.065  0.479- 109 2.17 117 2.28  68 2.29  86 2.31
  88  0.063  0.585  0.366-  80 2.18  78 2.22  95 2.33
  89  0.252  0.229  0.370-   7 1.41 114 2.28
  90  0.611  0.050  0.519- 109 2.23  64 2.23  73 2.25  46 2.39
  91  0.984  0.031  0.598-  62 2.24  68 2.33 104 2.37  66 2.38
  92  0.667  0.493  0.403-  60 2.24  59 2.34  61 2.46
  93  0.295  0.747  0.378-  21 1.54  72 2.36  95 2.51
  94  0.638  0.712  0.547-  70 2.30 101 2.32  77 2.41  84 2.45
  95  0.222  0.591  0.373-  97 2.16  88 2.33  93 2.51
  96  0.232  0.603  0.583-   3 1.48   2 1.49 116 2.33
  97  0.288  0.460  0.362-  17 1.41  95 2.16
  98  0.840  0.681  0.393-  80 2.23  60 2.29  48 2.30
  99  0.896  0.459  0.446- 119 2.25  78 2.30  54 2.31  60 2.45
 100  0.735  0.886  0.612-  64 2.27  77 2.27  47 2.29
 101  0.734  0.594  0.523- 108 2.29  94 2.32  60 2.35  69 2.38
 102  0.046  0.777  0.589-  33 1.81 103 2.18  66 2.30 116 2.31
 103  0.921  0.738  0.552- 102 2.18  47 2.33  50 2.35  69 2.35
 104  0.868  0.135  0.622-  67 2.34  91 2.37
 105  0.709  0.254  0.440-  54 2.30 109 2.31  61 2.38
 106  0.153  0.360  0.589-  22 1.44  85 2.25 115 2.31
 107  0.662  0.877  0.369- 112 2.33  48 2.35
 108  0.694  0.455  0.554-  52 2.22 101 2.29  81 2.30 118 2.35
 109  0.728  0.137  0.495-  87 2.17  90 2.23 105 2.31  67 2.40
 110  0.390  0.053  0.571-  39 1.51  46 2.23 113 2.35  56 2.44
 111  0.923  0.459  0.566-  69 2.30 118 2.34 119 2.44
 112  0.696  0.032  0.379-  65 2.29 107 2.33 117 2.42
 113  0.464  0.915  0.590-  71 2.30 110 2.35  64 2.40
 114  0.188  0.121  0.418-  32 1.45  20 1.47  89 2.28  49 2.37
 115  0.288  0.293  0.562-  19 1.49  26 1.50  74 2.27 106 2.31
 116  0.096  0.640  0.622-   6 1.61 102 2.31  96 2.33
 117  0.837  0.973  0.414-  87 2.28 112 2.42  48 2.44
 118  0.815  0.350  0.543-  54 2.34 111 2.34 108 2.35  67 2.35
 119  0.006  0.508  0.496-   4 1.40  99 2.25 111 2.44  50 2.50
 120  0.426  0.871  0.478-  28 1.57  72 2.32  71 2.36  73 2.38
 121  0.119  0.894  0.447-  11 1.48   5 1.49  30 1.52  51 2.37
 122  0.059  0.340  0.377-  42 1.50  78 2.32  82 2.33

  LATTYP: Found a simple tetragonal cell.
 ALAT       =    14.5768472423
 C/A-ratio  =     1.9316900652
  
  Lattice vectors:
  
 A1 = (  14.5768472423,   0.0000000000,   0.0000000000)
 A2 = (   0.0000000000,  14.5768472423,   0.0000000000)
 A3 = (   0.0000000000,   0.0000000000,  28.1579510000)


Analysis of symmetry for initial positions (statically):
=====================================================================
 Subroutine PRICEL returns:
 Original cell was already a primitive cell.
 

 Routine SETGRP: Setting up the symmetry group for a 
 simple tetragonal supercell.


 Subroutine GETGRP returns: Found  1 space group operations
 (whereof  1 operations were pure point group operations)
 out of a pool of 16 trial point group operations.


The static configuration has the point symmetry C_1 .


Analysis of symmetry for dynamics (positions and initial velocities):
=====================================================================
 Subroutine PRICEL returns:
 Original cell was already a primitive cell.
 

 Routine SETGRP: Setting up the symmetry group for a 
 simple tetragonal supercell.


 Subroutine GETGRP returns: Found  1 space group operations
 (whereof  1 operations were pure point group operations)
 out of a pool of 16 trial point group operations.


The dynamic configuration has the point symmetry C_1 .


 Subroutine INISYM returns: Found  1 space group operations
 (whereof  1 operations are pure point group operations),
 and found     1 'primitive' translations


----------------------------------------------------------------------------------------

                                     Primitive cell                                     

  volume of cell :    5983.1275

  direct lattice vectors                    reciprocal lattice vectors
    14.576847242  0.000000000  0.000000000     0.068601940  0.000000000  0.000000000
     0.000000000 14.576847242  0.000000000     0.000000000  0.068601940  0.000000000
     0.000000000  0.000000000 28.157951000     0.000000000  0.000000000  0.035513948

  length of vectors
    14.576847242 14.576847242 28.157951000     0.068601940  0.068601940  0.035513948

  position of ions in fractional coordinates (direct lattice)
     0.216350624  0.284307706  0.470195825
     0.224149979  0.512807048  0.559255572
     0.261494131  0.673562660  0.548483126
     0.091471083  0.469556269  0.484014302
     0.114723024  0.838398029  0.490876307
     0.008727264  0.581948199  0.603217933
     0.302368539  0.263289444  0.408891293
     0.322257613  0.466913722  0.460782143
     0.154228137  0.592680973  0.463408044
     0.365172929  0.978572373  0.402056989
     0.080837096  0.985240482  0.458553287
     0.187092583  0.570613786  0.446948750
     0.153970194  0.089331388  0.527500421
     0.235723126  0.323021839  0.480648290
     0.204598426  0.956105238  0.522892131
     0.092120057  0.334707493  0.481574494
     0.286767772  0.428119325  0.409492900
     0.242177883  0.731481906  0.480786439
     0.268549154  0.197911109  0.545383114
     0.248662824  0.042487994  0.427882732
     0.213328709  0.775874221  0.410135347
     0.120489017  0.438801333  0.562378669
     0.183950614  0.960948535  0.548099931
     0.083464550  0.691624179  0.496963398
     0.362699143  0.107213856  0.453967727
     0.312540834  0.369138807  0.528845689
     0.212029388  0.813632729  0.558454378
     0.370779079  0.961847220  0.488019210
     0.994133100  0.917571528  0.501135931
     0.217691792  0.917530367  0.435153147
     0.033740904  0.200974185  0.488667695
     0.156019334  0.170609595  0.459250071
     0.153937265  0.799418407  0.559531516
     0.564111009  0.636584156  0.456471460
     0.309338496  0.783921229  0.554913282
     0.302734187  0.615606369  0.484156003
     0.966841441  0.274985388  0.542657774
     0.251205212  0.025044236  0.355139477
     0.308917966  0.029943718  0.539208304
     0.390363561  0.941685110  0.391145755
     0.395066910  0.342187163  0.444689353
     0.093402227  0.361234491  0.426091764
     0.367184338  0.457405493  0.581647116
     0.072265970  0.313615141  0.502169032
     0.198385834  0.727139403  0.496693847
     0.480532579  0.147546308  0.529866005
     0.808611067  0.850046639  0.542625101
     0.778179246  0.817220610  0.418616433
     0.074289041  0.080446751  0.361358198
     0.987765033  0.675860139  0.482991855
     0.054942471  0.843700959  0.373639048
     0.559953045  0.400810951  0.529154305
     0.450264031  0.147194381  0.450175192
     0.848084623  0.312394712  0.464174790
     0.477933252  0.643991794  0.640917409
     0.346368451  0.129858670  0.644441458
     0.475387434  0.288110998  0.423242124
     0.375165487  0.549002803  0.479201807
     0.543239554  0.565137980  0.365684101
     0.773006660  0.574215388  0.442172834
     0.598274775  0.372328111  0.452398720
     0.105751263  0.114315529  0.574423579
     0.659579526  0.239123724  0.623318827
     0.616664211  0.976582917  0.588062356
     0.551701604  0.049236779  0.409681834
     0.043204816  0.902204694  0.639250740
     0.765597650  0.205814738  0.569639851
     0.917887097  0.963425065  0.531180021
     0.856220813  0.600026182  0.578626300
     0.493090164  0.656792230  0.561925156
     0.413022782  0.788044205  0.549562040
     0.438124918  0.768664157  0.415530981
     0.575062622  0.934523068  0.469021024
     0.400244299  0.274903752  0.616840373
     0.477247918  0.625799931  0.431047735
     0.189339296  0.109941469  0.644860523
     0.673915960  0.746203882  0.628454499
     0.966052519  0.468622596  0.373327946
     0.436543643  0.502527733  0.551804391
     0.991922311  0.700226862  0.399116789
     0.682485714  0.492047415  0.633176079
     0.980637292  0.200017188  0.377506872
     0.532399762  0.268315222  0.572453976
     0.682973474  0.827147311  0.487928294
     0.039723336  0.257546089  0.577933778
     0.949519452  0.186781816  0.461502366
     0.854258798  0.064645117  0.478623285
     0.063041959  0.584896024  0.366265251
     0.252488068  0.228982299  0.369793669
     0.610712992  0.050320758  0.518641466
     0.984184012  0.031286121  0.597629103
     0.667085951  0.492721772  0.402890146
     0.294552720  0.747363255  0.378276956
     0.637755191  0.712122438  0.546886775
     0.222335457  0.591286295  0.373377132
     0.232393188  0.603258706  0.583444477
     0.287827672  0.460163977  0.362117261
     0.840476668  0.680669821  0.393404158
     0.895509144  0.459270094  0.446183069
     0.734514111  0.886254743  0.611776794
     0.733725189  0.593980979  0.522622935
     0.046259660  0.777342303  0.589162933
     0.921420097  0.738232337  0.551723064
     0.868184992  0.134623075  0.622101409
     0.708774664  0.254419899  0.440278165
     0.153319162  0.360250740  0.588510897
     0.661977850  0.876520127  0.369316468
     0.694155590  0.454751970  0.553932031
     0.727681358  0.137171637  0.494513646
     0.389552686  0.053322504  0.570787306
     0.923011662  0.459303709  0.566443595
     0.696364573  0.031533156  0.379237573
     0.464143576  0.915088138  0.590222669
     0.188097601  0.121009020  0.417790023
     0.287598541  0.292669596  0.562122613
     0.095764878  0.640215943  0.621552364
     0.837087732  0.973296884  0.413645190
     0.814750940  0.350243775  0.542913474
     0.006420778  0.507508920  0.495742428
     0.425906226  0.871381842  0.478187529
     0.118513967  0.893615731  0.446551704
     0.058800369  0.339502083  0.377055561

  ion indices of the primitive-cell ions
   primitive index   ion index
                 1           1
                 2           2
                 3           3
                 4           4
                 5           5
                 6           6
                 7           7
                 8           8
                 9           9
                10          10
                11          11
                12          12
                13          13
                14          14
                15          15
                16          16
                17          17
                18          18
                19          19
                20          20
                21          21
                22          22
                23          23
                24          24
                25          25
                26          26
                27          27
                28          28
                29          29
                30          30
                31          31
                32          32
                33          33
                34          34
                35          35
                36          36
                37          37
                38          38
                39          39
                40          40
                41          41
                42          42
                43          43
                44          44
                45          45
                46          46
                47          47
                48          48
                49          49
                50          50
                51          51
                52          52
                53          53
                54          54
                55          55
                56          56
                57          57
                58          58
                59          59
                60          60
                61          61
                62          62
                63          63
                64          64
                65          65
                66          66
                67          67
                68          68
                69          69
                70          70
                71          71
                72          72
                73          73
                74          74
                75          75
                76          76
                77          77
                78          78
                79          79
                80          80
                81          81
                82          82
                83          83
                84          84
                85          85
                86          86
                87          87
                88          88
                89          89
                90          90
                91          91
                92          92
                93          93
                94          94
                95          95
                96          96
                97          97
                98          98
                99          99
               100         100
               101         101
               102         102
               103         103
               104         104
               105         105
               106         106
               107         107
               108         108
               109         109
               110         110
               111         111
               112         112
               113         113
               114         114
               115         115
               116         116
               117         117
               118         118
               119         119
               120         120
               121         121
               122         122

----------------------------------------------------------------------------------------


 -----------------------------------------------------------------------------
|                                                                             |
|           W    W    AA    RRRRR   N    N  II  N    N   GGGG   !!!           |
|           W    W   A  A   R    R  NN   N  II  NN   N  G    G  !!!           |
|           W    W  A    A  R    R  N N  N  II  N N  N  G       !!!           |
|           W WW W  AAAAAA  RRRRR   N  N N  II  N  N N  G  GGG   !            |
|           WW  WW  A    A  R   R   N   NN  II  N   NN  G    G                |
|           W    W  A    A  R    R  N    N  II  N    N   GGGG   !!!           |
|                                                                             |
|     The requested file  could not be found or opened for reading            |
|     k-point information. Automatic k-point generation is used as a          |
|     fallback, which may lead to unwanted results.                           |
|                                                                             |
 -----------------------------------------------------------------------------



Automatic generation of k-mesh.
 Grid dimensions derived from KSPACING:
 generate k-points for:    2    2    1

 Generating k-lattice:

  Cartesian coordinates                     Fractional coordinates (reciprocal lattice)
     0.034300970  0.000000000  0.000000000     0.500000000  0.000000000  0.000000000
     0.000000000  0.034300970  0.000000000     0.000000000  0.500000000  0.000000000
     0.000000000  0.000000000  0.035513948     0.000000000  0.000000000  1.000000000

  Length of vectors
     0.034300970  0.034300970  0.035513948

  Shift w.r.t. Gamma in fractional coordinates (k-lattice)
     0.000000000  0.000000000  0.000000000

 
 Subroutine IBZKPT returns following result:
 ===========================================
 
 Found      4 irreducible k-points:
 
 Following reciprocal coordinates:
            Coordinates               Weight
  0.000000  0.000000  0.000000      1.000000
  0.500000  0.000000  0.000000      1.000000
  0.000000  0.500000  0.000000      1.000000
  0.500000  0.500000  0.000000      1.000000
 
 Following cartesian coordinates:
            Coordinates               Weight
  0.000000  0.000000  0.000000      1.000000
  0.034301  0.000000  0.000000      1.000000
  0.000000  0.034301  0.000000      1.000000
  0.034301  0.034301  0.000000      1.000000
 


--------------------------------------------------------------------------------------------------------




 Dimension of arrays:
   k-points           NKPTS =      4   k-points in BZ     NKDIM =      4   number of bands    NBANDS=    240
   number of dos      NEDOS =   2000   number of ions     NIONS =    122
   non local maximal  LDIM  =      4   non local SUM 2l+1 LMDIM =      8
   total plane-waves  NPLWV = ******
   max r-space proj   IRMAX =      1   max aug-charges    IRDMAX= 403919
   dimension x,y,z NGX =   168 NGY =  168 NGZ =  320
   dimension x,y,z NGXF=   336 NGYF=  336 NGZF=  640
   support grid    NGXF=   672 NGYF=  672 NGZF= 1280
   ions per type =              45  77
   NGX,Y,Z   is equivalent  to a cutoff of  19.16, 19.16, 18.89 a.u.
   NGXF,Y,Z  is equivalent  to a cutoff of  38.32, 38.32, 37.79 a.u.

 SYSTEM =  a-Si SPC                                
 POSCAR =   H Si                                   

 Startparameter for this run:
   NWRITE =      2    write-flag & timer
   PREC   = accura    normal or accurate (medium, high low for compatibility)
   ISTART =      1    job   : 0-new  1-cont  2-samecut
   ICHARG =      1    charge: 1-file 2-atom 10-const
   ISPIN  =      1    spin polarized calculation?
   LNONCOLLINEAR =      F non collinear calculations
   LSORBIT =      F    spin-orbit coupling
   INIWAV =      1    electr: 0-lowe 1-rand  2-diag
   LASPH  =      T    aspherical Exc in radial PAW
 Electronic Relaxation 1
   ENCUT  = 1200.0 eV  88.20 Ry    9.39 a.u.  41.17 41.17 79.53*2*pi/ulx,y,z
   ENINI  = 1200.0     initial cutoff
   ENAUG  =  400.0 eV  augmentation charge cutoff
   NELM   =    150;   NELMIN=  2; NELMDL=  0     # of ELM steps 
   EDIFF  = 0.1E-05   stopping-criterion for ELM
   LREAL  =      F    real-space projection
   NLSPLINE    = F    spline interpolate recip. space projectors
   LCOMPAT=      F    compatible to vasp.4.4
   GGA_COMPAT  = T    GGA compatible to vasp.4.4-vasp.4.6
   LMAXPAW     = -100 max onsite density
   LMAXMIX     =    2 max onsite mixed and CHGCAR
   VOSKOWN=      0    Vosko Wilk Nusair interpolation
   ROPT   =    0.00000   0.00000
 Ionic relaxation
   EDIFFG = -.1E-01   stopping-criterion for IOM
   NSW    =      0    number of steps for IOM
   NBLOCK =      1;   KBLOCK =      1    inner block; outer block 
   IBRION =     -1    ionic relax: 0-MD 1-quasi-New 2-CG
   NFREE  =      0    steps in history (QN), initial steepest desc. (CG)
   ISIF   =      2    stress and relaxation
   IWAVPR =     10    prediction:  0-non 1-charg 2-wave 3-comb
   ISYM   =      1    0-nonsym 1-usesym 2-fastsym
   LCORR  =      T    Harris-Foulkes like correction to forces

   POTIM  = 0.5000    time-step for ionic-motion
   TEIN   =    0.0    initial temperature
   TEBEG  =    0.0;   TEEND  =   0.0 temperature during run
   SMASS  =  -3.00    Nose mass-parameter (am)
   estimated Nose-frequenzy (Omega)   =  0.10E-29 period in steps = 0.13E+47 mass=  -0.486E-26a.u.
   SCALEE = 1.0000    scale energy and forces
   NPACO  =    256;   APACO  = 10.0  distance and # of slots for P.C.
   PSTRESS=    0.0 pullay stress

  Mass of Ions in am
   POMASS =   1.00 28.09
  Ionic Valenz
   ZVAL   =   1.00  4.00
  Atomic Wigner-Seitz radii
   RWIGS  =  -1.00 -1.00
  virtual crystal weights 
   VCA    =   1.00  1.00
   NELECT =     353.0000    total number of electrons
   NUPDOWN=      -1.0000    fix difference up-down

 DOS related values:
   EMIN   =  10.00;   EMAX   =-10.00  energy-range for DOS
   EFERMI =   0.00;   METHOD = LEGACY      
   ISMEAR =     0;   SIGMA  =   0.10  broadening in eV -4-tet -1-fermi 0-gaus
   EFERMI_NEDOS =   21; number of points for ismear=-14 and -15

 Electronic relaxation 2 (details)
   IALGO  =     38    algorithm
   LDIAG  =      F    sub-space diagonalisation (order eigenvalues)
   LSUBROT=      F    optimize rotation matrix (better conditioning)
   TURBO    =      0    0=normal 1=particle mesh
   IRESTART =      0    0=no restart 2=restart with 2 vectors
   NREBOOT  =      0    no. of reboots
   NMIN     =      0    reboot dimension
   EREF     =   0.00    reference energy to select bands
   IMIX   =      4    mixing-type and parameters
     AMIX     =   0.40;   BMIX     =  1.00
     AMIX_MAG =   1.60;   BMIX_MAG =  1.00
     AMIN     =   0.10
     WC   =   100.;   INIMIX=   1;  MIXPRE=   1;  MAXMIX= -45

 Intra band minimization:
   WEIMIN = 0.0000     energy-eigenvalue tresh-hold
   EBREAK =  0.10E-08  absolut break condition
   DEPER  =   0.30     relativ break condition  

   TIME   =   0.40     timestep for ELM

  volume/ion in A,a.u.               =      49.04       330.95
  Fermi-wavevector in a.u.,A,eV,Ry     =   0.637319  1.204359  5.526356  0.406176
  Thomas-Fermi vector in A             =   1.702285

 Write flags
   LWAVE        =      F    write WAVECAR
   LDOWNSAMPLE  =      F    k-point downsampling of WAVECAR
   LCHARG       =      F    write CHGCAR
   LVTOT        =      F    write LOCPOT, total local potential
   LVHAR        =      F    write LOCPOT, Hartree potential only
   WRT_POTENTIAL= false  ! write potential to hdf5 file
   LELF         =      F    write electronic localiz. function (ELF)
   LORBIT       =     11    0 simple, 1 ext, 2 COOP (PROOUT), +10 PAW based schemes


 Python interface
   PLUGINS active      =      F    recompile with -DPLUGINS to activate

 Dipole corrections
   LMONO      =      F    monopole corrections only (constant potential shift)
   LDIPOL     =      F    correct potential (dipole corrections)
   IDIPOL     =      0    1-x, 2-y, 3-z, 4-all directions 
   EPSILON    =  1.0000000 bulk dielectric constant
   LVACPOTAV  =      F  vacuum potentials using an averaging scheme for the charge density
   VACPOTFLAT =  0.1000000 required flatness to determine vacuum potential

Coulomb truncation method
  LTRUNCATE          =      F  Coulomb kernel truncation to be used
  IDIMENSIONALITY    =      3  Dimensionality of cutoff (0 molecules / 2 surfaces)
  ISURFACE           =     -1  Direction of surface normal
  LCOARSEN           =      F  Coarsen the charge grid before padding, preferred


 Exchange correlation treatment:
   METAGGA = SCAN    functional components
   XC_C    = 1    coefficients multiplying the functional components
   LIBXC   =     F    Libxc                    
   VOSKOWN =     0    Vosko Wilk Nusair interpolation
   LHFCALC =     F    Hartree Fock is set to
   LHFONE  =     F    Hartree Fock one center treatment
   AEXX    =    0.0000 exact exchange contribution

 Parameters of functionals:
   SCAN:
     P1 =  0.000000E+00
     P2 =  0.000000E+00
     P3 =  0.000000E+00

 Accuracy and mixing parameters for tau-dependent meta-GGA functionals:
   LMAXTAU = 6
   LMIXTAU = T

 Van der Waals corrections
   IVDW    =     0    specifies the selected vdW correction

 Linear response parameters
   LEPSILON=     F    determine dielectric tensor
   LRPA    =     F    only Hartree local field effects (RPA)
   LNABLA  =     F    use nabla operator in PAW spheres
   LVEL    =     F    velocity operator in full k-point grid
   CSHIFT  =0.1000    complex shift for real part using Kramers Kronig
   OMEGAMAX=  -1.0    maximum frequency
   DEG_THRESHOLD= 0.2000000E-02 threshold for treating states as degnerate
   RTIME   =   -0.100 relaxation time in fs
  (WPLASMAI=    0.000 imaginary part of plasma frequency in eV, 0.658/RTIME)
   DFIELD  = 0.0000000 0.0000000 0.0000000 field for delta impulse in time

  Optional k-point grid parameters
   LKPOINTS_OPT  =     F    use optional k-point grid
   KPOINTS_OPT_MODE=     1    mode for optional k-point grid

 Orbital magnetization related:
   ORBITALMAG=     F  switch on orbital magnetization
   LCHIMAG   =     F  perturbation theory with respect to B field
   DQ        =  0.001000  dq finite difference perturbation B field
   LLRAUG    =     F  two centre corrections for induced B field
   LBONE     =     F  B-component reconstruction in AE one-centre
   LVGVCALC  =     T  calculate vGv susceptibility
   LVGVAPPL  =     F  apply vGv susceptibility instead of pGv for G=0

 Random number generation:
   RANDOM_GENERATOR = DEFAULT
   PCG_SEED         = not used


--------------------------------------------------------------------------------------------------------


 Static calculation
 charge density and potential will be updated during run
 non-spin polarized calculation
 Variant of blocked Davidson
 perform Loewdin sub-space diagonalisation
    ordering is kept fixed
    before iterative eigenvector-optimisation
 modified Broyden-mixing scheme, WC =      100.0
 initial mixing is a Kerker type mixing with AMIX =  0.4000 and BMIX =      1.0000
 Hartree-type preconditioning will be used
 using additional bands           63
 reciprocal scheme for non local part
 use partial core corrections
 calculate Harris-corrections to forces   (improved forces if not selfconsistent)
 use gradient corrections 
 use of overlap-Matrix (Vanderbilt PP)
 Gauss-broadening in eV      SIGMA  =   0.10


--------------------------------------------------------------------------------------------------------


  energy-cutoff  :     1200.00
  volume of cell :     5983.13
      direct lattice vectors                 reciprocal lattice vectors
    14.576847242  0.000000000  0.000000000     0.068601940  0.000000000  0.000000000
     0.000000000 14.576847242  0.000000000     0.000000000  0.068601940  0.000000000
     0.000000000  0.000000000 28.157951000     0.000000000  0.000000000  0.035513948

  length of vectors
    14.576847242 14.576847242 28.157951000     0.068601940  0.068601940  0.035513948



 old parameters found on file WAVECAR:
  energy-cutoff  :     1200.00
  volume of cell :     5983.13
      direct lattice vectors                 reciprocal lattice vectors
    14.576847242  0.000000000  0.000000000     0.068601940  0.000000000  0.000000000
     0.000000000 14.576847242  0.000000000     0.000000000  0.068601940  0.000000000
     0.000000000  0.000000000 28.157951000     0.000000000  0.000000000  0.035513948

  length of vectors


 k-points in units of 2pi/SCALE and weight: read from INCAR                         
   0.00000000  0.00000000  0.00000000       0.250
   0.03430097  0.00000000  0.00000000       0.250
   0.00000000  0.03430097  0.00000000       0.250
   0.03430097  0.03430097  0.00000000       0.250

 k-points in reciprocal lattice and weights: read from INCAR                         
   0.00000000  0.00000000  0.00000000       0.250
   0.50000000  0.00000000  0.00000000       0.250
   0.00000000  0.50000000  0.00000000       0.250
   0.50000000  0.50000000  0.00000000       0.250

 position of ions in fractional coordinates (direct lattice) 
   0.21635062  0.28430771  0.47019582
   0.22414998  0.51280705  0.55925557
   0.26149413  0.67356266  0.54848313
   0.09147108  0.46955627  0.48401430
   0.11472302  0.83839803  0.49087631
   0.00872726  0.58194820  0.60321793
   0.30236854  0.26328944  0.40889129
   0.32225761  0.46691372  0.46078214
   0.15422814  0.59268097  0.46340804
   0.36517293  0.97857237  0.40205699
   0.08083710  0.98524048  0.45855329
   0.18709258  0.57061379  0.44694875
   0.15397019  0.08933139  0.52750042
   0.23572313  0.32302184  0.48064829
   0.20459843  0.95610524  0.52289213
   0.09212006  0.33470749  0.48157449
   0.28676777  0.42811932  0.40949290
   0.24217788  0.73148191  0.48078644
   0.26854915  0.19791111  0.54538311
   0.24866282  0.04248799  0.42788273
   0.21332871  0.77587422  0.41013535
   0.12048902  0.43880133  0.56237867
   0.18395061  0.96094853  0.54809993
   0.08346455  0.69162418  0.49696340
   0.36269914  0.10721386  0.45396773
   0.31254083  0.36913881  0.52884569
   0.21202939  0.81363273  0.55845438
   0.37077908  0.96184722  0.48801921
   0.99413310  0.91757153  0.50113593
   0.21769179  0.91753037  0.43515315
   0.03374090  0.20097419  0.48866769
   0.15601933  0.17060959  0.45925007
   0.15393727  0.79941841  0.55953152
   0.56411101  0.63658416  0.45647146
   0.30933850  0.78392123  0.55491328
   0.30273419  0.61560637  0.48415600
   0.96684144  0.27498539  0.54265777
   0.25120521  0.02504424  0.35513948
   0.30891797  0.02994372  0.53920830
   0.39036356  0.94168511  0.39114575
   0.39506691  0.34218716  0.44468935
   0.09340223  0.36123449  0.42609176
   0.36718434  0.45740549  0.58164712
   0.07226597  0.31361514  0.50216903
   0.19838583  0.72713940  0.49669385
   0.48053258  0.14754631  0.52986600
   0.80861107  0.85004664  0.54262510
   0.77817925  0.81722061  0.41861643
   0.07428904  0.08044675  0.36135820
   0.98776503  0.67586014  0.48299186
   0.05494247  0.84370096  0.37363905
   0.55995305  0.40081095  0.52915431
   0.45026403  0.14719438  0.45017519
   0.84808462  0.31239471  0.46417479
   0.47793325  0.64399179  0.64091741
   0.34636845  0.12985867  0.64444146
   0.47538743  0.28811100  0.42324212
   0.37516549  0.54900280  0.47920181
   0.54323955  0.56513798  0.36568410
   0.77300666  0.57421539  0.44217283
   0.59827477  0.37232811  0.45239872
   0.10575126  0.11431553  0.57442358
   0.65957953  0.23912372  0.62331883
   0.61666421  0.97658292  0.58806236
   0.55170160  0.04923678  0.40968183
   0.04320482  0.90220469  0.63925074
   0.76559765  0.20581474  0.56963985
   0.91788710  0.96342506  0.53118002
   0.85622081  0.60002618  0.57862630
   0.49309016  0.65679223  0.56192516
   0.41302278  0.78804421  0.54956204
   0.43812492  0.76866416  0.41553098
   0.57506262  0.93452307  0.46902102
   0.40024430  0.27490375  0.61684037
   0.47724792  0.62579993  0.43104773
   0.18933930  0.10994147  0.64486052
   0.67391596  0.74620388  0.62845450
   0.96605252  0.46862260  0.37332795
   0.43654364  0.50252773  0.55180439
   0.99192231  0.70022686  0.39911679
   0.68248571  0.49204741  0.63317608
   0.98063729  0.20001719  0.37750687
   0.53239976  0.26831522  0.57245398
   0.68297347  0.82714731  0.48792829
   0.03972334  0.25754609  0.57793378
   0.94951945  0.18678182  0.46150237
   0.85425880  0.06464512  0.47862328
   0.06304196  0.58489602  0.36626525
   0.25248807  0.22898230  0.36979367
   0.61071299  0.05032076  0.51864147
   0.98418401  0.03128612  0.59762910
   0.66708595  0.49272177  0.40289015
   0.29455272  0.74736325  0.37827696
   0.63775519  0.71212244  0.54688677
   0.22233546  0.59128630  0.37337713
   0.23239319  0.60325871  0.58344448
   0.28782767  0.46016398  0.36211726
   0.84047667  0.68066982  0.39340416
   0.89550914  0.45927009  0.44618307
   0.73451411  0.88625474  0.61177679
   0.73372519  0.59398098  0.52262294
   0.04625966  0.77734230  0.58916293
   0.92142010  0.73823234  0.55172306
   0.86818499  0.13462308  0.62210141
   0.70877466  0.25441990  0.44027817
   0.15331916  0.36025074  0.58851090
   0.66197785  0.87652013  0.36931647
   0.69415559  0.45475197  0.55393203
   0.72768136  0.13717164  0.49451365
   0.38955269  0.05332250  0.57078731
   0.92301166  0.45930371  0.56644360
   0.69636457  0.03153316  0.37923757
   0.46414358  0.91508814  0.59022267
   0.18809760  0.12100902  0.41779002
   0.28759854  0.29266960  0.56212261
   0.09576488  0.64021594  0.62155236
   0.83708773  0.97329688  0.41364519
   0.81475094  0.35024377  0.54291347
   0.00642078  0.50750892  0.49574243
   0.42590623  0.87138184  0.47818753
   0.11851397  0.89361573  0.44655170
   0.05880037  0.33950208  0.37705556

 position of ions in cartesian coordinates  (Angst):
   3.15371000  4.14431000 13.23975100
   3.26740000  7.47511000 15.74749100
   3.81176000  9.81842000 15.44416100
   1.33336000  6.84465000 13.62885100
   1.67230000 12.22120000 13.82207100
   0.12721600  8.48297000 16.98538100
   4.40758000  3.83793000 11.51354100
   4.69750000  6.80613000 12.97468100
   2.24816000  8.63942000 13.04862100
   5.32307000 14.26450000 11.32110100
   1.17835000 14.36170000 12.91192100
   2.72722000  8.31775000 12.58516100
   2.24440000  1.30217000 14.85333100
   3.43610000  4.70864000 13.53407100
   2.98240000 13.93700000 14.72357100
   1.34282000  4.87898000 13.56015100
   4.18017000  6.24063000 11.53048100
   3.53019000 10.66270000 13.53796100
   3.91460000  2.88492000 15.35687100
   3.62472000  0.61934100 12.04830100
   3.10966000 11.30980000 11.54857100
   1.75635000  6.39634000 15.83543100
   2.68142000 14.00760000 15.43337100
   1.21665000 10.08170000 13.99347100
   5.28701000  1.56284000 12.78280100
   4.55586000  5.38088000 14.89121100
   3.09072000 11.86020000 15.72493100
   5.40479000 14.02070000 13.74162100
  14.49132634 13.37530000 14.11096100
   3.17326000 13.37470000 12.25302100
   0.49183600  2.92957000 13.75988100
   2.27427000  2.48695000 12.93154100
   2.24392000 11.65300000 15.75526100
   8.22296000  9.27939000 12.85330100
   4.50918000 11.42710000 15.62522100
   4.41291000  8.97360000 13.63284100
  14.09350000  4.00842000 15.28013100
   3.66178000  0.36506600 10.00000000
   4.50305000  0.43648500 15.18300100
   5.69027000 13.72680000 11.01386300
   5.75883000  4.98801000 12.52154100
   1.36151000  5.26566000 11.99787100
   5.35239000  6.66753000 16.37799100
   1.05341000  4.57152000 14.14005100
   2.89184000 10.59940000 13.98588100
   7.00465000  2.15076000 14.91994100
  11.78700000 12.39100000 15.27921100
  11.34340000 11.91250000 11.78738100
   1.08290000  1.17266000 10.17510644
  14.39850000  9.85191000 13.60006100
   0.80088800 12.29850000 10.52091000
   8.16235000  5.84256000 14.89990100
   6.56343000  2.14563000 12.67601100
  12.36240000  4.55373000 13.07021100
   6.96676000  9.38737000 18.04692100
   5.04896000  1.89293000 18.14615100
   6.92965000  4.19975000 11.91763100
   5.46873000  8.00273000 13.49334100
   7.91872000  8.23793000 10.29691500
  11.26800000  8.37025000 12.45068100
   8.72096000  5.42737000 12.73862100
   1.54152000  1.66636000 16.17459100
   9.61459000  3.48567000 17.55138100
   8.98902000 14.23550000 16.55863100
   8.04207000  0.71771700 11.53580100
   0.62979000 13.15130000 17.99999100
  11.16000000  3.00013000 16.03989100
  13.37990000 14.04370000 14.95694100
  12.48100000  8.74649000 16.29293100
   7.18770000  9.57396000 15.82266100
   6.02057000 11.48720000 15.47454100
   6.38648000 11.20470000 11.70050100
   8.38260000 13.62240000 13.20667100
   5.83430000  4.00723000 17.36896100
   6.95677000  9.12219000 12.13742100
   2.75997000  1.60260000 18.15795100
   9.82357000 10.87730000 17.69599100
  14.08200000  6.83104000 10.51215000
   6.36343000  7.32527000 15.53768100
  14.45910000 10.20710000 11.23831100
   9.94849000  7.17250000 17.82894100
  14.29460000  2.91562000 10.62982000
   7.76071000  3.91119000 16.11913100
   9.95560000 12.05720000 13.73906100
   0.57904100  3.75421000 16.27343100
  13.84100000  2.72269000 12.99496100
  12.45240000  0.94232200 13.47705100
   0.91895300  8.52594000 10.31327900
   3.68048000  3.33784000 10.41263200
   8.90227000  0.73351800 14.60388100
  14.34630000  0.45605300 16.82801100
   9.72401000  7.18233000 11.34456100
   4.29365000 10.89420000 10.65150400
   9.29646000 10.38050000 15.39921100
   3.24095000  8.61909000 10.51353500
   3.38756000  8.79361000 16.42860100
   4.19562000  6.70774000 10.19648010
  12.25150000  9.92202000 11.07745500
  13.05370000  6.69471000 12.56360100
  10.70690000 12.91880000 17.22638100
  10.69540000  8.65837000 14.71599100
   0.67432000 11.33120000 16.58962100
  13.43140000 10.76110000 15.53539100
  12.65540000  1.96238000 17.51710100
  10.33170000  3.70864000 12.39733100
   2.23491000  5.25132000 16.57126100
   9.64955000 12.77690000 10.39919500
  10.11860000  6.62885000 15.59759100
  10.60730000  1.99953000 13.92449100
   5.67845000  0.77727400 16.07220100
  13.45460000  6.69520000 15.94989100
  10.15080000  0.45965400 10.67855300
   6.76575000 13.33910000 16.61946100
   2.74187000  1.76393000 11.76411100
   4.19228000  4.26620000 15.82822100
   1.39595000  9.33233000 17.50164100
  12.20210000 14.18760000 11.64740100
  11.87650000  5.10545000 15.28733100
   0.09359470  7.39788000 13.95909100
   6.20837000 12.70200000 13.46478100
   1.72756000 13.02610000 12.57398100
   0.85712400  4.94887000 10.61711200



--------------------------------------------------------------------------------------------------------


 k-point     1 :   0.0000 0.0000 0.0000  plane waves:  564959
 k-point     2 :   0.5000 0.0000 0.0000  plane waves:  564770
 k-point     3 :   0.0000 0.5000 0.0000  plane waves:  564770
 k-point     4 :   0.5000 0.5000 0.0000  plane waves:  564700

 maximum and minimum number of plane-waves per node :     35357    35253

 maximum number of plane-waves:    564959
 maximum index in each direction: 
   IXMAX=   41   IYMAX=   41   IZMAX=   79
   IXMIN=  -41   IYMIN=  -41   IZMIN=  -79


 parallel 3D FFT for wavefunctions:
    minimum data exchange during FFTs selected (reduces bandwidth)
 parallel 3D FFT for charge:
    minimum data exchange during FFTs selected (reduces bandwidth)


 total amount of memory used by VASP MPI-rank0   377831. kBytes
=======================================================================

   base                                    :      30000. kBytes
   nonl-proj                               :      87028. kBytes
   fftplans                                :     108867. kBytes
   grid                                    :      83991. kBytes
   one-center                              :         24. kBytes
   wavefun                                 :      67921. kBytes

     INWAV:  cpu time     20.0386: real time     20.0499
 Broyden mixing: mesh for mixing (old mesh)
   NGX = 83   NGY = 83   NGZ =159
  (NGX  =336   NGY  =336   NGZ  =640)
  gives a total of ****** points

 initial charge density was supplied:
 number of electron     352.9999999 magnetization 
 keeping initial charge density in first step


--------------------------------------------------------------------------------------------------------


 Maximum index for augmentation-charges        11243 (set IRDMAX)


--------------------------------------------------------------------------------------------------------


 First call to EWALD:  gamma=   0.098
 Maximum number of real-space cells   3x   3x   2
 Maximum number of reciprocal cells   2x   2x   4

    FEWALD:  cpu time      0.0178: real time      0.0179


--------------------------------------- Ionic step        1  -------------------------------------------




--------------------------------------- Iteration      1(   1)  ---------------------------------------


    POTLOK:  cpu time      2.1890: real time      2.1898
    SETDIJ:  cpu time      1.8826: real time      1.8838
    EDDIAG:  cpu time     40.1801: real time     40.2054
     EDDAV:  cpu time    191.7115: real time    191.8110
       DOS:  cpu time      0.0069: real time      0.0074
    CHARGE:  cpu time     23.3956: real time     23.4161
    MIXING:  cpu time      0.0503: real time      0.0505
    --------------------------------------------
      LOOP:  cpu time    259.4162: real time    259.5640

 eigenvalue-minimisations  :  1984
 total energy-change (2. order) :-0.9075851E+03  (-0.1050707E+01)
 number of electron     352.9999999 magnetization 
 augmentation part      -16.8483437 magnetization 

 Broyden mixing:
  rms(total) = 0.10714E+01    rms(broyden)= 0.28621E+02
  rms(prec ) = 0.11128E+01
  weight for this iteration     100.00
  WARNING: grid for Broyden might be to small

 Free energy of the ion-electron system (eV)
  ---------------------------------------------------
  alpha Z        PSCENC =        44.70035321
  Ewald energy   TEWEN  =     52936.69511916
  -Hartree energ DENC   =    -60293.12224836
  -exchange      EXHF   =         0.00000000
  -V(xc)+E(xc)   XCENC  =      -243.12891992
  PAW double counting   =     30156.37554339   -29389.70555330
  entropy T*S    EENTRO =        -0.24172302
  eigenvalues    EBANDS =     -2617.28030790
  atomic energy  EATOM  =      8498.12264875
  Solvation  Ediel_sol  =         0.00000000
  ---------------------------------------------------
  free energy    TOTEN  =      -907.58508798 eV

  energy without entropy =     -907.34336496  energy(sigma->0) =     -907.46422647


--------------------------------------------------------------------------------------------------------




--------------------------------------- Iteration      1(   2)  ---------------------------------------


    POTLOK:  cpu time      2.1444: real time      2.1577
    SETDIJ:  cpu time      1.8718: real time      1.8730
    EDDIAG:  cpu time     40.1432: real time     40.1675
     EDDAV:  cpu time    187.5671: real time    187.6652
       DOS:  cpu time      0.0021: real time      0.0021
    CHARGE:  cpu time     23.2837: real time     23.3027
    MIXING:  cpu time      0.0435: real time      0.0435
    --------------------------------------------
      LOOP:  cpu time    255.0558: real time    255.2116

 eigenvalue-minimisations  :  1920
 total energy-change (2. order) : 0.6490722E+02  (-0.1103897E+01)
 number of electron     352.9999999 magnetization 
 augmentation part      -16.8338724 magnetization 

 Broyden mixing:
  rms(total) = 0.75099E+00    rms(broyden)= 0.16580E+02
  rms(prec ) = 0.78342E+00
  weight for this iteration     100.00
  WARNING: grid for Broyden might be to small

 eigenvalues of (default mixing * dielectric matrix)
  average eigenvalue GAMMA=   0.6334
  0.6334

 Free energy of the ion-electron system (eV)
  ---------------------------------------------------
  alpha Z        PSCENC =        44.70035321
  Ewald energy   TEWEN  =     52936.69511916
  -Hartree energ DENC   =    -60283.35097822
  -exchange      EXHF   =         0.00000000
  -V(xc)+E(xc)   XCENC  =      -236.87684200
  PAW double counting   =     35695.89538047   -34928.97190171
  entropy T*S    EENTRO =        -0.23353771
  eigenvalues    EBANDS =     -2568.65810626
  atomic energy  EATOM  =      8498.12264875
  Solvation  Ediel_sol  =         0.00000000
  ---------------------------------------------------
  free energy    TOTEN  =      -842.67786430 eV

  energy without entropy =     -842.44432659  energy(sigma->0) =     -842.56109544


--------------------------------------------------------------------------------------------------------




--------------------------------------- Iteration      1(   3)  ---------------------------------------


    POTLOK:  cpu time      2.1378: real time      2.1597
    SETDIJ:  cpu time      1.8652: real time      1.8658
    EDDIAG:  cpu time     40.1630: real time     40.1869
     EDDAV:  cpu time    188.8138: real time    188.9148
       DOS:  cpu time      0.0024: real time      0.0024
    CHARGE:  cpu time     23.2690: real time     23.2891
    MIXING:  cpu time      0.0411: real time      0.0411
    --------------------------------------------
      LOOP:  cpu time    256.2922: real time    256.4597

 eigenvalue-minimisations  :  1936
 total energy-change (2. order) :-0.2466557E+01  (-0.9672651E+00)
 number of electron     352.9999999 magnetization 
 augmentation part      -16.7550894 magnetization 

 Broyden mixing:
  rms(total) = 0.53325E+00    rms(broyden)= 0.14740E+02
  rms(prec ) = 0.65759E+00
  weight for this iteration     100.00
  WARNING: grid for Broyden might be to small

 eigenvalues of (default mixing * dielectric matrix)
  average eigenvalue GAMMA=   0.5194
  0.6395  0.3993

 Free energy of the ion-electron system (eV)
  ---------------------------------------------------
  alpha Z        PSCENC =        44.70035321
  Ewald energy   TEWEN  =     52936.69511916
  -Hartree energ DENC   =    -60285.71286744
  -exchange      EXHF   =         0.00000000
  -V(xc)+E(xc)   XCENC  =      -238.84919879
  PAW double counting   =     40607.09846208   -39840.32588683
  entropy T*S    EENTRO =        -0.23316868
  eigenvalues    EBANDS =     -2566.63988314
  atomic energy  EATOM  =      8498.12264875
  Solvation  Ediel_sol  =         0.00000000
  ---------------------------------------------------
  free energy    TOTEN  =      -845.14442166 eV

  energy without entropy =     -844.91125299  energy(sigma->0) =     -845.02783733


--------------------------------------------------------------------------------------------------------




--------------------------------------- Iteration      1(   4)  ---------------------------------------


    POTLOK:  cpu time      2.1356: real time      2.1569
    SETDIJ:  cpu time      1.8668: real time      1.8678
    EDDIAG:  cpu time     40.2099: real time     40.2338
     EDDAV:  cpu time    206.6738: real time    206.7853
       DOS:  cpu time      0.0045: real time      0.0045
    CHARGE:  cpu time     23.3026: real time     23.3217
    MIXING:  cpu time      0.0413: real time      0.0413
    --------------------------------------------
      LOOP:  cpu time    274.2345: real time    274.4113

 eigenvalue-minimisations  :  2256
 total energy-change (2. order) : 0.6795810E-01  (-0.5637353E+00)
 number of electron     352.9999999 magnetization 
 augmentation part      -16.7371318 magnetization 

 Broyden mixing:
  rms(total) = 0.32408E+00    rms(broyden)= 0.10804E+02
  rms(prec ) = 0.53158E+00
  weight for this iteration     100.00
  WARNING: grid for Broyden might be to small

 eigenvalues of (default mixing * dielectric matrix)
  average eigenvalue GAMMA=   0.4985
  0.6445  0.4255  0.4255

 Free energy of the ion-electron system (eV)
  ---------------------------------------------------
  alpha Z        PSCENC =        44.70035321
  Ewald energy   TEWEN  =     52936.69511916
  -Hartree energ DENC   =    -60285.61173178
  -exchange      EXHF   =         0.00000000
  -V(xc)+E(xc)   XCENC  =      -239.09271229
  PAW double counting   =     45259.87677575   -44493.18800124
  entropy T*S    EENTRO =        -0.24737736
  eigenvalues    EBANDS =     -2566.33153775
  atomic energy  EATOM  =      8498.12264875
  Solvation  Ediel_sol  =         0.00000000
  ---------------------------------------------------
  free energy    TOTEN  =      -845.07646357 eV

  energy without entropy =     -844.82908620  energy(sigma->0) =     -844.95277488


--------------------------------------------------------------------------------------------------------




--------------------------------------- Iteration      1(   5)  ---------------------------------------


    POTLOK:  cpu time      2.1366: real time      2.1576
    SETDIJ:  cpu time      1.8765: real time      1.8783
    EDDIAG:  cpu time     40.1988: real time     40.2254
     EDDAV:  cpu time    202.8119: real time    202.9247
       DOS:  cpu time      0.0021: real time      0.0021
    CHARGE:  cpu time     23.2971: real time     23.3183
    MIXING:  cpu time      0.0419: real time      0.0419
    --------------------------------------------
      LOOP:  cpu time    270.3651: real time    270.5483

 eigenvalue-minimisations  :  2184
 total energy-change (2. order) : 0.3353051E+00  (-0.2037111E+00)
 number of electron     352.9999999 magnetization 
 augmentation part      -16.7556704 magnetization 

 Broyden mixing:
  rms(total) = 0.11758E+00    rms(broyden)= 0.37933E+01
  rms(prec ) = 0.17566E+00
  weight for this iteration     100.00
  WARNING: grid for Broyden might be to small

 eigenvalues of (default mixing * dielectric matrix)
  average eigenvalue GAMMA=   0.7384
  1.4583  0.6401  0.5392  0.3160

 Free energy of the ion-electron system (eV)
  ---------------------------------------------------
  alpha Z        PSCENC =        44.70035321
  Ewald energy   TEWEN  =     52936.69511916
  -Hartree energ DENC   =    -60285.62743134
  -exchange      EXHF   =         0.00000000
  -V(xc)+E(xc)   XCENC  =      -239.29709105
  PAW double counting   =     46784.87688036   -46018.19543110
  entropy T*S    EENTRO =        -0.24799818
  eigenvalues    EBANDS =     -2565.76820822
  atomic energy  EATOM  =      8498.12264875
  Solvation  Ediel_sol  =         0.00000000
  ---------------------------------------------------
  free energy    TOTEN  =      -844.74115842 eV

  energy without entropy =     -844.49316023  energy(sigma->0) =     -844.61715933


--------------------------------------------------------------------------------------------------------




--------------------------------------- Iteration      1(   6)  ---------------------------------------


    POTLOK:  cpu time      2.1411: real time      2.1591
    SETDIJ:  cpu time      1.8730: real time      1.8741
    EDDIAG:  cpu time     40.2017: real time     40.2272
     EDDAV:  cpu time    191.9483: real time    192.0562
       DOS:  cpu time      0.0020: real time      0.0020
    CHARGE:  cpu time     23.3012: real time     23.3202
    MIXING:  cpu time      0.0417: real time      0.0426
    --------------------------------------------
      LOOP:  cpu time    259.5091: real time    259.6814

 eigenvalue-minimisations  :  1992
 total energy-change (2. order) :-0.6864134E-01  (-0.5600715E-01)
 number of electron     352.9999999 magnetization 
 augmentation part      -16.7720427 magnetization 

 Broyden mixing:
  rms(total) = 0.13559E+00    rms(broyden)= 0.89498E+00
  rms(prec ) = 0.15892E+00
  weight for this iteration     100.00
  WARNING: grid for Broyden might be to small

 eigenvalues of (default mixing * dielectric matrix)
  average eigenvalue GAMMA=   0.7106
  1.7251  0.6359  0.4487  0.4487  0.2949

 Free energy of the ion-electron system (eV)
  ---------------------------------------------------
  alpha Z        PSCENC =        44.70035321
  Ewald energy   TEWEN  =     52936.69511916
  -Hartree energ DENC   =    -60285.85674987
  -exchange      EXHF   =         0.00000000
  -V(xc)+E(xc)   XCENC  =      -239.40968826
  PAW double counting   =     47002.92961527   -46236.23225158
  entropy T*S    EENTRO =        -0.24374305
  eigenvalues    EBANDS =     -2565.51510338
  atomic energy  EATOM  =      8498.12264875
  Solvation  Ediel_sol  =         0.00000000
  ---------------------------------------------------
  free energy    TOTEN  =      -844.80979976 eV

  energy without entropy =     -844.56605671  energy(sigma->0) =     -844.68792823


--------------------------------------------------------------------------------------------------------




--------------------------------------- Iteration      1(   7)  ---------------------------------------


    POTLOK:  cpu time      2.1420: real time      2.1611
    SETDIJ:  cpu time      1.8761: real time      1.8770
    EDDIAG:  cpu time     40.2089: real time     40.2339
     EDDAV:  cpu time    191.5406: real time    191.6459
       DOS:  cpu time      0.0026: real time      0.0026
    CHARGE:  cpu time     23.2741: real time     23.2949
    MIXING:  cpu time      0.0429: real time      0.0429
    --------------------------------------------
      LOOP:  cpu time    259.0872: real time    259.2583

 eigenvalue-minimisations  :  1984
 total energy-change (2. order) : 0.1828131E-01  (-0.1014127E-01)
 number of electron     352.9999999 magnetization 
 augmentation part      -16.7642742 magnetization 

 Broyden mixing:
  rms(total) = 0.37974E-01    rms(broyden)= 0.61821E+00
  rms(prec ) = 0.43989E-01
  weight for this iteration     100.00
  WARNING: grid for Broyden might be to small

 eigenvalues of (default mixing * dielectric matrix)
  average eigenvalue GAMMA=   0.8282
  2.3172  0.6605  0.5678  0.5678  0.5554  0.3006

 Free energy of the ion-electron system (eV)
  ---------------------------------------------------
  alpha Z        PSCENC =        44.70035321
  Ewald energy   TEWEN  =     52936.69511916
  -Hartree energ DENC   =    -60285.18266204
  -exchange      EXHF   =         0.00000000
  -V(xc)+E(xc)   XCENC  =      -239.58625578
  PAW double counting   =     47073.98991466   -46307.29459525
  entropy T*S    EENTRO =        -0.24482327
  eigenvalues    EBANDS =     -2565.99121789
  atomic energy  EATOM  =      8498.12264875
  Solvation  Ediel_sol  =         0.00000000
  ---------------------------------------------------
  free energy    TOTEN  =      -844.79151845 eV

  energy without entropy =     -844.54669518  energy(sigma->0) =     -844.66910682


--------------------------------------------------------------------------------------------------------




--------------------------------------- Iteration      1(   8)  ---------------------------------------


    POTLOK:  cpu time      2.1440: real time      2.1622
    SETDIJ:  cpu time      1.8721: real time      1.8733
    EDDIAG:  cpu time     40.2259: real time     40.2508
     EDDAV:  cpu time    196.9439: real time    197.0546
       DOS:  cpu time      0.0103: real time      0.0104
    CHARGE:  cpu time     23.2606: real time     23.2814
    MIXING:  cpu time      0.0580: real time      0.0588
    --------------------------------------------
      LOOP:  cpu time    264.5148: real time    264.6916

 eigenvalue-minimisations  :  2080
 total energy-change (2. order) : 0.8877895E-02  (-0.2280254E-02)
 number of electron     352.9999999 magnetization 
 augmentation part      -16.7628934 magnetization 

 Broyden mixing:
  rms(total) = 0.28056E-01    rms(broyden)= 0.20375E+00
  rms(prec ) = 0.30881E-01
  weight for this iteration     100.00
  WARNING: grid for Broyden might be to small

 eigenvalues of (default mixing * dielectric matrix)
  average eigenvalue GAMMA=   0.8523
  2.5486  0.9230  0.3005  0.6208  0.6208  0.4762  0.4762

 Free energy of the ion-electron system (eV)
  ---------------------------------------------------
  alpha Z        PSCENC =        44.70035321
  Ewald energy   TEWEN  =     52936.69511916
  -Hartree energ DENC   =    -60283.59698078
  -exchange      EXHF   =         0.00000000
  -V(xc)+E(xc)   XCENC  =      -239.55443466
  PAW double counting   =     46996.65880348   -46229.95400452
  entropy T*S    EENTRO =        -0.24374108
  eigenvalues    EBANDS =     -2567.61040412
  atomic energy  EATOM  =      8498.12264875
  Solvation  Ediel_sol  =         0.00000000
  ---------------------------------------------------
  free energy    TOTEN  =      -844.78264056 eV

  energy without entropy =     -844.53889948  energy(sigma->0) =     -844.66077002


--------------------------------------------------------------------------------------------------------




--------------------------------------- Iteration      1(   9)  ---------------------------------------


    POTLOK:  cpu time      2.1467: real time      2.1644
    SETDIJ:  cpu time      1.8870: real time      1.8886
    EDDIAG:  cpu time     40.2317: real time     40.2574
     EDDAV:  cpu time    198.8405: real time    198.9489
       DOS:  cpu time      0.0025: real time      0.0025
    CHARGE:  cpu time     23.2900: real time     23.3099
    MIXING:  cpu time      0.0447: real time      0.0447
    --------------------------------------------
      LOOP:  cpu time    266.4432: real time    266.6165

 eigenvalue-minimisations  :  2112
 total energy-change (2. order) :-0.5385041E-03  (-0.8539331E-03)
 number of electron     352.9999999 magnetization 
 augmentation part      -16.7606655 magnetization 

 Broyden mixing:
  rms(total) = 0.15678E-01    rms(broyden)= 0.11550E+00
  rms(prec ) = 0.17279E-01
  weight for this iteration     100.00
  WARNING: grid for Broyden might be to small

 eigenvalues of (default mixing * dielectric matrix)
  average eigenvalue GAMMA=   0.8126
  2.5620  0.8888  0.6064  0.6064  0.5378  0.5378  0.2995  0.4619

 Free energy of the ion-electron system (eV)
  ---------------------------------------------------
  alpha Z        PSCENC =        44.70035321
  Ewald energy   TEWEN  =     52936.69511916
  -Hartree energ DENC   =    -60282.77354412
  -exchange      EXHF   =         0.00000000
  -V(xc)+E(xc)   XCENC  =      -239.46603111
  PAW double counting   =     46989.18947803   -46222.47788627
  entropy T*S    EENTRO =        -0.24452938
  eigenvalues    EBANDS =     -2568.52878734
  atomic energy  EATOM  =      8498.12264875
  Solvation  Ediel_sol  =         0.00000000
  ---------------------------------------------------
  free energy    TOTEN  =      -844.78317906 eV

  energy without entropy =     -844.53864968  energy(sigma->0) =     -844.66091437


--------------------------------------------------------------------------------------------------------




--------------------------------------- Iteration      1(  10)  ---------------------------------------


    POTLOK:  cpu time      2.1446: real time      2.1624
    SETDIJ:  cpu time      1.8693: real time      1.8707
    EDDIAG:  cpu time     40.1931: real time     40.2171
     EDDAV:  cpu time    192.2004: real time    192.3046
       DOS:  cpu time      0.0024: real time      0.0024
    CHARGE:  cpu time     23.2830: real time     23.3048
    MIXING:  cpu time      0.0449: real time      0.0450
    --------------------------------------------
      LOOP:  cpu time    259.7375: real time    259.9068

 eigenvalue-minimisations  :  1992
 total energy-change (2. order) :-0.4522848E-03  (-0.3917224E-03)
 number of electron     352.9999999 magnetization 
 augmentation part      -16.7599751 magnetization 

 Broyden mixing:
  rms(total) = 0.71743E-02    rms(broyden)= 0.11127E+00
  rms(prec ) = 0.94359E-02
  weight for this iteration     100.00
  WARNING: grid for Broyden might be to small

 eigenvalues of (default mixing * dielectric matrix)
  average eigenvalue GAMMA=   0.8492
  2.5924  1.0536  0.8103  0.8103  0.6377  0.5015  0.5015  0.2993  0.4359

 Free energy of the ion-electron system (eV)
  ---------------------------------------------------
  alpha Z        PSCENC =        44.70035321
  Ewald energy   TEWEN  =     52936.69511916
  -Hartree energ DENC   =    -60282.17019725
  -exchange      EXHF   =         0.00000000
  -V(xc)+E(xc)   XCENC  =      -239.35479185
  PAW double counting   =     46983.69032460   -46216.96917404
  entropy T*S    EENTRO =        -0.24432559
  eigenvalues    EBANDS =     -2569.25358833
  atomic energy  EATOM  =      8498.12264875
  Solvation  Ediel_sol  =         0.00000000
  ---------------------------------------------------
  free energy    TOTEN  =      -844.78363135 eV

  energy without entropy =     -844.53930575  energy(sigma->0) =     -844.66146855


--------------------------------------------------------------------------------------------------------




--------------------------------------- Iteration      1(  11)  ---------------------------------------


    POTLOK:  cpu time      2.1436: real time      2.1650
    SETDIJ:  cpu time      1.8750: real time      1.8764
    EDDIAG:  cpu time     40.1920: real time     40.2191
     EDDAV:  cpu time    193.9411: real time    194.0470
       DOS:  cpu time      0.0048: real time      0.0048
    CHARGE:  cpu time     23.2588: real time     23.2815
    MIXING:  cpu time      0.0471: real time      0.0471
    --------------------------------------------
      LOOP:  cpu time    261.4625: real time    261.6409

 eigenvalue-minimisations  :  2032
 total energy-change (2. order) :-0.1204598E-03  (-0.1464734E-03)
 number of electron     352.9999999 magnetization 
 augmentation part      -16.7602457 magnetization 

 Broyden mixing:
  rms(total) = 0.79308E-02    rms(broyden)= 0.61133E-01
  rms(prec ) = 0.97531E-02
  weight for this iteration     100.00
  WARNING: grid for Broyden might be to small

 eigenvalues of (default mixing * dielectric matrix)
  average eigenvalue GAMMA=   0.8773
  2.5837  1.6198  0.9004  0.6844  0.6844  0.6350  0.2994  0.4762  0.4762  0.4132

 Free energy of the ion-electron system (eV)
  ---------------------------------------------------
  alpha Z        PSCENC =        44.70035321
  Ewald energy   TEWEN  =     52936.69511916
  -Hartree energ DENC   =    -60281.60995441
  -exchange      EXHF   =         0.00000000
  -V(xc)+E(xc)   XCENC  =      -239.32580514
  PAW double counting   =     46971.88347996   -46205.15670475
  entropy T*S    EENTRO =        -0.24412871
  eigenvalues    EBANDS =     -2569.84875987
  atomic energy  EATOM  =      8498.12264875
  Solvation  Ediel_sol  =         0.00000000
  ---------------------------------------------------
  free energy    TOTEN  =      -844.78375181 eV

  energy without entropy =     -844.53962310  energy(sigma->0) =     -844.66168745


--------------------------------------------------------------------------------------------------------




--------------------------------------- Iteration      1(  12)  ---------------------------------------


    POTLOK:  cpu time      2.1504: real time      2.1684
    SETDIJ:  cpu time      1.8721: real time      1.8733
    EDDIAG:  cpu time     40.1645: real time     40.1912
     EDDAV:  cpu time    191.4530: real time    191.5601
       DOS:  cpu time      0.0075: real time      0.0075
    CHARGE:  cpu time     23.2763: real time     23.2970
    MIXING:  cpu time      0.0463: real time      0.0463
    --------------------------------------------
      LOOP:  cpu time    258.9701: real time    259.1438

 eigenvalue-minimisations  :  1984
 total energy-change (2. order) :-0.5218023E-04  (-0.8094577E-04)
 number of electron     352.9999999 magnetization 
 augmentation part      -16.7599346 magnetization 

 Broyden mixing:
  rms(total) = 0.21901E-02    rms(broyden)= 0.33437E-01
  rms(prec ) = 0.28323E-02
  weight for this iteration     100.00
  WARNING: grid for Broyden might be to small

 eigenvalues of (default mixing * dielectric matrix)
  average eigenvalue GAMMA=   0.8975
  2.5918  1.9441  0.8883  0.8883  0.6513  0.6412  0.6412  0.4805  0.4805  0.2995
  0.3655

 Free energy of the ion-electron system (eV)
  ---------------------------------------------------
  alpha Z        PSCENC =        44.70035321
  Ewald energy   TEWEN  =     52936.69511916
  -Hartree energ DENC   =    -60281.50593487
  -exchange      EXHF   =         0.00000000
  -V(xc)+E(xc)   XCENC  =      -239.32759966
  PAW double counting   =     46974.89564384   -46208.16753200
  entropy T*S    EENTRO =        -0.24436223
  eigenvalues    EBANDS =     -2569.95214019
  atomic energy  EATOM  =      8498.12264875
  Solvation  Ediel_sol  =         0.00000000
  ---------------------------------------------------
  free energy    TOTEN  =      -844.78380399 eV

  energy without entropy =     -844.53944176  energy(sigma->0) =     -844.66162287


--------------------------------------------------------------------------------------------------------




--------------------------------------- Iteration      1(  13)  ---------------------------------------


    POTLOK:  cpu time      2.1407: real time      2.1627
    SETDIJ:  cpu time      1.8642: real time      1.8654
    EDDIAG:  cpu time     40.1771: real time     40.2025
     EDDAV:  cpu time    191.3018: real time    191.4084
       DOS:  cpu time      0.0019: real time      0.0019
    CHARGE:  cpu time     23.2789: real time     23.3000
    MIXING:  cpu time      0.0475: real time      0.0476
    --------------------------------------------
      LOOP:  cpu time    258.8121: real time    258.9885

 eigenvalue-minimisations  :  1984
 total energy-change (2. order) : 0.2542867E-04  (-0.4481594E-04)
 number of electron     352.9999999 magnetization 
 augmentation part      -16.7600307 magnetization 

 Broyden mixing:
  rms(total) = 0.14169E-02    rms(broyden)= 0.10442E-01
  rms(prec ) = 0.17359E-02
  weight for this iteration     100.00
  WARNING: grid for Broyden might be to small

 eigenvalues of (default mixing * dielectric matrix)
  average eigenvalue GAMMA=   0.9179
  2.5010  2.5010  0.9944  0.8413  0.8413  0.6311  0.5560  0.5560  0.2994  0.4584
  0.4584  0.3765

 Free energy of the ion-electron system (eV)
  ---------------------------------------------------
  alpha Z        PSCENC =        44.70035321
  Ewald energy   TEWEN  =     52936.69511916
  -Hartree energ DENC   =    -60281.25831270
  -exchange      EXHF   =         0.00000000
  -V(xc)+E(xc)   XCENC  =      -239.32795553
  PAW double counting   =     46969.53884641   -46202.80938504
[...]
   0.237E+02 0.191E+02 -.200E+03   -.236E+02 -.198E+02 0.197E+03   -.124E+01 -.261E+00 0.405E+01   -.107E-04 -.149E-04 0.191E-04
   -.294E+02 0.152E+02 -.232E+03   0.283E+02 -.149E+02 0.230E+03   0.199E+01 -.652E-01 0.147E+01   -.320E-04 -.890E-05 0.402E-04
   -.793E+01 -.499E+02 0.333E+03   0.722E+01 0.463E+02 -.332E+03   0.110E+01 0.353E+01 -.140E+01   0.389E-04 0.346E-04 -.394E-04
   0.221E+02 0.168E+02 -.279E+03   -.230E+02 -.160E+02 0.277E+03   0.158E+01 -.234E-01 0.191E+01   0.310E-05 -.244E-04 0.527E-04
   -.121E+02 0.169E+02 0.192E+03   0.135E+02 -.154E+02 -.191E+03   -.181E+01 -.226E+01 -.176E+01   -.975E-04 -.584E-05 -.570E-04
   0.626E+01 -.123E+02 -.157E+03   -.498E+01 0.125E+02 0.157E+03   -.154E+01 0.174E+00 0.678E+00   -.463E-04 0.260E-05 -.777E-05
   -.189E+02 0.182E+02 -.341E+03   0.173E+02 -.162E+02 0.338E+03   0.106E+01 -.201E+01 0.188E+01   -.403E-05 0.153E-04 0.528E-04
   -.352E+02 -.829E+00 0.251E+03   0.359E+02 0.153E+01 -.250E+03   -.624E+00 -.148E+01 -.234E+01   0.393E-04 0.399E-04 -.775E-04
   -.713E+01 0.375E+01 -.145E+03   0.688E+01 -.321E+01 0.143E+03   -.510E-01 -.289E+00 0.224E+01   -.300E-04 0.365E-04 0.293E-04
   -.268E+02 -.684E+01 -.175E+02   0.269E+02 0.477E+01 0.153E+02   -.212E+01 0.354E+01 0.349E+01   -.363E-06 -.203E-04 -.611E-05
   0.307E+02 0.288E+01 0.676E+02   -.297E+02 -.353E+01 -.658E+02   -.612E+00 0.144E+01 -.101E+01   -.123E-04 0.505E-05 -.294E-05
   -.569E+01 -.136E+01 0.136E+03   0.689E+01 0.353E+01 -.135E+03   -.578E+00 -.178E+01 -.146E+01   -.106E-04 0.315E-04 -.275E-04
   -.185E+02 0.896E+01 0.317E+03   0.163E+02 -.747E+01 -.314E+03   0.297E+01 -.144E+01 -.343E+01   -.858E-04 -.108E-03 -.464E-04
 -----------------------------------------------------------------------------------------------
   -.524E+01 -.190E+01 0.254E+02   -.107E-12 0.195E-13 0.227E-12   0.524E+01 0.189E+01 -.254E+02   -.313E-03 -.114E-03 -.503E-03


 POSITION                                       TOTAL-FORCE (eV/Angst)
 -----------------------------------------------------------------------------------
      3.15371      4.14431     13.23975        -0.727515     -1.517229     -0.907311
      3.26740      7.47511     15.74749         0.298257      0.301461      0.100857
      3.81176      9.81842     15.44416        -0.079121     -0.215498      0.460872
      1.33336      6.84465     13.62885         1.514408     -0.487705     -0.276181
      1.67230     12.22120     13.82207        -0.062828      0.091435     -0.304730
      0.12722      8.48297     16.98538         1.068766     -0.024660      0.585709
      4.40758      3.83793     11.51354         0.949994      0.667536      1.359204
      4.69750      6.80613     12.97468         0.520855      0.394508      0.138040
      2.24816      8.63942     13.04862        -0.149144      0.253811      0.425117
      5.32307     14.26450     11.32110        -0.722050      0.841710      0.272746
      1.17835     14.36170     12.91192        -0.042516      0.190828      0.002115
      2.72722      8.31775     12.58516         0.312398     -0.192825     -0.104525
      2.24440      1.30217     14.85333        -0.564488      0.501078      0.596061
      3.43610      4.70864     13.53407         0.806285      1.646931      0.609836
      2.98240     13.93700     14.72357        -0.376614     -0.174538      0.972292
      1.34282      4.87898     13.56015         0.324430      0.516227     -0.975952
      4.18017      6.24063     11.53048        -0.258877     -0.696797      1.284608
      3.53019     10.66270     13.53796        -0.855994     -0.011741      0.498197
      3.91460      2.88492     15.35687        -0.056587      0.246607     -0.562586
      3.62472      0.61934     12.04830        -0.018983      0.167106      0.432428
      3.10966     11.30980     11.54857         0.482181     -0.000002     -0.426948
      1.75635      6.39634     15.83543        -0.042630      0.637371     -0.169815
      2.68142     14.00760     15.43337         0.387933     -0.393201     -0.897665
      1.21665     10.08170     13.99347         0.473115      0.261732      0.125659
      5.28701      1.56284     12.78280        -1.507258     -0.536043     -0.523341
      4.55586      5.38088     14.89121         0.137034     -0.406070     -0.125282
      3.09072     11.86020     15.72493        -1.348537     -0.489372     -0.102256
      5.40479     14.02070     13.74162         0.242436     -1.153460     -0.627792
     14.49133     13.37530     14.11096        -0.817513      0.309447      0.561841
      3.17326     13.37470     12.25302        -0.484511     -0.312609      0.344238
      0.49184      2.92957     13.75988         0.224038     -0.447997      0.181065
      2.27427      2.48695     12.93154        -0.178570      0.032520      0.784803
      2.24392     11.65300     15.75526         2.123188      0.612448     -0.161913
      8.22296      9.27939     12.85330         0.451722      0.210044      0.851176
      4.50918     11.42710     15.62522         0.373321      0.307860      0.151327
      4.41291      8.97360     13.63284        -0.276395      0.536624      0.194146
     14.09350      4.00842     15.28013        -0.349306      0.021982      0.110420
      3.66178      0.36507     10.00000        -0.842943      0.521717     -0.233987
      4.50305      0.43648     15.18300         0.316122      0.383935      0.443247
      5.69027     13.72680     11.01386         0.543914     -0.750992     -0.596918
      5.75883      4.98801     12.52154         0.461228     -0.342844     -0.262770
      1.36151      5.26566     11.99787        -0.053467     -0.260538     -0.145541
      5.35239      6.66753     16.37799         0.136633      0.166102      0.468893
      1.05341      4.57152     14.14005        -0.349542     -0.256133      0.934746
      2.89184     10.59940     13.98588         1.035678      0.124830     -0.777870
      7.00465      2.15076     14.91994         1.304601     -0.250823     -0.361047
     11.78700     12.39100     15.27921        -0.082083      0.545191     -0.157528
     11.34340     11.91250     11.78738         0.005727      0.091212      0.069793
      1.08290      1.17266     10.17511         0.847127     -1.486184      0.136139
     14.39850      9.85191     13.60006         0.447020     -1.361790      0.017244
      0.80089     12.29850     10.52091         0.028034      0.351372      0.084978
      8.16235      5.84256     14.89990        -1.642654      0.222450      0.747231
      6.56343      2.14563     12.67601         1.677681      0.137865     -0.065051
     12.36240      4.55373     13.07021         0.230263     -0.019728     -0.332594
      6.96676      9.38737     18.04692         0.775240     -0.200106      0.844043
      5.04896      1.89293     18.14615         0.076012      0.176269     -0.671114
      6.92965      4.19975     11.91763        -1.131392      1.798759     -0.083543
      5.46873      8.00273     13.49334        -0.390175     -1.143129      0.207500
      7.91872      8.23793     10.29691         0.185341     -0.631773     -1.598106
     11.26800      8.37025     12.45068         1.072784     -0.506086      0.513946
      8.72096      5.42737     12.73862         0.833542     -0.432277     -1.545411
      1.54152      1.66636     16.17459         1.046218      0.215315     -0.994356
      9.61459      3.48567     17.55138        -1.045807      0.489868      0.748904
      8.98902     14.23550     16.55863        -0.569541     -0.761178      0.865859
      8.04207      0.71772     11.53580         0.384778     -0.555516      0.247710
      0.62979     13.15130     17.99999        -0.105079      0.705347      0.070374
     11.16000      3.00013     16.03989         0.913638     -0.466264     -0.766655
     13.37990     14.04370     14.95694         0.603327     -0.420543     -0.531310
     12.48100      8.74649     16.29293        -1.034171     -0.130846      0.024170
      7.18770      9.57396     15.82266         0.052529     -0.219231     -0.229110
      6.02057     11.48720     15.47454        -0.735146      0.327859     -0.227894
      6.38648     11.20470     11.70050        -1.096659      1.292344     -1.088841
      8.38260     13.62240     13.20667        -0.897281     -0.487870     -0.546858
      5.83430      4.00723     17.36896        -0.174309     -0.622422      0.647394
      6.95677      9.12219     12.13742         0.455820     -1.026401      0.903855
      2.75997      1.60260     18.15795         0.125048     -0.120458      0.448979
      9.82357     10.87730     17.69599        -1.157827     -1.079217     -0.204154
     14.08200      6.83104     10.51215         0.570982     -0.267628     -0.896470
      6.36343      7.32527     15.53768         1.043032      0.469114     -1.104453
     14.45910     10.20710     11.23831         0.055137      1.852549      0.812787
      9.94849      7.17250     17.82894         0.033592      0.596351      0.200591
     14.29460      2.91562     10.62982        -0.247284      0.454576      0.505306
      7.76071      3.91119     16.11913         0.679088      0.233556      0.723895
      9.95560     12.05720     13.73906         0.921957     -0.779735      0.113460
      0.57904      3.75421     16.27343         0.228682     -0.123200      0.821888
     13.84100      2.72269     12.99496        -0.372814      0.277090     -1.178846
     12.45240      0.94232     13.47705         1.360696     -0.439058     -0.084178
      0.91895      8.52594     10.31328         0.967345     -0.664063     -0.494150
      3.68048      3.33784     10.41263        -0.887603      0.560941     -2.381178
      8.90227      0.73352     14.60388        -0.717863      0.947640      0.395760
     14.34630      0.45605     16.82801        -1.072321     -1.148595     -0.032651
      9.72401      7.18233     11.34456        -1.549103     -0.842581      0.107011
      4.29365     10.89420     10.65150        -1.058357     -1.201611      0.036493
      9.29646     10.38050     15.39921         0.510326     -0.067791     -0.550113
      3.24095      8.61909     10.51354        -0.403900      2.194352     -0.090064
      3.38756      8.79361     16.42860        -0.668995     -0.011779      0.143075
      4.19562      6.70774     10.19648         0.853154     -1.255650     -2.025275
     12.25150      9.92202     11.07745        -0.942611      0.527818     -0.088466
     13.05370      6.69471     12.56360        -1.086756      0.119494     -0.601293
     10.70690     12.91880     17.22638         0.280591      0.247461      0.240762
     10.69540      8.65837     14.71599         0.177228      0.112472      0.192173
      0.67432     11.33120     16.58962         1.118700      0.478516      1.833774
     13.43140     10.76110     15.53539        -1.792925     -0.838655     -0.677349
     12.65540      1.96238     17.51710         0.840872      0.257866      0.129266
     10.33170      3.70864     12.39733         0.125441      0.394341      0.039595
      2.23491      5.25132     16.57126        -0.643297     -1.064591      0.575711
      9.64955     12.77690     10.39919        -0.750479      0.027464      0.472542
     10.11860      6.62885     15.59759         0.663409      0.108538      0.228163
     10.60730      1.99953     13.92449        -0.815274      1.208454      0.775776
      5.67845      0.77727     16.07220        -1.250036     -0.967831      0.901909
     13.45460      6.69520     15.94989         0.782089      0.366523     -0.637097
     10.15080      0.45965     10.67855         0.338183     -0.153711      0.148870
      6.76575     13.33910     16.61946         0.781458      0.855169     -0.004989
      2.74187      1.76393     11.76411        -0.534757     -0.816707     -0.735743
      4.19228      4.26620     15.82822        -0.349114      0.433725      0.355145
      1.39595      9.33233     17.50164        -0.474762     -0.095232     -0.947865
     12.20210     14.18760     11.64740        -0.275504     -0.843136     -1.196508
     11.87650      5.10545     15.28733        -0.320567      0.281608      0.296341
      0.09359      7.39788     13.95909        -2.079807      1.618322      1.380187
      6.20837     12.70200     13.46478         0.414949      0.916714      0.743386
      1.72756     13.02610     12.57398         0.627341      0.339835     -0.312299
      0.85712      4.94887     10.61711         0.898724     -0.006541     -0.015687
 -----------------------------------------------------------------------------------
    total drift:                               -0.001013     -0.011579      0.012106


--------------------------------------------------------------------------------------------------------



  FREE ENERGIE OF THE ION-ELECTRON SYSTEM (eV)
  ---------------------------------------------------
  free  energy   TOTEN  =      -844.78459475 eV

  energy  without entropy=     -844.54031343  energy(sigma->0) =     -844.66245409



--------------------------------------------------------------------------------------------------------


    POTLOK:  cpu time      4.0075: real time      4.0105


--------------------------------------------------------------------------------------------------------


     LOOP+:  cpu time   6624.8001: real time   6629.2210
    4ORBIT:  cpu time      0.0000: real time      0.0000



 total charge

# of ion       s       p       d       tot
------------------------------------------
    1        0.651   0.044   0.000   0.696
    2        0.566   0.018   0.000   0.584
    3        0.563   0.020   0.000   0.583
    4        0.609   0.022   0.000   0.631
    5        0.581   0.016   0.000   0.597
    6        0.513   0.015   0.000   0.528
    7        0.608   0.023   0.000   0.631
    8        0.559   0.017   0.000   0.575
    9        0.610   0.036   0.000   0.646
   10        0.626   0.038   0.000   0.665
   11        0.584   0.016   0.000   0.600
   12        0.625   0.037   0.000   0.662
   13        0.543   0.015   0.000   0.558
   14        0.658   0.043   0.000   0.702
   15        0.592   0.030   0.000   0.622
   16        0.637   0.042   0.000   0.679
   17        0.590   0.024   0.000   0.614
   18        0.593   0.029   0.000   0.622
   19        0.566   0.017   0.000   0.584
   20        0.572   0.019   0.000   0.591
   21        0.544   0.016   0.000   0.560
   22        0.582   0.021   0.000   0.603
   23        0.596   0.029   0.000   0.625
   24        0.584   0.018   0.000   0.603
   25        0.597   0.022   0.000   0.619
   26        0.565   0.016   0.000   0.581
   27        0.526   0.022   0.000   0.548
   28        0.528   0.014   0.000   0.542
   29        0.547   0.015   0.000   0.562
   30        0.567   0.014   0.000   0.581
   31        0.573   0.020   0.000   0.594
   32        0.597   0.018   0.000   0.616
   33        0.570   0.026   0.000   0.596
   34        0.582   0.018   0.000   0.600
   35        0.555   0.018   0.000   0.574
   36        0.595   0.019   0.000   0.614
   37        0.570   0.020   0.000   0.590
   38        0.396   0.002   0.000   0.398
   39        0.557   0.016   0.000   0.573
   40        0.630   0.038   0.000   0.668
   41        0.551   0.015   0.000   0.566
   42        0.562   0.017   0.000   0.579
   43        0.561   0.019   0.000   0.580
   44        0.646   0.041   0.000   0.687
   45        0.588   0.031   0.000   0.618
   46        0.777   0.988   0.000   1.765
   47        0.757   0.952   0.000   1.709
   48        0.763   0.905   0.000   1.668
   49        0.859   0.723   0.000   1.582
   50        0.759   0.931   0.000   1.690
   51        0.870   0.714   0.000   1.584
   52        0.764   0.971   0.000   1.734
   53        0.755   1.027   0.000   1.782
   54        0.761   0.958   0.000   1.719
   55        0.916   0.632   0.000   1.548
   56        0.789   0.857   0.000   1.646
   57        0.785   0.906   0.000   1.691
   58        0.749   1.021   0.000   1.770
   59        0.867   0.755   0.000   1.623
   60        0.763   0.942   0.000   1.705
   61        0.762   0.916   0.000   1.678
   62        0.762   0.971   0.000   1.732
   63        0.866   0.763   0.000   1.629
   64        0.787   0.883   0.000   1.670
   65        0.811   0.830   0.000   1.641
   66        0.858   0.742   0.000   1.600
   67        0.767   0.956   0.000   1.723
   68        0.755   0.968   0.000   1.723
   69        0.791   0.851   0.000   1.641
   70        0.753   0.991   0.000   1.744
   71        0.758   0.964   0.000   1.722
   72        0.794   0.896   0.000   1.690
   73        0.767   0.950   0.000   1.717
   74        0.801   0.876   0.000   1.677
   75        0.754   1.040   0.000   1.794
   76        0.841   0.765   0.000   1.606
   77        0.851   0.735   0.000   1.586
   78        0.793   0.904   0.000   1.696
   79        0.746   0.950   0.000   1.695
   80        0.761   0.987   0.000   1.748
   81        0.911   0.625   0.000   1.536
   82        0.807   0.867   0.000   1.674
   83        0.756   0.974   0.000   1.729
   84        0.762   0.895   0.000   1.657
   85        0.774   0.924   0.000   1.699
   86        0.758   0.962   0.000   1.720
   87        0.759   1.031   0.000   1.790
   88        0.780   0.950   0.000   1.730
   89        0.840   0.824   0.000   1.664
   90        0.770   0.987   0.000   1.757
   91        0.759   0.960   0.000   1.719
   92        0.801   0.865   0.000   1.665
   93        0.790   0.828   0.000   1.619
   94        0.770   0.903   0.000   1.673
   95        0.805   0.865   0.000   1.670
   96        0.759   0.938   0.000   1.697
   97        0.840   0.855   0.000   1.696
   98        0.792   0.911   0.000   1.703
   99        0.764   0.948   0.000   1.712
  100        0.787   0.914   0.000   1.702
  101        0.770   0.936   0.000   1.706
  102        0.794   0.928   0.000   1.722
  103        0.762   0.970   0.000   1.732
  104        0.850   0.740   0.000   1.591
  105        0.800   0.865   0.000   1.664
  106        0.780   0.948   0.000   1.728
  107        0.873   0.713   0.000   1.586
  108        0.763   1.005   0.000   1.769
  109        0.764   1.005   0.000   1.770
  110        0.751   0.951   0.000   1.702
  111        0.801   0.843   0.000   1.644
  112        0.804   0.831   0.000   1.634
  113        0.788   0.860   0.000   1.648
  114        0.756   0.992   0.000   1.748
  115        0.743   0.992   0.000   1.736
  116        0.780   0.877   0.000   1.657
  117        0.807   0.811   0.000   1.619
  118        0.775   0.913   0.000   1.688
  119        0.758   0.973   0.000   1.731
  120        0.755   0.924   0.000   1.679
  121        0.745   0.999   0.000   1.744
  122        0.772   0.885   0.000   1.657
--------------------------------------------------
tot         86.700  70.233   0.000 156.933


 total amount of memory used by VASP MPI-rank0   377831. kBytes
=======================================================================

   base                                    :      30000. kBytes
   nonl-proj                               :      87028. kBytes
   fftplans                                :     108867. kBytes
   grid                                    :      83991. kBytes
   one-center                              :         24. kBytes
   wavefun                                 :      67921. kBytes

  
  
 General timing and accounting informations for this job:
 ========================================================
  
                  Total CPU time used (sec):     6776.579
                            User time (sec):     6028.752
                          System time (sec):      747.827
                         Elapsed time (sec):     6781.071
  
                   Maximum memory used (kb):      646352.
                   Average memory used (kb):          N/A
  
                          Minor page faults:     10387057
                          Major page faults:         1198
                 Voluntary context switches:         3623
