ITEM: TIMESTEP
150411
ITEM: NUMBER OF ATOMS
12500
ITEM: BOX BOUNDS pp pp pp
-1.1465450808472910e+00 5.9067728687022772e+01
-1.1465450808472910e+00 5.9067728687022772e+01
-1.1465450808472910e+00 6.2790979629489392e+01
ITEM: ATOMS id type xs ys zs
1 2 0.373911 0.0341829 0.583116
2 2 0.107674 0.110636 0.371316
3 2 0.230444 0.922738 0.0831223
4 2 0.107482 0.000618658 0.282494
5 2 0.102115 0.094908 0.0270247
6 2 0.37798 0.397612 0.194039
7 2 0.395404 0.241147 0.327823
8 2 0.672346 0.889242 0.182069
9 2 0.194679 0.990222 0.803173
10 2 0.520788 0.224265 0.405371
11 2 0.452761 0.114811 0.559028
12 2 0.858205 0.445286 0.374698
13 2 0.0636798 0.291633 0.249901
14 2 0.239336 0.245987 0.227363
15 2 0.126196 0.48489 0.774247
16 2 0.261446 0.390537 0.41707
17 2 0.158997 0.294714 0.965422
18 2 0.410751 0.23268 0.166821
19 2 0.426127 0.447831 0.521361
20 2 0.82437 0.418748 0.762647
21 2 0.955848 0.285201 0.16954
22 2 0.110944 0.174913 0.0339399
23 2 0.715664 0.447398 0.970081
24 2 0.0902956 0.275064 0.362159
25 2 0.405919 0.243872 0.020762
26 2 0.624344 0.392929 0.606189
27 2 0.297813 0.119691 0.952766
28 2 0.391003 0.112092 0.444536
29 2 0.997109 0.183489 0.962795
30 2 0.27332 0.14188 0.472997
31 2 0.191041 0.06064 0.218154
32 2 0.0409433 0.476906 0.290262
33 2 0.360525 0.19047 0.0670205
34 2 0.73972 0.613778 0.102056
35 2 0.278723 0.179599 0.356055
36 2 0.337553 0.196444 0.338034
37 2 0.119497 0.0128601 0.410148
38 2 0.924652 0.619553 0.292165
39 2 0.242834 0.460959 0.136697
40 2 0.874978 0.833718 0.359469
41 2 0.793949 0.217811 0.369272
42 2 0.417575 0.393913 0.28077
43 2 0.290067 0.357692 0.7496
44 2 0.742389 0.232555 0.633871
45 2 0.180106 0.942728 0.53092
46 2 0.440591 0.528922 0.533255
47 2 0.0378013 0.40522 0.971421
48 2 0.324573 0.291216 0.409878
49 2 0.146577 0.90191 0.996597
50 2 0.213054 0.159047 0.382202
51 2 0.82241 0.343456 0.425154
52 2 0.384593 0.215508 0.302269
53 2 0.22738 0.221519 0.347761
54 2 0.315834 0.515355 0.944698
55 2 0.00699099 0.422976 0.85465
56 2 0.687713 0.284316 0.109608
57 2 0.501778 0.441301 0.00578791
58 2 0.347815 0.4707 0.172187
59 2 0.918879 0.0853114 0.860089
60 2 0.747192 0.370703 0.310544
61 2 0.396145 0.252928 0.0809905
62 2 0.171631 0.424993 0.237025
63 2 0.0596994 0.298334 0.0986982
64 2 0.733271 0.108703 0.143389
65 2 0.18831 0.485737 0.305153
66 2 0.359822 0.50034 0.148307
67 2 0.346023 0.420478 0.556808
68 2 0.282139 0.491939 0.367185
69 2 0.706848 0.556026 0.659649
70 2 0.147752 0.452391 0.0677714
71 2 0.801573 0.374524 0.440034
72 2 0.151444 0.368575 0.333543
73 2 0.311115 0.0223388 0.0355194
74 2 0.160631 0.27876 0.000265862
75 2 0.224657 0.388978 0.68588
76 2 0.689212 0.331855 0.627697
77 2 0.00956035 0.310417 0.27626
78 2 0.0572559 0.117229 0.462459
79 2 0.107345 0.659774 0.196023
80 2 0.5922 0.923668 0.145505
81 2 0.230835 0.145879 0.239916
82 2 0.207585 0.425092 0.955753
83 2 0.468862 0.326259 0.0373679
84 2 0.153951 0.454376 0.256696
85 2 0.356867 0.234915 0.215912
86 2 0.284472 0.131945 0.0938092
87 2 0.264742 0.120241 0.366534
88 2 0.294309 0.132538 0.312567
89 2 0.275893 0.292673 0.480829
90 2 0.0227074 0.202439 0.126832
91 2 0.0548779 0.230932 0.434015
92 2 0.278523 0.573052 0.589687
93 2 0.291183 0.270232 0.355138
94 2 0.452015 0.202723 0.618313
95 2 0.36556 0.0128588 0.23322
96 2 0.278726 0.0616442 0.366782
97 2 0.658813 0.150287 0.35154
98 2 0.539526 0.392638 0.977259
99 2 0.991051 0.418585 0.551628
100 2 0.143727 0.203393 0.983386
101 2 0.339457 0.177413 0.20914
102 2 0.618524 0.063898 0.375438
103 2 0.669556 0.0902593 0.158043
104 2 0.703357 0.956333 0.382758
105 2 0.417277 0.177088 0.338096
106 2 0.300053 0.61777 0.560018
107 2 0.139809 0.148398 0.040038
108 2 0.255759 0.521409 0.284247
109 2 0.29905 0.373409 0.0951939
110 2 0.317414 0.412877 0.140766
111 2 0.966086 0.166734 0.836365
112 2 0.155783 0.221924 0.415928
113 2 0.437733 0.467135 0.553638
114 2 0.346804 0.983326 0.250643
115 2 0.192732 0.371263 0.0728803
116 2 0.304784 0.482889 0.512309
117 2 0.753925 0.465172 0.219377
118 2 0.13433 0.433577 0.319636
119 2 0.295314 0.822618 0.449253
120 2 0.703819 0.136867 0.220623
121 2 0.833833 0.858169 0.80932
122 2 0.143578 0.953268 0.275699
123 2 0.966196 0.240498 0.105945
124 2 0.367265 0.360418 0.29297
125 2 0.315941 0.0407779 0.411815
126 2 0.456276 0.484303 0.687569
127 2 0.150697 0.602527 0.0457026
128 2 0.107669 0.116969 0.206863
129 2 0.263764 0.379531 0.537788
130 2 0.171034 0.296027 0.064961
131 2 0.436858 0.90614 0.378677
132 2 0.267649 0.0754234 0.440993
133 2 0.176049 0.108291 0.756504
134 2 0.445768 0.460408 0.413695
135 2 0.3405 0.0744863 0.169517
136 2 0.391771 0.466928 0.283821
137 2 0.774198 0.174037 0.00276857
138 2 0.578732 0.462673 0.309202
139 2 0.19359 0.212916 0.329541
140 2 0.415047 0.0487829 0.849712
141 2 0.257667 0.0159136 0.129037
142 2 0.366871 0.99611 0.572731
143 2 0.0523535 0.259736 0.146884
144 2 0.706068 0.238792 0.977862
145 2 0.496579 0.55072 0.288551
146 2 0.286661 0.143524 0.812559
147 2 0.464292 0.0151837 0.248234
148 2 0.122185 0.223125 0.957735
149 2 0.0610872 0.196483 0.0736435
150 2 0.541466 0.0846479 0.232439
151 2 0.562907 0.417006 0.999306
152 2 0.530847 0.130664 0.116064
153 2 0.156115 0.42617 0.372767
154 2 0.319109 0.25962 0.260612
155 2 0.855462 0.350885 0.196727
156 2 0.0709159 0.146018 0.311476
157 2 0.0686868 0.334049 0.298406
158 2 0.377984 0.791746 0.610009
159 2 0.337428 0.193895 0.27214
160 2 0.746925 0.368097 0.976279
161 2 0.389485 0.840464 0.127686
162 2 0.182165 0.274419 0.258045
163 2 0.0594732 0.386475 0.332664
164 2 0.352312 0.14993 0.546911
165 2 0.783592 0.323353 0.147499
166 2 0.32857 0.162221 0.49773
167 2 0.12879 0.615087 0.431876
168 2 0.601859 0.939085 0.557583
169 2 0.224013 0.512868 0.380958
170 2 0.63767 0.573062 0.260854
171 2 0.0464193 0.159481 0.940163
172 2 0.96238 0.184438 0.979711
173 2 0.512062 0.232841 0.725473
174 2 0.238656 0.49803 0.412364
175 2 0.295814 0.0512033 0.848462
176 2 0.140892 0.338136 0.0909414
177 2 0.48924 0.365953 0.255974
178 2 0.289733 0.252095 0.646832
179 2 0.290401 0.38543 0.441083
180 2 0.302859 0.940944 0.0220844
181 2 0.402211 0.864611 0.366598
182 2 0.321633 0.491837 0.456127
183 2 0.339832 0.387523 0.243354
184 2 0.301476 0.437466 0.271238
185 2 0.16072 0.240673 0.183637
186 2 0.45613 0.396876 0.139386
187 2 0.308933 0.401173 0.354331
188 2 0.289623 0.210321 0.932909
189 2 0.912136 0.531444 0.0329274
190 2 0.318686 0.0377354 0.276156
191 2 0.249263 0.781504 0.409994
192 2 0.79895 0.147902 0.989102
193 2 0.128339 0.583225 0.243366
194 2 0.535551 0.185116 0.615688
195 2 0.194267 0.410376 0.0733215
196 2 0.490903 0.400195 0.121727
197 2 0.105597 0.257516 0.945095
198 2 0.392593 0.138254 0.0872616
199 2 0.544197 0.342241 0.24973
200 2 0.154425 0.24269 0.0993761
201 2 0.460184 0.0694651 0.18041
202 2 0.740238 0.477272 0.957441
203 2 0.471468 0.74863 0.404406
204 2 0.224239 0.0124076 0.432476
205 2 0.343498 0.360979 0.323284
206 2 0.26063 0.0428774 0.308013
207 2 0.619359 0.138553 0.07642
208 2 0.216188 0.202561 0.180985
209 2 0.196343 0.36391 0.0368725
210 2 0.452242 0.133787 0.116799
211 2 0.111051 0.37924 0.294121
212 2 0.308855 0.942413 0.898439
213 2 0.816834 0.205077 0.51246
214 2 0.160181 0.218876 0.0508116
215 2 0.255162 0.442974 0.908332
216 2 0.42873 0.410613 0.116424
217 2 0.175593 0.34195 0.350157
218 2 0.0942741 0.994353 0.432965
219 2 0.37782 0.816513 0.02489
220 2 0.115617 0.954944 0.385828
221 2 0.273792 0.0630994 0.516452
222 2 0.0979856 0.201902 0.403055
223 2 0.195288 0.360022 0.864825
224 2 0.109421 0.867929 0.174587
225 2 0.617348 0.0168645 0.263148
226 2 0.952064 0.226544 0.139812
227 2 0.488148 0.17191 0.716261
228 2 0.0759218 0.790192 0.0742756
229 2 0.964384 0.152046 0.270831
230 2 0.496707 0.0383847 0.744376
231 2 0.510336 0.343342 0.23168
232 2 0.446281 0.0234168 0.368349
233 2 0.981095 0.51676 0.280688
234 2 0.0818273 0.971615 0.373928
235 2 0.511226 0.0907938 0.00504707
236 2 0.59336 0.178868 0.862698
237 2 0.326008 0.424381 0.29937
238 2 0.815999 0.976868 0.526009
239 2 0.0632274 0.810024 0.138204
240 2 0.635581 0.425958 0.316633
241 2 0.252556 0.372344 0.384204
242 2 0.440065 0.923109 0.0574712
243 2 0.572691 0.333602 0.973518
244 2 0.0242144 0.244979 0.0763069
245 2 0.724072 0.222274 0.0363619
246 2 0.969824 0.140505 0.0250415
247 2 0.667297 0.194405 0.403255
248 2 0.107165 0.720316 0.424338
249 2 0.519606 0.119332 0.278242
250 2 0.248202 0.916788 0.806999
251 2 0.428693 0.475979 0.27333
252 2 0.4494 0.282776 0.100587
253 2 0.20113 0.126611 0.291532
254 2 0.969304 0.0762286 0.470713
255 2 0.817138 0.65438 0.436379
256 2 0.00990568 0.359889 0.308738
257 2 0.380372 0.00869952 0.170564
258 2 0.642727 0.270114 0.234052
259 2 0.328565 0.380484 0.121225
260 2 0.161988 0.00116778 0.529384
261 2 0.981111 0.217424 0.912455
262 2 0.436353 0.0366129 0.450184
263 2 0.0490388 0.651564 0.119425
264 2 0.940148 0.221553 0.356572
265 2 0.108849 0.855785 0.950695
266 2 0.215301 0.374936 0.170937
267 2 0.291971 0.101561 0.211657
268 2 0.386577 0.495053 0.555385
269 2 0.281022 0.376244 0.319605
270 2 0.159651 0.325339 0.121954
271 2 0.289933 0.807387 0.270474
272 2 0.051792 0.178484 0.00229574
273 2 0.204266 0.0129831 0.174052
274 2 0.305185 0.0188544 0.963309
275 2 0.440809 0.383851 0.652274
276 2 0.31187 0.409157 0.771958
277 2 0.296558 0.10611 0.808107
278 2 0.0470977 0.186334 0.360105
279 2 0.701412 0.104614 0.336298
280 2 0.256304 0.405722 0.314426
281 2 0.177396 0.235025 0.216397
282 2 0.51758 0.294707 0.320485
283 2 0.552086 0.728632 0.599654
284 2 0.126924 0.0765534 0.32006
285 2 0.320868 0.15537 0.185339
286 2 0.230037 0.524835 0.0968143
287 2 0.0624321 0.235097 0.0695309
288 2 0.821764 0.24814 0.0570074
289 2 0.0193276 0.117178 0.141137
290 2 0.0840086 0.27943 0.323497
291 2 0.500526 0.202684 0.380439
292 2 0.226089 0.380727 0.258559
293 2 0.678373 0.109466 0.396818
294 2 0.104473 0.318425 0.160028
295 2 0.0932268 0.909269 0.602934
296 2 0.884573 0.377105 0.254888
297 2 0.423096 0.286518 0.275109
298 2 0.747033 0.173296 0.906887
299 2 0.0956782 0.639844 0.832796
300 2 0.351186 0.205845 0.948231
301 2 0.984953 0.247746 0.739058
302 2 0.40214 0.103718 0.330388
303 2 0.283167 0.871419 0.415852
304 2 0.897735 0.0707905 0.210375
305 2 0.545339 0.0914564 0.269355
306 2 0.486545 0.50752 0.184549
307 2 0.252485 0.494588 0.574247
308 2 0.943934 0.410732 0.976037
309 2 0.874156 0.276387 0.555422
310 2 0.583809 0.716047 0.378089
311 2 0.295869 0.250772 0.194039
312 2 0.142638 0.235777 0.502733
313 2 0.413412 0.272968 0.396523
314 2 0.398399 0.337998 0.292398
315 2 0.424612 0.835527 0.325572
316 2 0.368122 0.291586 0.501018
317 2 0.134894 0.951925 0.870376
318 2 0.0700619 0.0564446 0.103457
319 2 0.353964 0.0621102 0.0430403
320 2 0.265408 0.322139 0.877967
321 2 0.635926 0.375257 0.289457
322 2 0.241178 0.0747924 0.413899
323 2 0.499952 0.0577315 0.300402
324 2 0.389397 0.159473 0.36007
325 2 0.0629733 0.520086 0.200131
326 2 0.210039 0.188837 0.277588
327 2 0.349317 0.0957821 0.93031
328 2 0.595754 0.420464 0.775343
329 2 0.0639631 0.333448 0.386587
330 2 0.545275 0.293441 0.0181244
331 2 0.132314 0.263512 0.197691
332 2 0.492177 0.568434 0.549305
333 2 0.457048 0.358158 0.141793
334 2 0.559461 0.270904 0.453273
335 2 0.229455 0.200826 0.145368
336 2 0.100154 0.120539 0.949817
337 2 0.245159 0.22223 0.897968
338 2 9.36142e-05 0.143709 0.120775
339 2 0.446114 0.121425 0.796689
340 2 0.463276 0.935913 0.269082
341 2 0.268924 0.301581 0.245578
342 2 0.667961 0.0213408 0.302411
343 2 0.200686 0.671493 0.274864
344 2 0.46991 0.89637 0.271172
345 2 0.725501 0.0931391 0.25751
346 2 0.497318 0.0797066 0.452703
347 2 0.308835 0.0386726 0.371852
348 2 0.168325 0.0897265 0.436545
349 2 0.457015 0.493856 0.397291
350 2 0.405423 0.379136 0.595183
351 2 0.377456 0.857922 0.289051
352 2 0.0285721 0.449502 0.189841
353 2 0.715422 0.256419 0.240653
354 2 0.24469 0.18393 0.445938
355 2 0.126988 0.143876 0.185465
356 2 0.291733 0.0953748 0.379597
357 2 0.551154 0.887437 0.170257
358 2 0.44991 0.0366093 0.132715
359 2 0.252381 0.162563 0.976031
360 2 0.516008 0.437728 0.253098
361 2 0.300351 0.438448 0.345706
362 2 0.0250336 0.284974 0.0850282
363 2 0.729138 0.147386 0.0835478
364 2 0.543784 0.212254 0.242513
365 2 0.998339 0.391015 0.633898
366 2 0.237557 0.455822 0.280755
367 2 0.261364 0.723152 0.966986
368 2 0.524366 0.7866 0.0490133
369 2 0.00383961 0.476922 0.33855
370 2 0.338889 0.125667 0.0166934
371 2 0.21047 0.983158 0.948999
372 2 0.779891 0.5865 0.893109
373 2 0.138939 0.990641 0.500502
374 2 0.393673 0.414225 0.397829
375 2 0.397561 0.0281862 0.0175781
376 2 0.277551 0.425919 0.190141
377 2 0.698756 0.163906 0.248524
378 2 0.511208 0.426562 0.182686
379 2 0.395499 0.122904 0.282417
380 2 0.626026 0.245629 0.285071
381 2 0.34994 0.375946 0.889338
382 2 0.505583 0.361867 0.167594
383 2 0.99075 0.598949 0.0731492
384 2 0.0672524 0.100249 0.956128
385 2 0.0868573 0.601622 0.126247
386 2 0.692569 0.135563 0.0692301
387 2 0.561446 0.282768 0.102752
388 2 0.124549 0.181358 0.258815
389 2 0.422373 0.357021 0.269459
390 2 0.571118 0.198162 0.441589
391 2 0.345068 0.00544926 0.844583
392 2 0.522623 0.99494 0.257161
393 2 0.216545 0.892451 0.282261
394 2 0.987308 0.28202 0.261662
395 2 0.270625 0.976327 0.605669
396 2 0.410917 0.347742 0.779269
397 2 0.36999 0.359696 0.590715
398 2 0.469349 0.671181 0.286787
399 2 0.465988 0.162305 0.080335
400 2 0.731248 0.340264 0.506225
401 2 0.034358 0.852752 0.0236764
402 2 0.98076 0.484881 0.87085
403 2 0.767769 0.0338517 0.581475
404 2 0.416029 0.328627 0.32324
405 2 0.401218 0.240223 0.904776
406 2 0.699233 0.350036 0.341581
407 2 0.203673 0.854972 0.285941
408 2 0.151689 0.177421 0.878337
409 2 0.346581 0.152102 0.42616
410 2 0.0962591 0.173786 0.135225
411 2 0.382448 0.148271 0.879019
412 2 0.161965 0.995544 0.469929
413 2 0.63336 0.203274 0.420138
414 2 0.401384 0.121548 0.363973
415 2 0.155135 0.522938 0.158042
416 2 0.523637 0.0640418 0.841537
417 2 0.149154 0.153236 0.272733
418 2 0.435322 0.0725842 0.287808
419 2 0.143279 0.290004 0.122335
420 2 0.277282 0.15745 0.121012
421 2 0.576433 0.801169 0.154129
422 2 0.0673525 0.0176977 0.0982537
423 2 0.473903 0.0720988 0.27548
424 2 0.167301 0.33934 0.413423
425 2 0.272519 0.368668 0.166106
426 2 0.333662 0.381226 0.00581756
427 2 0.10587 0.0761266 0.101662
428 2 0.82919 0.669443 0.347512
429 2 0.31918 0.0306656 0.0940713
430 2 0.607899 0.299128 0.0144968
431 2 0.245073 0.0727455 0.247055
432 2 0.939086 0.787901 0.613754
433 2 0.456307 0.488281 0.477687
434 2 0.136045 0.129423 0.117742
435 2 0.872293 0.995854 0.244715
436 2 0.129652 0.612394 0.0742137
437 2 0.48568 0.870052 0.412292
438 2 0.150527 0.311546 0.349883
439 2 0.11755 0.365942 0.352315
440 2 0.195781 0.491416 0.24038
441 2 0.326973 0.741807 0.418281
442 2 0.430958 0.171171 0.235744
443 2 0.764978 0.399901 0.33075
444 2 0.466333 0.271431 0.833601
445 2 0.64905 0.241648 0.35386
446 2 0.162027 0.378884 0.186112
447 2 0.0715114 0.156749 0.235388
448 2 0.206998 0.42443 0.220929
449 2 0.186525 0.108596 0.405654
450 2 0.2639 0.332283 0.0195226
451 2 0.354657 0.447808 0.230468
452 2 0.109924 0.407468 0.208509
453 2 0.302899 0.243603 0.495123
454 2 0.868953 0.425089 0.308558
455 2 0.826125 0.45653 0.236269
456 2 0.395148 0.147135 0.0486095
457 2 0.713184 0.681044 0.0444548
458 2 0.102508 0.336647 0.0927545
459 2 0.104653 0.871008 0.613805
460 2 0.511033 0.925228 0.23745
461 2 0.692771 0.322485 0.112661
462 2 0.532077 0.319941 0.768799
463 2 0.86548 0.625555 0.398813
464 2 0.928963 0.388592 0.535281
465 2 0.595635 0.00105186 0.153506
466 2 0.11425 0.958655 0.567185
467 2 0.200844 0.167546 0.190144
468 2 0.450781 0.230534 0.296716
469 2 0.346976 0.958721 0.356671
470 2 0.100234 0.92805 0.0451691
471 2 0.295186 0.20407 0.0774493
472 2 0.208543 0.434376 0.18489
473 2 0.77865 0.827766 0.418043
474 2 0.229001 0.065899 0.820349
475 2 0.294416 0.297713 0.723874
476 2 0.0718744 0.267287 0.178579
477 2 0.153874 0.0667285 0.533516
478 2 0.201017 0.956474 0.220022
479 2 0.474569 0.702259 0.312717
480 2 0.717117 0.414661 0.943203
481 2 0.170292 0.428079 0.0153274
482 2 0.903416 0.171743 0.175971
483 2 0.225052 0.248399 0.648209
484 2 0.66037 0.282558 0.868735
485 2 0.405693 0.471043 0.113941
486 2 0.0604685 0.218107 0.00477917
487 2 0.354282 0.614059 0.392137
488 2 0.474094 0.88234 0.208753
489 2 0.33399 0.268179 0.321904
490 2 0.418203 0.297922 0.424986
491 2 0.330303 0.752268 0.244765
492 2 0.684228 0.776144 0.96395
493 2 0.159849 0.474069 0.904102
494 2 0.210756 0.259064 0.402885
495 2 0.346602 0.210529 0.304279
496 2 0.0126711 0.102395 0.203902
497 2 0.457403 0.743295 0.78851
498 2 0.900595 0.200288 0.230087
499 2 0.208451 0.192186 0.434938
500 2 0.526271 0.170002 0.196695
501 2 0.811435 0.351389 0.963186
502 2 0.100002 0.272774 0.259657
503 2 0.716043 0.177713 0.987616
504 2 0.210562 0.672864 0.0785585
505 2 0.807387 0.291592 0.898811
506 2 0.101783 0.203726 0.339779
507 2 0.153836 0.967789 0.445499
508 2 0.173143 0.341643 0.592538
509 2 0.0709754 0.109538 0.196379
510 2 0.637612 0.857402 0.596999
511 2 0.977862 0.380956 0.0755951
512 2 0.0781922 0.209344 0.369642
513 2 0.265146 0.573362 0.114309
514 2 0.470351 0.41804 0.540983
515 2 0.151453 0.942169 0.332323
516 2 0.483481 0.785511 0.448061
517 2 0.292186 0.140944 0.206636
518 2 0.776264 0.0648931 0.155871
519 2 0.0322752 0.477758 0.110615
520 2 0.753073 0.922675 0.384888
521 2 0.448181 0.336816 0.941493
522 2 0.322631 0.106371 0.156377
523 2 0.174 0.269563 0.937028
524 2 0.459179 0.0791024 0.218001
525 2 0.0580433 0.380463 0.428466
526 2 0.25516 0.523477 0.465661
527 2 0.33384 0.211705 0.0838495
528 2 0.530978 0.19274 0.964765
529 2 0.355478 0.124707 0.451064
530 2 0.283016 0.440467 0.410494
531 2 0.814481 0.0775329 0.210177
532 2 0.770567 0.0390683 0.917433
533 2 0.472588 0.168803 0.57356
534 2 0.282522 0.960803 0.157186
535 2 0.453818 0.859603 0.921108
536 2 0.991208 0.242778 0.310657
537 2 0.14011 0.0120909 0.194109
538 2 0.114861 0.534572 0.389094
539 2 0.0650321 0.762849 0.388415
540 2 0.00705725 0.633262 0.082626
541 2 0.35943 0.0897056 0.223421
542 2 0.357703 0.823118 0.65292
543 2 0.395347 0.878144 0.615162
544 2 0.0325438 0.357507 0.111852
545 2 0.597885 0.366426 0.460518
546 2 0.897862 0.307574 0.037664
547 2 0.0480465 0.304845 0.282384
548 2 0.0384891 0.619461 0.100686
549 2 0.171925 0.703341 0.348751
550 2 0.778361 0.412924 0.894812
551 2 0.128755 0.183423 0.195564
552 2 0.0432265 0.397018 0.114331
553 2 0.249125 0.0481365 0.387896
554 2 0.157806 0.313861 0.76015
555 2 0.174187 0.481441 0.0669658
556 2 0.315619 0.268785 0.134851
557 2 0.540512 0.311663 0.984321
558 2 0.229887 0.143332 0.202525
559 2 0.844713 0.550415 0.125446
560 2 0.460207 0.170864 0.264784
561 2 0.00655112 0.504965 0.162129
562 2 0.0804205 0.119185 0.432501
563 2 0.301458 0.187485 0.258326
564 2 0.0809136 0.272026 0.668301
565 2 0.497837 0.317183 0.477128
566 2 0.94487 0.117716 0.0076706
567 2 0.432995 0.326321 0.054968
568 2 0.381321 0.413913 0.15899
569 2 0.328794 0.0256933 0.240724
570 2 0.164187 0.151555 0.598195
571 2 0.27242 0.479799 0.0817344
572 2 0.270907 0.0730791 0.331068
573 2 0.667656 0.358503 0.747254
574 2 0.0844039 0.112016 0.584831
575 2 0.444431 0.55924 0.0749089
576 2 0.157469 0.0692876 0.370807
577 2 0.319667 0.172782 0.151684
578 2 0.27739 0.105437 0.602798
579 2 0.385888 0.976482 0.461842
580 2 0.527106 0.177945 0.482076
581 2 0.0602378 0.406604 0.177282
582 2 0.239095 0.198802 0.0248444
583 2 0.463187 0.928387 0.396304
584 2 0.930353 0.200221 0.0673713
585 2 0.214559 0.0904023 0.229122
586 2 0.185435 0.174441 0.328513
587 2 0.521588 0.154324 0.0492245
588 2 0.512909 0.556224 0.131598
589 2 0.154753 0.285288 0.377999
590 2 0.139662 0.455752 0.703769
591 2 0.159269 0.557619 0.789037
592 2 0.0755088 0.453062 0.345942
593 2 0.362265 0.769191 0.66794
594 2 0.0865113 0.357357 0.273207
595 2 0.0467641 0.217526 0.305509
596 2 0.86224 0.136339 0.0925782
597 2 0.998911 0.336583 0.116344
598 2 0.361651 0.997275 0.311588
599 2 0.420449 0.137263 0.605469
600 2 0.348788 0.0991127 0.990831
601 2 0.289114 0.897916 0.0825746
602 2 0.0178856 0.123996 0.985951
603 2 0.495187 0.293317 0.26424
604 2 0.982084 0.00872169 0.956893
605 2 0.19709 0.490038 0.573552
606 2 0.308855 0.960217 0.731279
607 2 0.416484 0.26435 0.112082
608 2 0.546574 0.0827114 0.54152
609 2 0.851029 0.47251 0.261203
610 2 0.352341 0.211243 0.618865
611 2 0.316804 0.458291 0.241098
612 2 0.0851715 0.40162 0.0193234
613 2 0.468814 0.398335 0.630167
614 2 0.28201 0.286975 0.30257
615 2 0.912499 0.295784 0.0721955
616 2 0.485198 0.861722 0.122389
617 2 0.29425 0.499329 0.627743
618 2 0.309975 0.275331 0.75074
619 2 0.32703 0.132753 0.254067
620 2 0.965832 0.58526 0.3908
621 2 0.708016 0.349899 0.446375
622 2 0.815799 0.316342 0.842618
623 2 0.194409 0.290381 0.203078
624 2 0.300606 0.636871 0.260183
625 2 0.207837 0.488638 0.660806
626 2 0.0931815 0.209044 0.472738
627 2 0.0270111 0.250628 0.295392
628 2 0.170955 0.410533 0.136849
629 2 0.544385 0.362348 0.338662
630 2 0.189372 0.121665 0.495847
631 2 0.21095 0.303796 0.479428
632 2 0.294542 0.15084 0.243719
633 2 0.624279 0.0676652 0.294745
634 2 0.862006 0.164485 0.397247
635 2 0.399733 0.0595943 0.181272
636 2 0.0642068 0.514581 0.329296
637 2 0.515882 0.608079 0.962635
638 2 0.336382 0.567677 0.326309
639 2 0.497774 0.230285 0.796176
640 2 0.431081 0.30543 0.488895
641 2 0.252409 0.399125 0.862279
642 2 0.884565 0.975591 0.21276
643 2 0.295062 0.457684 0.376457
644 2 0.197892 0.328495 0.0206056
645 2 0.206129 0.283395 0.167392
646 2 0.893958 0.35462 0.198522
647 2 0.19392 0.342868 0.167326
648 2 0.340031 0.0954042 0.255596
649 2 0.891162 0.194012 0.0663784
650 2 0.859711 0.938608 0.0625762
651 2 0.59014 0.619977 0.779336
652 2 0.0270643 0.88349 0.967877
653 2 0.487207 0.437042 0.512338
654 2 0.738778 0.243149 0.955111
655 2 0.173047 0.162121 0.799053
656 2 0.325295 0.140835 0.290511
657 2 0.211996 0.0437886 0.510626
658 2 0.386782 0.34885 0.1707
659 2 0.345719 0.211164 0.402886
660 2 0.597127 0.53254 0.320017
661 2 0.295957 0.693219 0.473509
662 2 0.562803 0.0981248 0.947711
663 2 0.459797 0.0954503 0.739242
664 2 0.222491 0.653851 0.301058
665 2 0.24826 0.340457 0.0819329
666 2 0.589656 0.191187 0.139426
667 2 0.280807 0.188089 0.392637
668 2 0.860952 0.4435 0.411393
669 2 0.17824 0.701434 0.286257
670 2 0.0295907 0.498594 0.318688
671 2 0.455833 0.519601 0.129939
672 2 0.352272 0.160965 0.347136
673 2 0.180462 0.509818 0.51912
674 2 0.154129 0.39148 0.70009
675 2 0.123294 0.305045 0.261356
676 2 0.753391 0.204495 0.526417
677 2 0.000854029 0.236808 0.175315
678 2 0.975481 0.320125 0.0599754
679 2 0.317571 0.390837 0.319902
680 2 0.537528 0.407629 0.844283
681 2 0.325831 0.248937 0.899451
682 2 0.938599 0.392226 0.845214
683 2 0.523506 0.788645 0.307906
684 2 0.154623 0.0380914 0.167601
685 2 0.359604 0.447946 0.896326
686 2 0.920164 0.199985 0.195511
687 2 0.184616 0.658804 0.104306
688 2 0.141149 0.331089 0.0387247
689 2 0.385299 0.41318 0.0475439
690 2 0.282684 0.221057 0.171884
691 2 0.696062 0.389217 0.441492
692 2 0.407597 0.183905 0.302974
693 2 0.0656372 0.291076 0.982958
694 2 0.29454 0.103742 0.43287
695 2 0.193913 0.0187658 0.377378
696 2 0.0237767 0.486063 0.964005
697 2 0.219845 0.00352956 0.622969
698 2 0.125093 0.347295 0.216006
699 2 0.952818 0.212222 0.260545
700 2 0.163367 0.969439 0.0862707
701 2 0.0947488 0.0550557 0.323862
702 2 0.0977341 0.389914 0.329507
703 2 0.43703 0.790873 0.962651
704 2 0.418983 0.263334 0.0520519
705 2 0.156814 0.561111 0.149448
706 2 0.0959562 0.391218 0.175023
707 2 0.146332 0.585355 0.276829
708 2 0.0437102 0.363115 0.920933
709 2 0.237415 0.080723 0.878469
710 2 0.400717 0.642508 0.16269
711 2 0.23333 0.361818 0.485505
712 2 0.0803906 0.51998 0.292602
713 2 0.325584 0.987447 0.192536
714 2 0.513192 0.273776 0.0309752
715 2 0.69937 0.782459 0.657271
716 2 0.219949 0.0386911 0.199367
717 2 0.0267755 0.462321 0.431817
718 2 0.28343 0.475808 0.0212703
719 2 0.914777 0.318687 0.456826
720 2 0.789779 0.858907 0.396424
721 2 0.4469 0.1543 0.343688
722 2 0.194274 0.64277 0.890878
723 2 0.108953 0.138772 0.317177
724 2 0.42115 0.482691 0.75595
725 2 0.0921199 0.93446 0.105279
726 2 0.479858 0.457693 0.310531
727 2 0.187502 0.44566 0.423863
728 2 0.418999 0.154027 0.112649
729 2 0.840875 0.813865 0.408642
730 2 0.384109 0.39403 0.300118
731 2 0.00520555 0.134364 0.490777
732 2 0.418096 0.423573 0.328093
733 2 0.469864 0.299092 0.162703
734 2 0.260165 0.266744 0.199843
735 2 0.875827 0.499071 0.244961
736 2 0.578596 0.0606447 0.370172
737 2 0.724638 0.273106 0.193169
738 2 0.277006 0.46361 0.117421
739 2 0.141435 0.332504 0.853508
740 2 0.216803 0.440986 0.921746
741 2 0.216926 0.539321 0.603485
742 2 0.303101 0.305948 0.963706
743 2 0.952101 0.372485 0.980977
744 2 0.0037787 0.231728 0.0454418
745 2 0.4178 0.139987 0.442731
746 2 0.285683 0.141896 0.437791
747 2 0.0502224 0.00901898 0.0197491
748 2 0.774787 0.059867 0.263494
749 2 0.434452 0.237986 0.236365
750 2 0.359115 0.239987 0.685814
751 2 0.0370328 0.270566 0.230119
752 2 0.408839 0.3552 0.0451694
753 2 0.249203 0.255775 0.534633
754 2 0.438344 0.104724 0.524554
755 2 0.380211 0.563329 0.36605
756 2 0.429821 0.173047 0.172611
757 2 0.428427 0.626343 0.541955
758 2 0.831903 0.990346 0.18011
759 2 0.0656603 0.581476 0.318327
760 2 0.477047 0.15362 0.141068
761 2 0.0478482 0.255958 0.828068
762 2 0.95692 0.3825 0.334729
763 2 0.368031 0.427715 0.949412
764 2 0.443347 0.608356 0.280298
765 2 0.177965 0.41946 0.480054
766 2 0.0219599 0.914808 0.0249752
767 2 0.975568 0.638721 0.925114
768 2 0.00475072 0.47457 0.136858
769 2 0.346235 0.28618 0.117267
770 2 0.157438 0.348815 0.156533
771 2 0.243027 0.100019 0.340059
772 2 0.262199 0.219604 0.136005
773 2 0.863842 0.115032 0.491635
774 2 0.151916 0.207479 0.638183
775 2 0.286277 0.95756 0.464671
776 2 0.217034 0.243853 0.879508
777 2 0.0099263 0.966947 0.0466163
778 2 0.344535 0.553717 0.268588
779 2 0.0557603 0.047206 0.190306
780 2 0.380811 0.345358 0.987286
781 2 0.584661 0.390723 0.488343
782 2 0.0447778 0.358768 0.226666
783 2 0.966787 0.444663 0.0900911
784 2 0.24562 0.132921 0.0440407
785 2 0.091311 0.378635 0.137367
786 2 0.410865 0.330341 0.193017
787 2 0.305929 0.991981 0.785112
788 2 0.481278 0.393502 0.473058
789 2 0.158243 0.392119 0.251533
790 2 0.277211 0.677694 0.374093
791 2 0.224911 0.142054 0.092415
792 2 0.275014 0.287744 0.443199
793 2 0.0492493 0.0888744 0.882966
794 2 0.46377 0.960784 0.300201
795 2 0.0404893 0.332711 0.0470891
796 2 0.341264 0.293401 0.472127
797 2 0.367664 0.61677 0.165642
798 2 0.153708 0.790884 0.0106551
799 2 0.203499 0.121176 0.25282
800 2 0.718178 0.876651 0.334543
801 2 0.473588 0.978064 0.0808903
802 2 0.555499 0.335673 0.191018
803 2 0.294258 0.515532 0.23148
804 2 0.0783872 0.201438 0.437719
805 2 0.224722 0.109494 0.413617
806 2 0.345827 0.279171 0.0502663
807 2 0.148021 0.443674 0.133765
808 2 0.327956 0.40408 0.615668
809 2 0.0314019 0.177274 0.0335321
810 2 0.238824 0.34668 0.27228
811 2 0.389017 0.349204 0.480442
812 2 0.309489 0.0610644 0.11561
813 2 0.0450729 0.108091 0.591288
814 2 0.362807 0.379139 0.482873
815 2 0.257571 0.0207204 0.414423
816 2 0.0317847 0.451344 0.082513
817 2 0.196377 0.31086 0.754252
818 2 0.108299 0.497694 0.0661317
819 2 0.189108 0.824221 0.515405
820 2 0.0917889 0.24739 0.0940708
821 2 0.680348 0.259942 0.919868
822 2 0.503373 0.149601 0.470562
823 2 0.00191151 0.221773 0.0991048
824 2 0.49314 0.278427 0.656042
825 2 0.392537 0.0792123 0.758515
826 2 0.786394 0.441259 0.125399
827 2 0.137377 0.547881 0.960024
828 2 0.471755 0.628083 0.332534
829 2 0.17218 0.0512578 0.431775
830 2 0.112806 0.402828 0.505537
831 2 0.0315854 0.186776 0.200648
832 2 0.299927 0.196729 0.330184
833 2 0.955795 0.177108 0.0843338
834 2 0.713399 0.801307 0.370881
835 2 0.720215 0.203964 0.904771
836 2 0.394229 0.394403 0.336201
837 2 0.119694 0.167402 0.340176
838 2 0.578143 0.493025 0.0858164
839 2 0.328741 0.893215 0.936937
840 2 0.49536 0.318038 0.116203
841 2 0.624454 0.461082 0.525077
842 2 0.954628 0.263083 0.0513708
843 2 0.206509 0.64753 0.2038
844 2 0.535745 0.150846 0.258701
845 2 0.903792 0.211216 0.371633
846 2 0.489398 0.829369 0.346075
847 2 0.111262 0.985206 0.976501
848 2 0.158365 0.171802 0.466933
849 2 0.460135 0.36744 0.495192
850 2 0.816613 0.205955 0.80815
851 2 0.398103 0.0845747 0.470018
852 2 0.547418 0.329929 0.284782
853 2 0.0517 0.234648 0.616255
854 2 0.139096 0.429199 0.645339
855 2 0.355993 0.137379 0.486754
856 2 0.428202 0.202369 0.0662067
857 2 0.000338018 0.30582 0.994774
858 2 0.32099 0.36651 0.944224
859 2 0.18677 0.351722 0.444458
860 2 0.610853 0.0337064 0.0945818
861 2 0.253151 0.0541757 0.602539
862 2 0.112846 0.414633 0.803902
863 2 0.395569 0.712526 0.878629
864 2 0.105235 0.33939 0.0276543
865 2 0.766858 0.291009 0.313112
866 2 0.272155 0.350241 0.291917
867 2 0.433006 0.53133 0.351797
868 2 0.903288 0.130938 0.800605
869 2 0.514682 0.506868 0.478216
870 2 0.18733 0.242054 0.120604
871 2 0.943467 0.382025 0.160756
872 2 0.96835 0.191429 0.766032
873 2 0.496434 0.326681 0.517006
874 2 0.928684 0.161852 0.284263
875 2 0.461287 0.188204 0.153398
876 2 0.281824 0.33816 0.0995617
877 2 0.23211 0.31089 0.256687
878 2 0.140919 0.297269 0.628898
879 2 0.968 0.280234 0.106997
880 2 0.273044 0.219465 0.809226
881 2 0.196227 0.85081 0.599928
882 2 0.202047 0.261804 0.227441
883 2 0.165152 0.379573 0.937869
884 2 0.233906 0.112016 0.527978
885 2 0.930715 0.443515 0.418845
886 2 0.220713 0.368314 0.983845
887 2 0.00940351 0.290942 0.20694
888 2 0.99309 0.30687 0.335722
889 2 0.90146 0.201514 0.124357
890 2 0.578125 0.21052 0.259677
891 2 0.0776899 0.914342 0.420473
892 2 0.244443 0.434711 0.167589
893 2 0.997139 0.153915 0.290719
894 2 0.928162 0.974273 0.417829
895 2 0.73537 0.341568 0.904867
896 2 0.146883 0.494873 0.429712
897 2 0.0689765 0.325279 0.22957
898 2 0.192082 0.130559 0.0744093
899 2 0.215206 0.183077 0.240463
900 2 0.282118 0.272812 0.267208
901 2 0.153988 0.296212 0.204331
902 2 0.281827 0.406332 0.470896
903 2 0.387537 0.19451 0.444982