ITEM: TIMESTEP
420767
ITEM: NUMBER OF ATOMS
12500
ITEM: BOX BOUNDS pp pp pp
-1.1465450808472910e+00 5.9067728687022772e+01
-1.1465450808472910e+00 5.9067728687022772e+01
-1.1465450808472910e+00 7.9324298796112984e+01
ITEM: ATOMS id type xs ys zs
1 2 0.374041 0.034671 0.564878
2 2 0.108089 0.109306 0.407074
3 2 0.22912 0.924368 0.189181
4 2 0.1085 0.00340143 0.33846
5 2 0.0951233 0.100174 0.147355
6 2 0.376573 0.396188 0.271387
7 2 0.39717 0.24164 0.374739
8 2 0.67175 0.889589 0.265579
9 2 0.194975 0.990254 0.729348
10 2 0.522529 0.224874 0.431133
11 2 0.453697 0.114544 0.546263
12 2 0.858893 0.44569 0.40739
13 2 0.0625705 0.286315 0.319569
14 2 0.238551 0.244454 0.298948
15 2 0.125613 0.483182 0.706478
16 2 0.261434 0.390336 0.439095
17 2 0.156679 0.29874 0.849463
18 2 0.40863 0.230688 0.251161
19 2 0.426603 0.44723 0.517698
20 2 0.824359 0.41772 0.697187
21 2 0.958452 0.291048 0.247924
22 2 0.116228 0.169519 0.138759
23 2 0.715285 0.447513 0.849993
24 2 0.0912718 0.276069 0.400136
25 2 0.405914 0.241229 0.892568
26 2 0.624732 0.392186 0.581187
27 2 0.294025 0.117612 0.841512
28 2 0.391072 0.11255 0.460369
29 2 0.999238 0.18661 0.883846
30 2 0.273247 0.141376 0.481656
31 2 0.202765 0.0767034 0.280804
32 2 0.0411098 0.477035 0.345749
33 2 0.381197 0.17779 0.176414
34 2 0.740536 0.615609 0.204915
35 2 0.279485 0.178639 0.393662
36 2 0.33832 0.195062 0.38169
37 2 0.11979 0.0133603 0.434708
38 2 0.926781 0.619543 0.346136
39 2 0.242334 0.457107 0.23246
40 2 0.876498 0.834826 0.395632
41 2 0.795846 0.219751 0.401507
42 2 0.419026 0.392607 0.336701
43 2 0.291749 0.357187 0.688959
44 2 0.743 0.230362 0.600747
45 2 0.179066 0.943541 0.525416
46 2 0.440877 0.528452 0.525778
47 2 0.0373223 0.403216 0.852923
48 2 0.325278 0.292286 0.433858
49 2 0.146366 0.904689 0.122391
50 2 0.212975 0.158696 0.414122
51 2 0.82308 0.343782 0.444975
52 2 0.384046 0.217951 0.354574
53 2 0.227794 0.220912 0.387982
54 2 0.316162 0.514063 0.836363
55 2 0.00722567 0.420747 0.766471
56 2 0.693758 0.290462 0.20695
57 2 0.502048 0.440229 0.875429
58 2 0.348115 0.46954 0.257342
59 2 0.918363 0.0867031 0.777776
60 2 0.748374 0.371049 0.35837
61 2 0.399386 0.248281 0.184066
62 2 0.171489 0.424599 0.305566
63 2 0.0632576 0.28523 0.183898
64 2 0.72376 0.108462 0.246712
65 2 0.189577 0.485649 0.356724
66 2 0.360234 0.499286 0.239689
67 2 0.346154 0.418901 0.542516
68 2 0.28489 0.489132 0.404317
69 2 0.708347 0.556519 0.621516
70 2 0.143211 0.44507 0.180693
71 2 0.802336 0.374527 0.45611
72 2 0.152002 0.368788 0.377112
73 2 0.306375 0.0242259 0.153649
74 2 0.155115 0.285051 0.876506
75 2 0.225866 0.386544 0.640617
76 2 0.689293 0.329787 0.598786
77 2 0.0115292 0.310783 0.335792
78 2 0.057182 0.118358 0.473205
79 2 0.108455 0.658749 0.273506
80 2 0.592763 0.925916 0.236247
81 2 0.231962 0.143613 0.308085
82 2 0.209793 0.429235 0.839699
83 2 0.467431 0.318526 0.153994
84 2 0.154576 0.453595 0.321324
85 2 0.356683 0.232244 0.287863
86 2 0.319739 0.20713 0.953303
87 2 0.265931 0.1197 0.402668
88 2 0.295847 0.131994 0.362678
89 2 0.275902 0.292963 0.487606
90 2 0.0167972 0.208937 0.224834
91 2 0.0532292 0.232692 0.455086
92 2 0.278735 0.573487 0.567515
93 2 0.292452 0.269012 0.394557
94 2 0.451963 0.202475 0.591076
95 2 0.366829 0.00651504 0.302855
96 2 0.279421 0.0611692 0.402576
97 2 0.659924 0.150951 0.389227
98 2 0.53984 0.392075 0.854746
99 2 0.992202 0.419731 0.541324
100 2 0.140553 0.221093 0.869337
101 2 0.341029 0.174823 0.285133
102 2 0.618124 0.0658755 0.407982
103 2 0.674372 0.084089 0.249109
104 2 0.70396 0.957817 0.415379
105 2 0.419362 0.177516 0.382803
106 2 0.299365 0.620406 0.545157
107 2 0.138175 0.139469 0.14869
108 2 0.256606 0.519906 0.339258
109 2 0.298241 0.369602 0.198392
110 2 0.319034 0.410449 0.233752
111 2 0.964602 0.168733 0.754428
112 2 0.156531 0.222687 0.438572
113 2 0.438559 0.46727 0.541638
114 2 0.349393 0.969105 0.312477
115 2 0.196175 0.367628 0.176906
116 2 0.304751 0.483178 0.511088
117 2 0.754864 0.464175 0.291485
118 2 0.134768 0.434069 0.368
119 2 0.294877 0.822018 0.464589
120 2 0.706235 0.137045 0.28855
121 2 0.834556 0.855768 0.734571
122 2 0.144385 0.95341 0.333066
123 2 0.956583 0.251179 0.959059
124 2 0.369049 0.358895 0.346696
125 2 0.316989 0.0398601 0.436432
126 2 0.456247 0.484816 0.641656
127 2 0.150644 0.613225 0.157615
128 2 0.11393 0.122829 0.281459
129 2 0.264008 0.379188 0.529549
130 2 0.157037 0.242052 0.145521
131 2 0.437354 0.906369 0.411631
132 2 0.268413 0.0749917 0.458298
133 2 0.176576 0.108051 0.694515
134 2 0.446902 0.459944 0.437425
135 2 0.339067 0.0723339 0.256436
136 2 0.392932 0.467057 0.339513
137 2 0.778042 0.171673 0.876451
138 2 0.579691 0.462139 0.358803
139 2 0.193991 0.21262 0.374357
140 2 0.415112 0.0480076 0.767052
141 2 0.256813 0.0192423 0.223555
142 2 0.365204 0.997317 0.557238
143 2 0.050747 0.263619 0.231675
144 2 0.70422 0.238459 0.857899
145 2 0.498375 0.550008 0.344455
146 2 0.281247 0.144648 0.739356
147 2 0.464615 0.0144091 0.31329
148 2 0.116682 0.222048 0.846713
149 2 0.0656289 0.2086 0.189497
150 2 0.542107 0.082789 0.301257
151 2 0.562667 0.416605 0.870536
152 2 0.52653 0.128417 0.215978
153 2 0.15682 0.42499 0.407663
154 2 0.320648 0.258934 0.322167
155 2 0.859288 0.353898 0.272968
156 2 0.0725752 0.146272 0.357899
157 2 0.0694789 0.33495 0.352833
158 2 0.377503 0.792001 0.584514
159 2 0.339096 0.192079 0.331563
160 2 0.745216 0.36664 0.855925
161 2 0.389279 0.845998 0.22289
162 2 0.181497 0.272689 0.321499
163 2 0.0601638 0.386446 0.378008
164 2 0.353195 0.149748 0.536574
165 2 0.787907 0.326691 0.240584
166 2 0.328343 0.16017 0.500175
167 2 0.130022 0.615433 0.44886
168 2 0.601738 0.938275 0.546779
169 2 0.225371 0.512992 0.412835
170 2 0.642456 0.575713 0.319907
171 2 0.0309745 0.153689 0.0776316
172 2 0.971848 0.166424 0.868124
173 2 0.511478 0.232527 0.669451
174 2 0.239285 0.498023 0.437163
175 2 0.294942 0.0523375 0.764307
176 2 0.146897 0.333347 0.181068
177 2 0.487652 0.362759 0.319774
178 2 0.290009 0.251401 0.611063
179 2 0.291744 0.385836 0.456292
180 2 0.300315 0.941294 0.144786
181 2 0.402196 0.864684 0.403078
182 2 0.322286 0.492128 0.468871
183 2 0.339189 0.386572 0.30822
184 2 0.302134 0.436443 0.330557
185 2 0.159088 0.244491 0.263509
186 2 0.452438 0.399306 0.233135
187 2 0.309765 0.4001 0.393141
188 2 0.290241 0.210836 0.826191
189 2 0.896555 0.539061 0.934308
190 2 0.319793 0.0349976 0.33465
191 2 0.248969 0.781316 0.434528
192 2 0.803867 0.149504 0.86322
193 2 0.128478 0.582953 0.309129
194 2 0.536354 0.184311 0.588933
195 2 0.195221 0.40524 0.184255
196 2 0.489858 0.400499 0.225808
197 2 0.10161 0.255119 0.83483
198 2 0.384515 0.157229 0.152293
199 2 0.544064 0.340452 0.315206
200 2 0.148734 0.248744 0.195008
201 2 0.459598 0.0692289 0.260258
202 2 0.740368 0.478361 0.843149
203 2 0.471975 0.748346 0.430798
204 2 0.224709 0.0128241 0.452439
205 2 0.344598 0.360903 0.369534
206 2 0.262063 0.0417449 0.359044
207 2 0.597045 0.144298 0.183352
208 2 0.219709 0.197126 0.26387
209 2 0.199139 0.366367 0.90267
210 2 0.454468 0.129238 0.217336
211 2 0.111053 0.377941 0.347954
212 2 0.310223 0.942011 0.802194
213 2 0.821662 0.19818 0.512569
214 2 0.151033 0.227506 0.919544
215 2 0.256549 0.443503 0.806314
216 2 0.425976 0.411441 0.214249
217 2 0.175529 0.341721 0.38982
218 2 0.0946271 0.995012 0.452251
219 2 0.380073 0.813698 0.148244
220 2 0.115916 0.955781 0.416119
221 2 0.275002 0.0618876 0.515752
222 2 0.0984773 0.203364 0.430384
223 2 0.195217 0.359341 0.774067
224 2 0.110021 0.868697 0.256744
225 2 0.617919 0.0178774 0.325299
226 2 0.983272 0.227748 0.215788
227 2 0.488363 0.171192 0.664127
228 2 0.0779878 0.791673 0.182654
229 2 0.964763 0.152306 0.327844
230 2 0.496994 0.0385392 0.686637
231 2 0.510044 0.341031 0.302104
232 2 0.447968 0.0218813 0.401581
233 2 0.982016 0.51699 0.337697
234 2 0.0827777 0.972806 0.406949
235 2 0.500394 0.0880162 0.115166
236 2 0.593599 0.177857 0.771528
237 2 0.32735 0.424234 0.351594
238 2 0.813217 0.976885 0.52095
239 2 0.0646132 0.811479 0.229572
240 2 0.635634 0.424023 0.36515
241 2 0.252856 0.371187 0.414471
242 2 0.436291 0.927183 0.171077
243 2 0.570804 0.333576 0.854929
244 2 0.0105426 0.240189 0.170364
245 2 0.720182 0.226915 0.902396
246 2 0.960273 0.139808 0.142502
247 2 0.669489 0.195511 0.428412
248 2 0.107767 0.719937 0.444471
249 2 0.519104 0.119516 0.335748
250 2 0.247141 0.917203 0.731838
251 2 0.430044 0.476459 0.332963
252 2 0.448617 0.279718 0.202187
253 2 0.20219 0.127524 0.347321
254 2 0.969456 0.0775218 0.478199
255 2 0.818514 0.655188 0.454124
256 2 0.0102114 0.359181 0.360427
257 2 0.381501 0.00654147 0.25294
258 2 0.642849 0.269352 0.300411
259 2 0.327643 0.377382 0.21859
260 2 0.161222 0.00213563 0.524371
261 2 0.976741 0.228506 0.807014
262 2 0.437685 0.0365109 0.46381
263 2 0.0491795 0.649229 0.21582
264 2 0.941636 0.222761 0.391168
265 2 0.117973 0.869449 0.840663
266 2 0.212377 0.372141 0.255291
267 2 0.290978 0.100388 0.287489
268 2 0.387177 0.494377 0.543096
269 2 0.282142 0.375753 0.36602
270 2 0.160302 0.317123 0.204891
271 2 0.290052 0.807561 0.329787
272 2 0.0437731 0.181972 0.124543
273 2 0.205202 0.016557 0.256667
274 2 0.312752 0.0142892 0.0948082
275 2 0.440199 0.38347 0.615833
276 2 0.3131 0.408075 0.705158
277 2 0.293794 0.108296 0.733223
278 2 0.0490124 0.189693 0.400882
279 2 0.702932 0.106124 0.377066
280 2 0.257822 0.405607 0.36409
281 2 0.175535 0.234316 0.288305
282 2 0.515998 0.2935 0.368943
283 2 0.55317 0.728529 0.575469
284 2 0.128783 0.0766045 0.36587
285 2 0.32185 0.151798 0.267338
286 2 0.226746 0.524089 0.203059
287 2 0.0422562 0.218634 0.168356
288 2 0.818748 0.251235 0.911007
289 2 0.0147111 0.121826 0.229124
290 2 0.0851084 0.279477 0.370789
291 2 0.501113 0.202126 0.413195
292 2 0.226189 0.379562 0.323104
293 2 0.678882 0.111968 0.422775
294 2 0.103071 0.326961 0.226747
295 2 0.0938929 0.908986 0.580142
296 2 0.88297 0.378359 0.313257
297 2 0.426969 0.286411 0.327006
298 2 0.746492 0.173135 0.80532
299 2 0.0994177 0.636783 0.752346
300 2 0.351606 0.207204 0.835865
301 2 0.98495 0.247736 0.681927
302 2 0.40427 0.103156 0.375735
303 2 0.282502 0.870636 0.439618
304 2 0.897608 0.0720596 0.28296
305 2 0.544968 0.0917602 0.329183
306 2 0.48729 0.506037 0.265443
307 2 0.252908 0.493441 0.557332
308 2 0.943611 0.406722 0.855221
309 2 0.872914 0.275728 0.543296
310 2 0.584434 0.716668 0.411693
311 2 0.295723 0.248823 0.274969
312 2 0.143387 0.236446 0.504223
313 2 0.413875 0.272733 0.426181
314 2 0.400812 0.337155 0.34668
315 2 0.425407 0.834806 0.372826
316 2 0.36859 0.291406 0.502356
317 2 0.133311 0.95317 0.778511
318 2 0.0690446 0.0602732 0.205864
319 2 0.341544 0.0790984 0.130239
320 2 0.265341 0.32214 0.785243
321 2 0.636247 0.373429 0.343243
322 2 0.241565 0.074873 0.437561
323 2 0.500072 0.0570856 0.352528
324 2 0.390931 0.158706 0.398104
325 2 0.0629043 0.519446 0.278512
326 2 0.211155 0.188302 0.336461
327 2 0.344795 0.0839367 0.840629
328 2 0.595556 0.421385 0.707572
329 2 0.0645977 0.333913 0.418206
330 2 0.544355 0.283395 0.883683
331 2 0.130525 0.267196 0.274189
332 2 0.49222 0.567812 0.537908
333 2 0.469204 0.365526 0.227373
334 2 0.560242 0.270114 0.466955
335 2 0.240938 0.205139 0.219726
336 2 0.0667241 0.163814 0.894645
337 2 0.243943 0.222482 0.800972
338 2 0.993848 0.149885 0.214607
339 2 0.446857 0.120172 0.725862
340 2 0.463694 0.934491 0.33189
341 2 0.268482 0.300319 0.311588
342 2 0.668125 0.0215758 0.353954
343 2 0.200983 0.671104 0.333669
344 2 0.469889 0.895313 0.331971
345 2 0.727027 0.0949691 0.320161
346 2 0.497752 0.0794779 0.465935
347 2 0.309342 0.0385537 0.406359
348 2 0.168619 0.0903285 0.455687
349 2 0.457286 0.494202 0.425905
350 2 0.405501 0.378963 0.572341
351 2 0.377183 0.855423 0.347496
352 2 0.0311911 0.447375 0.270664
353 2 0.716696 0.256577 0.305383
354 2 0.245111 0.184672 0.460445
355 2 0.127923 0.150302 0.262469
356 2 0.292704 0.0945447 0.41213
357 2 0.554427 0.890946 0.254507
358 2 0.444369 0.0387661 0.221496
359 2 0.246904 0.162646 0.857255
360 2 0.515901 0.437872 0.318225
361 2 0.30202 0.437629 0.38821
362 2 0.0402294 0.264413 0.165437
363 2 0.727531 0.163752 0.936745
364 2 0.544031 0.212549 0.308996
365 2 1.71662e-05 0.391497 0.601127
366 2 0.239203 0.45551 0.33792
367 2 0.263721 0.729991 0.109355
368 2 0.524274 0.790967 0.166274
369 2 0.00406307 0.476929 0.381822
370 2 0.352632 0.127653 0.102433
371 2 0.207623 0.992868 0.095115
372 2 0.779404 0.584867 0.795548
373 2 0.138198 0.990543 0.502403
374 2 0.39454 0.414455 0.425442
375 2 0.388516 0.0350849 0.132771
376 2 0.279001 0.422765 0.270046
377 2 0.700882 0.164456 0.310243
378 2 0.511694 0.427491 0.266426
379 2 0.391594 0.122236 0.330829
380 2 0.626367 0.245286 0.33924
381 2 0.351296 0.375425 0.793931
382 2 0.508159 0.361644 0.256318
383 2 0.988006 0.600108 0.182519
384 2 0.0642561 0.102781 0.0940632
385 2 0.0871037 0.596828 0.21891
386 2 0.701239 0.140349 0.923474
387 2 0.565634 0.268949 0.200606
388 2 0.124909 0.169362 0.317074
389 2 0.422553 0.355981 0.327602
390 2 0.571587 0.196846 0.457493
391 2 0.343202 0.00694393 0.761266
392 2 0.522669 0.995196 0.32026
393 2 0.216311 0.891825 0.33866
394 2 0.996529 0.284078 0.318424
395 2 0.268579 0.974536 0.580347
396 2 0.408883 0.3444 0.709288
397 2 0.370561 0.359718 0.569234
398 2 0.471031 0.670784 0.341312
399 2 0.466779 0.151541 0.192785
400 2 0.731935 0.339275 0.504485
401 2 0.0345367 0.852792 0.14458
402 2 0.980599 0.482737 0.778396
403 2 0.768009 0.0318702 0.56461
404 2 0.421128 0.329448 0.370396
405 2 0.401806 0.240142 0.805466
406 2 0.700553 0.349764 0.382011
407 2 0.20396 0.854569 0.340775
408 2 0.150939 0.179833 0.785034
409 2 0.345362 0.152269 0.443984
410 2 0.0926533 0.177836 0.227326
411 2 0.380257 0.145145 0.787699
412 2 0.161667 0.995864 0.479145
413 2 0.635588 0.203733 0.441441
414 2 0.402922 0.121314 0.401286
415 2 0.153155 0.52042 0.24719
416 2 0.523476 0.0631622 0.760374
417 2 0.152246 0.151646 0.332164
418 2 0.434987 0.0701001 0.343477
419 2 0.137019 0.286109 0.202454
420 2 0.270371 0.177149 0.974797
421 2 0.575556 0.80295 0.24401
422 2 0.0660595 0.0217028 0.201069
423 2 0.473342 0.0714119 0.3341
424 2 0.167716 0.339237 0.437343
425 2 0.274286 0.3656 0.248854
426 2 0.335665 0.386211 0.873399
427 2 0.103435 0.0815911 0.205064
428 2 0.830498 0.670113 0.386176
429 2 0.316744 0.0394791 0.194887
430 2 0.604784 0.301821 0.883095
431 2 0.240943 0.0728449 0.314993
432 2 0.939625 0.785681 0.587924
433 2 0.457457 0.487798 0.48579
434 2 0.134279 0.133564 0.214876
435 2 0.872869 0.996864 0.309075
436 2 0.126494 0.601826 0.177948
437 2 0.485999 0.870423 0.437146
438 2 0.150979 0.311448 0.389935
439 2 0.11836 0.36559 0.391828
440 2 0.196373 0.491014 0.308119
441 2 0.326988 0.741335 0.44141
442 2 0.424147 0.169258 0.30183
443 2 0.765822 0.400382 0.373693
444 2 0.466608 0.270246 0.75131
445 2 0.650375 0.241635 0.391296
446 2 0.163712 0.379955 0.272986
447 2 0.0700553 0.160847 0.300315
448 2 0.207518 0.423383 0.295652
449 2 0.187259 0.109079 0.432993
450 2 0.253017 0.33269 0.891803
451 2 0.354646 0.446748 0.300084
452 2 0.111405 0.405398 0.284245
453 2 0.30346 0.243906 0.49729
454 2 0.870801 0.425493 0.355855
455 2 0.825923 0.457639 0.302202
456 2 0.388168 0.16269 0.124067
457 2 0.712599 0.683003 0.159666
458 2 0.116653 0.309075 0.183777
459 2 0.105348 0.870812 0.587124
460 2 0.50722 0.923311 0.303435
461 2 0.683306 0.326497 0.214076
462 2 0.531071 0.317745 0.700703
463 2 0.866125 0.626061 0.425864
464 2 0.931201 0.388373 0.526312
465 2 0.596559 0.00344608 0.242393
466 2 0.113603 0.95857 0.551934
467 2 0.201337 0.165745 0.272506
468 2 0.45157 0.229872 0.349193
469 2 0.348145 0.960548 0.396321
470 2 0.100359 0.929443 0.160836
471 2 0.291872 0.199367 0.934911
472 2 0.209999 0.432193 0.267725
473 2 0.78017 0.828845 0.440625
474 2 0.22707 0.0654592 0.743093
475 2 0.299007 0.297741 0.670305
476 2 0.0710479 0.283577 0.252401
477 2 0.154865 0.0683144 0.528072
478 2 0.20252 0.957821 0.291709
479 2 0.475016 0.702196 0.36084
480 2 0.716632 0.414588 0.831468
481 2 0.16545 0.431208 0.869325
482 2 0.904126 0.175569 0.253671
483 2 0.225757 0.24881 0.613231
484 2 0.660766 0.281697 0.77568
485 2 0.405737 0.471341 0.212885
486 2 0.0341481 0.221046 0.126708
487 2 0.353851 0.613885 0.422491
488 2 0.466142 0.878845 0.284824
489 2 0.335179 0.267763 0.368262
490 2 0.418741 0.298391 0.447414
491 2 0.330575 0.753298 0.311022
492 2 0.694117 0.787762 0.108552
493 2 0.160311 0.474966 0.800481
494 2 0.211816 0.259589 0.4293
495 2 0.347045 0.210669 0.355986
496 2 0.01482 0.103968 0.27731
497 2 0.457483 0.744035 0.717864
498 2 0.903541 0.201139 0.29718
499 2 0.20846 0.192429 0.453546
500 2 0.526954 0.168845 0.276235
501 2 0.808713 0.350361 0.845317
502 2 0.099502 0.27016 0.323444
503 2 0.718146 0.176734 0.866224
504 2 0.211866 0.67356 0.187588
505 2 0.809311 0.29118 0.797141
506 2 0.102184 0.203064 0.382332
507 2 0.153095 0.967063 0.461394
508 2 0.173669 0.340927 0.571147
509 2 0.0787008 0.111318 0.270191
510 2 0.638275 0.855899 0.57446
511 2 0.973491 0.383457 0.933641
512 2 0.0791146 0.212734 0.405667
513 2 0.266958 0.572808 0.214736
514 2 0.471015 0.417465 0.533578
515 2 0.152069 0.942714 0.376357
516 2 0.483594 0.785557 0.463363
517 2 0.292252 0.139493 0.283313
518 2 0.775665 0.0659391 0.243461
519 2 0.0478236 0.465935 0.221419
520 2 0.753485 0.923619 0.417122
521 2 0.447606 0.335124 0.829689
522 2 0.325085 0.103742 0.243918
523 2 0.172901 0.272788 0.830196
524 2 0.459611 0.077497 0.289797
525 2 0.0580613 0.3805 0.449358
526 2 0.255182 0.52383 0.477024
527 2 0.347131 0.196553 0.18189
528 2 0.532081 0.190397 0.849872
529 2 0.354948 0.124254 0.462829
530 2 0.279677 0.441127 0.435434
531 2 0.814987 0.0777699 0.284859
532 2 0.766889 0.0366874 0.813309
533 2 0.47379 0.168056 0.557447
534 2 0.281856 0.963882 0.242126
535 2 0.450902 0.861225 0.817553
536 2 0.994345 0.245723 0.359101
537 2 0.142101 0.0159886 0.272092
538 2 0.116048 0.534176 0.418363
539 2 0.0670634 0.764713 0.417712
540 2 0.00830934 0.632114 0.189186
541 2 0.359886 0.087189 0.296167
542 2 0.358537 0.82353 0.616923
543 2 0.394414 0.879145 0.587405
544 2 0.0342899 0.34812 0.182783
545 2 0.594372 0.365121 0.473002
546 2 0.900465 0.307354 0.904279
547 2 0.0489626 0.306417 0.341808
548 2 0.0403612 0.616335 0.201481
549 2 0.173249 0.704004 0.388153
550 2 0.778141 0.413054 0.795354
551 2 0.126378 0.188438 0.271779
552 2 0.0351328 0.380513 0.197646
553 2 0.249751 0.0475117 0.418313
554 2 0.157875 0.311875 0.694883
555 2 0.171683 0.472283 0.184146
556 2 0.310517 0.261992 0.225937
557 2 0.54011 0.309932 0.861301
558 2 0.229172 0.139519 0.27929
559 2 0.833818 0.552848 0.219585
560 2 0.436682 0.161731 0.328277
561 2 0.00715181 0.503389 0.248828
562 2 0.079595 0.121978 0.449452
563 2 0.302497 0.185815 0.32175
564 2 0.0814413 0.271514 0.627401
565 2 0.497639 0.317521 0.48518
566 2 0.935111 0.114959 0.13205
567 2 0.434042 0.324371 0.168506
568 2 0.381661 0.413579 0.245651
569 2 0.330468 0.0195953 0.308416
570 2 0.165194 0.152269 0.578548
571 2 0.270696 0.480546 0.192148
572 2 0.271792 0.0730437 0.375193
573 2 0.667606 0.358309 0.682333
574 2 0.0847423 0.111677 0.565648
575 2 0.445396 0.559888 0.183382
576 2 0.158534 0.0695039 0.405677
577 2 0.31409 0.168135 0.241589
578 2 0.278219 0.10523 0.579771
579 2 0.386068 0.97587 0.47334
580 2 0.528075 0.176965 0.488808
581 2 0.0624673 0.397503 0.261197
582 2 0.238672 0.201053 0.887874
583 2 0.464323 0.928598 0.42413
584 2 0.921147 0.210368 0.949862
585 2 0.201735 0.0840962 0.309707
586 2 0.185235 0.174826 0.374507
587 2 0.519896 0.14288 0.169436
588 2 0.514401 0.555557 0.227759
589 2 0.155434 0.284897 0.411045
590 2 0.140095 0.455179 0.652738
591 2 0.1587 0.556428 0.716524
592 2 0.0759474 0.452845 0.387492
593 2 0.362358 0.769728 0.627418
594 2 0.0864186 0.355701 0.332282
595 2 0.0485077 0.219491 0.357766
596 2 0.839834 0.162493 0.962742
597 2 0.00985151 0.33314 0.951551
598 2 0.361776 0.997502 0.359328
599 2 0.420858 0.136988 0.581541
600 2 0.349831 0.097463 0.085346
601 2 0.288449 0.901183 0.185795
602 2 0.0115634 0.126559 0.115539
603 2 0.492754 0.291092 0.323191
604 2 0.978698 0.011399 0.0957469
605 2 0.197401 0.489748 0.556688
606 2 0.30892 0.96074 0.676302
607 2 0.415161 0.261708 0.209921
608 2 0.546638 0.0825456 0.532602
609 2 0.851351 0.472799 0.321568
610 2 0.353207 0.210959 0.59113
611 2 0.317301 0.457481 0.307895
612 2 0.0790672 0.400619 0.889735
613 2 0.468085 0.398709 0.598899
614 2 0.282984 0.286031 0.354313
615 2 0.914325 0.299641 0.931352
616 2 0.488589 0.875169 0.223971
617 2 0.294838 0.498586 0.596894
618 2 0.320211 0.279731 0.691485
619 2 0.327613 0.130995 0.318501
620 2 0.966675 0.585773 0.421608
621 2 0.70852 0.350267 0.461502
622 2 0.815076 0.315633 0.755463
623 2 0.19408 0.290645 0.280862
624 2 0.300961 0.635834 0.32313
625 2 0.207791 0.489339 0.62116
626 2 0.0932411 0.209628 0.48236
627 2 0.0307987 0.253366 0.349643
628 2 0.16476 0.404752 0.23402
629 2 0.544158 0.361792 0.381383
630 2 0.190454 0.122529 0.498992
631 2 0.210909 0.303617 0.486391
632 2 0.295062 0.149433 0.31152
633 2 0.624359 0.0685845 0.347757
634 2 0.864383 0.166327 0.420903
635 2 0.399538 0.0560732 0.263211
636 2 0.0643962 0.514787 0.374734
637 2 0.525516 0.610696 0.84987
638 2 0.337478 0.566939 0.372721
639 2 0.497317 0.229327 0.722266
640 2 0.431382 0.305291 0.494547
641 2 0.252953 0.399295 0.771937
642 2 0.884951 0.976276 0.285558
643 2 0.29993 0.455693 0.413108
644 2 0.192846 0.332908 0.888665
645 2 0.207955 0.286848 0.253882
646 2 0.897451 0.359228 0.273439
647 2 0.187875 0.342266 0.252236
648 2 0.338491 0.0931724 0.320284
649 2 0.88544 0.204482 0.938528
650 2 0.85753 0.936508 0.17217
651 2 0.586816 0.621177 0.711757
652 2 0.00549513 0.877761 0.10302
653 2 0.487827 0.437039 0.511617
654 2 0.736715 0.242114 0.841036
655 2 0.173155 0.161915 0.726144
656 2 0.327237 0.140389 0.346684
657 2 0.212252 0.0442948 0.510827
658 2 0.384834 0.348352 0.253346
659 2 0.346208 0.212073 0.430488
660 2 0.598491 0.533283 0.367142
661 2 0.296556 0.692555 0.484437
662 2 0.565547 0.0981408 0.838248
663 2 0.460337 0.0952055 0.682629
664 2 0.222418 0.653768 0.354312
665 2 0.249418 0.324847 0.186639
666 2 0.589834 0.187266 0.232843
667 2 0.281316 0.189086 0.421143
668 2 0.861611 0.443854 0.436013
669 2 0.178705 0.701339 0.341353
670 2 0.0298247 0.499144 0.36746
671 2 0.45697 0.517679 0.224509
672 2 0.35426 0.160132 0.388262
673 2 0.180349 0.510198 0.515897
674 2 0.154999 0.389991 0.652936
675 2 0.121753 0.302379 0.32383
676 2 0.756373 0.20334 0.520696
677 2 0.994432 0.244257 0.262596
678 2 0.977357 0.319123 0.918101
679 2 0.318455 0.390091 0.36581
680 2 0.537552 0.407235 0.755732
681 2 0.325596 0.249099 0.801716
682 2 0.938859 0.391832 0.758718
683 2 0.523625 0.788517 0.358265
684 2 0.157294 0.0446177 0.253296
685 2 0.359926 0.446863 0.798438
686 2 0.923633 0.199412 0.271353
687 2 0.185408 0.6549 0.205434
688 2 0.140203 0.333127 0.912002
689 2 0.385911 0.414558 0.166997
690 2 0.283647 0.219075 0.258768
691 2 0.696152 0.38928 0.457854
692 2 0.40497 0.185924 0.357423
693 2 0.0650395 0.290641 0.860888
694 2 0.294713 0.103631 0.452506
695 2 0.194825 0.0183207 0.411062
696 2 0.021282 0.481716 0.848815
697 2 0.220629 0.00325953 0.594319
698 2 0.122865 0.346472 0.292901
699 2 0.958405 0.214614 0.319214
700 2 0.161915 0.971632 0.192538
701 2 0.0956087 0.0576368 0.369142
702 2 0.097963 0.389449 0.374753
703 2 0.429036 0.798527 0.119913
704 2 0.422239 0.260913 0.16276
705 2 0.156638 0.55782 0.239326
706 2 0.101523 0.387707 0.258353
707 2 0.14712 0.585145 0.334697
708 2 0.0426332 0.361026 0.816699
709 2 0.236114 0.0805366 0.788506
710 2 0.402134 0.64237 0.251381
711 2 0.233987 0.361845 0.490282
712 2 0.08104 0.519966 0.34717
713 2 0.325799 0.986209 0.270655
714 2 0.50795 0.267222 0.15055
715 2 0.700433 0.783061 0.619942
716 2 0.222632 0.0420783 0.275566
717 2 0.0269134 0.462395 0.450904
718 2 0.280188 0.478823 0.14653
719 2 0.914714 0.319296 0.469889
720 2 0.791283 0.860586 0.424942
721 2 0.44895 0.154729 0.38601
722 2 0.193282 0.642571 0.799836
723 2 0.109707 0.138143 0.364086
724 2 0.421046 0.481874 0.693126
725 2 0.0929064 0.936838 0.206014
726 2 0.481049 0.456757 0.360167
727 2 0.18755 0.445453 0.445736
728 2 0.420908 0.14927 0.213223
729 2 0.841841 0.814863 0.433275
730 2 0.385288 0.392669 0.351293
731 2 0.00427041 0.135806 0.495221
732 2 0.418747 0.423365 0.373164
733 2 0.469521 0.293631 0.246867
734 2 0.26002 0.264657 0.278683
735 2 0.876776 0.49917 0.310662
736 2 0.579106 0.0616138 0.405339
737 2 0.727641 0.272361 0.268491
738 2 0.276357 0.46054 0.21784
739 2 0.141866 0.331096 0.766535
740 2 0.218232 0.443688 0.813632
741 2 0.217197 0.538674 0.579429
742 2 0.302719 0.308403 0.850746
743 2 0.949307 0.368944 0.860165
744 2 0.00129123 0.228729 0.142773
745 2 0.418367 0.139378 0.45912
746 2 0.28653 0.142094 0.454423
747 2 0.0476564 0.0114538 0.14387
748 2 0.775448 0.0607608 0.32444
749 2 0.435073 0.23674 0.302929
750 2 0.361148 0.238698 0.638482
751 2 0.0522251 0.288961 0.277815
752 2 0.410537 0.354238 0.160767
753 2 0.249031 0.253474 0.527368
754 2 0.438498 0.103199 0.520472
755 2 0.381334 0.563551 0.402394
756 2 0.428578 0.171805 0.25709
757 2 0.429099 0.626002 0.532759
758 2 0.832404 0.991782 0.261281
759 2 0.0659426 0.582457 0.366524
760 2 0.475144 0.152996 0.235235
761 2 0.0470905 0.255475 0.748198
762 2 0.95875 0.383271 0.379363
763 2 0.368838 0.42325 0.839721
764 2 0.444337 0.608401 0.338061
765 2 0.177925 0.419618 0.487453
766 2 0.0228512 0.914763 0.147409
767 2 0.969072 0.636404 0.820106
768 2 0.0128738 0.469993 0.232052
769 2 0.342044 0.281732 0.215899
770 2 0.150972 0.353111 0.253964
771 2 0.244099 0.0993775 0.382796
772 2 0.2377 0.202531 0.190298
773 2 0.862385 0.112451 0.496154
774 2 0.151918 0.208233 0.606779
775 2 0.286188 0.957333 0.476192
776 2 0.216692 0.244602 0.787141
777 2 0.00838107 0.967513 0.161735
778 2 0.345017 0.552763 0.329347
779 2 0.0555565 0.0501054 0.268693
780 2 0.378413 0.336465 0.870489
781 2 0.584765 0.391948 0.494048
782 2 0.0446234 0.352855 0.298636
783 2 0.929686 0.43272 0.949
784 2 0.244814 0.138817 0.906346
785 2 0.093989 0.364567 0.18361
786 2 0.410762 0.330678 0.26915
787 2 0.305882 0.993541 0.716489
788 2 0.480933 0.393549 0.483169
789 2 0.15766 0.392986 0.318156
790 2 0.278389 0.678208 0.408983
791 2 0.217125 0.148192 0.94301
792 2 0.275522 0.287494 0.458611
793 2 0.0458535 0.0910091 0.788908
794 2 0.463268 0.960713 0.354151
795 2 0.0409733 0.332719 0.915796
796 2 0.341704 0.292856 0.480512
797 2 0.369335 0.616959 0.253489
798 2 0.158854 0.79344 0.133838
799 2 0.203987 0.120958 0.318489
800 2 0.718788 0.877912 0.379756
801 2 0.470637 0.981889 0.18325
802 2 0.555141 0.339183 0.270065
803 2 0.293726 0.516123 0.302311
804 2 0.077091 0.203432 0.455841
805 2 0.22564 0.109604 0.437526
806 2 0.348585 0.285762 0.17215
807 2 0.144693 0.438725 0.23079
808 2 0.328369 0.403148 0.587682
809 2 0.0202982 0.178212 0.147231
810 2 0.239878 0.345802 0.332524
811 2 0.389406 0.349794 0.488211
812 2 0.310759 0.0688529 0.213067
813 2 0.0455033 0.107788 0.570014
814 2 0.363366 0.379627 0.489942
815 2 0.257922 0.0201938 0.43837
816 2 0.044105 0.441044 0.175584
817 2 0.195698 0.304572 0.688714
818 2 0.105409 0.504495 0.180326
819 2 0.189075 0.824131 0.51314
820 2 0.0901277 0.23802 0.196101
821 2 0.68062 0.260251 0.813889
822 2 0.503528 0.149401 0.480527
823 2 0.980401 0.230501 0.187045
824 2 0.494221 0.279747 0.618555
825 2 0.392576 0.0792541 0.697267
826 2 0.786439 0.434681 0.221819
827 2 0.132989 0.553396 0.842139
828 2 0.472862 0.628209 0.377398
829 2 0.172462 0.0520242 0.451976
830 2 0.112942 0.402932 0.506634
831 2 0.0289185 0.191763 0.275218
832 2 0.301286 0.195632 0.374239
833 2 0.946297 0.17487 0.17268
834 2 0.714556 0.802456 0.405657
835 2 0.720383 0.203393 0.803093
836 2 0.39552 0.393943 0.379067
837 2 0.119164 0.166628 0.382185
838 2 0.583845 0.499734 0.196332
839 2 0.328008 0.892683 0.827752
840 2 0.49999 0.311383 0.212424
841 2 0.623835 0.459511 0.519741
842 2 0.957982 0.25892 0.915106
843 2 0.206508 0.646389 0.279573
844 2 0.535656 0.150957 0.321422
845 2 0.906326 0.211895 0.403289
846 2 0.490225 0.831494 0.387714
847 2 0.10955 0.990707 0.112261
848 2 0.157945 0.171722 0.47608
849 2 0.459712 0.367015 0.499588
850 2 0.815969 0.206231 0.729765
851 2 0.398539 0.0840118 0.478884
852 2 0.545624 0.328144 0.342227
853 2 0.0522556 0.234469 0.58862
854 2 0.140177 0.428564 0.611712
855 2 0.356194 0.136961 0.490764
856 2 0.439088 0.199976 0.179218
857 2 0.00280048 0.298928 0.872534
858 2 0.320958 0.366916 0.833948
859 2 0.187038 0.351476 0.461032
860 2 0.605827 0.0353273 0.197205
861 2 0.256758 0.052021 0.577997
862 2 0.113401 0.413159 0.728759
863 2 0.39662 0.712666 0.785175
864 2 0.105564 0.3403 0.899681
865 2 0.768042 0.291886 0.359224
866 2 0.274573 0.348843 0.345415
867 2 0.433946 0.53227 0.391972
868 2 0.904657 0.127379 0.724182
869 2 0.516108 0.506659 0.485238
870 2 0.188042 0.246085 0.19733
871 2 0.941287 0.386065 0.233142
872 2 0.968244 0.191106 0.701599
873 2 0.497428 0.32624 0.515022
874 2 0.929928 0.164425 0.336922
875 2 0.460338 0.187053 0.244559
876 2 0.28132 0.333895 0.201537
877 2 0.232454 0.30997 0.321151
878 2 0.141306 0.297534 0.599396
879 2 0.972909 0.285143 0.953806
880 2 0.275055 0.214267 0.734966
881 2 0.196284 0.849937 0.57675
882 2 0.201209 0.259609 0.297873
883 2 0.160045 0.384112 0.831725
884 2 0.234583 0.111436 0.522145
885 2 0.930473 0.444484 0.441275
886 2 0.217486 0.371208 0.861198
887 2 0.0151046 0.303187 0.27107
888 2 0.99202 0.304963 0.380996
889 2 0.901825 0.207938 0.214058
890 2 0.578941 0.210714 0.32074
891 2 0.0781955 0.914001 0.441887
892 2 0.245265 0.429929 0.254184
893 2 0.997645 0.153369 0.342482
894 2 0.928911 0.975975 0.438783
895 2 0.733744 0.340173 0.801826
896 2 0.147915 0.49483 0.448827
897 2 0.0646631 0.315778 0.299036
898 2 0.188109 0.137603 0.926559
899 2 0.215382 0.180772 0.308468
900 2 0.283402 0.27155 0.327043
901 2 0.154104 0.297049 0.281372
902 2 0.282328 0.406579 0.479386
903 2 0.38606 0.193647 0.462109
904 2 0.64189 0.381137 0.798072
905 2 0.127801 0.439198 0.339734
906 2 0.0455011 0.351918 0.371684