ITEM: TIMESTEP
388883
ITEM: NUMBER OF ATOMS
12500
ITEM: BOX BOUNDS pp pp pp
-1.1465450808472910e+00 5.9067728687022772e+01
-1.1465450808472910e+00 5.9067728687022772e+01
-1.1465450808472910e+00 7.6946143071563768e+01
ITEM: ATOMS id type xs ys zs
1 2 0.374103 0.0346634 0.566699
2 2 0.10805 0.109445 0.40393
3 2 0.228269 0.924487 0.179449
4 2 0.108295 0.0036909 0.333139
5 2 0.0948657 0.100522 0.136064
6 2 0.376464 0.396456 0.26413
7 2 0.397091 0.241616 0.370356
8 2 0.671425 0.890259 0.257808
9 2 0.195259 0.990047 0.736307
10 2 0.522421 0.224939 0.428781
11 2 0.453729 0.11452 0.547517
12 2 0.858817 0.445855 0.404423
13 2 0.0624846 0.286519 0.313861
14 2 0.238488 0.244631 0.292374
15 2 0.125857 0.482772 0.712807
16 2 0.261433 0.390349 0.437068
17 2 0.157623 0.298079 0.861027
18 2 0.408274 0.230238 0.242062
19 2 0.42664 0.447158 0.518081
20 2 0.824652 0.417235 0.70329
21 2 0.958309 0.29141 0.240051
22 2 0.116096 0.169872 0.127358
23 2 0.71568 0.446918 0.86065
24 2 0.0912575 0.27617 0.396902
25 2 0.407098 0.241155 0.904814
26 2 0.62489 0.392008 0.583565
27 2 0.294697 0.117319 0.853434
28 2 0.391035 0.112603 0.458881
29 2 0.000233852 0.186189 0.896372
30 2 0.27333 0.141511 0.480921
31 2 0.202541 0.0770065 0.273538
32 2 0.040996 0.477251 0.340891
33 2 0.376155 0.193194 0.154997
34 2 0.740247 0.616234 0.195622
35 2 0.279456 0.178789 0.390057
36 2 0.33827 0.195168 0.377558
37 2 0.119716 0.0135436 0.43244
38 2 0.926553 0.61983 0.341193
39 2 0.242132 0.4575 0.224104
40 2 0.876326 0.835076 0.392075
41 2 0.795786 0.219911 0.398348
42 2 0.418924 0.392737 0.331413
43 2 0.291956 0.356846 0.694813
44 2 0.743174 0.23017 0.60389
45 2 0.179094 0.943565 0.525978
46 2 0.440935 0.528372 0.526393
47 2 0.0378024 0.402664 0.863868
48 2 0.325299 0.292241 0.4316
49 2 0.145613 0.904915 0.110456
50 2 0.212961 0.158814 0.411166
51 2 0.823093 0.343868 0.443181
52 2 0.383963 0.218014 0.349486
53 2 0.227773 0.221026 0.384242
54 2 0.316512 0.513826 0.846536
55 2 0.00760752 0.420114 0.774762
56 2 0.693569 0.290833 0.197809
57 2 0.50244 0.439922 0.886798
58 2 0.347983 0.469895 0.249727
59 2 0.918689 0.0862013 0.786347
60 2 0.748261 0.371278 0.353902
61 2 0.399615 0.250535 0.173585
62 2 0.171358 0.424838 0.299463
63 2 0.0630969 0.285643 0.174024
64 2 0.723485 0.108963 0.238774
65 2 0.189477 0.485809 0.352177
66 2 0.36008 0.499668 0.231548
67 2 0.346227 0.418797 0.543697
68 2 0.28483 0.489259 0.4012
69 2 0.708506 0.55627 0.625052
70 2 0.14294 0.445518 0.170774
71 2 0.802335 0.374593 0.454657
72 2 0.151969 0.368909 0.373186
73 2 0.305567 0.0261367 0.13877
74 2 0.156365 0.284456 0.888999
75 2 0.226069 0.38623 0.644938
76 2 0.689518 0.329587 0.601776
77 2 0.0114596 0.310989 0.330612
78 2 0.0572121 0.118428 0.472223
79 2 0.108157 0.659071 0.266366
80 2 0.592224 0.926721 0.227508
81 2 0.231821 0.143802 0.301647
82 2 0.210209 0.428906 0.850188
83 2 0.467655 0.319036 0.143161
84 2 0.154433 0.453834 0.315693
85 2 0.356484 0.232302 0.280574
86 2 0.303593 0.157376 0.0228779
87 2 0.26586 0.119876 0.399304
88 2 0.295747 0.132178 0.357965
89 2 0.275936 0.292939 0.487053
90 2 0.0166507 0.209296 0.216121
91 2 0.0532574 0.232723 0.453574
92 2 0.278804 0.573347 0.569433
93 2 0.292423 0.269085 0.390968
94 2 0.452065 0.202365 0.593758
95 2 0.366539 0.00691846 0.296187
96 2 0.279327 0.0613492 0.399226
97 2 0.659794 0.151149 0.385626
98 2 0.540264 0.391726 0.865516
99 2 0.992283 0.419569 0.54253
100 2 0.142187 0.220337 0.882352
101 2 0.340802 0.174935 0.277575
102 2 0.617972 0.0660696 0.404897
103 2 0.674228 0.0845951 0.241258
104 2 0.703848 0.958051 0.412468
105 2 0.419097 0.177672 0.378683
106 2 0.299417 0.620309 0.546371
107 2 0.138076 0.139638 0.137325
108 2 0.256498 0.520118 0.334157
109 2 0.297996 0.370244 0.189037
110 2 0.318896 0.410892 0.225427
111 2 0.965063 0.168225 0.762613
112 2 0.156541 0.222747 0.436497
113 2 0.438626 0.467167 0.542763
114 2 0.349173 0.969525 0.306198
115 2 0.195876 0.368134 0.166797
116 2 0.304794 0.483123 0.511296
117 2 0.754681 0.464577 0.284905
118 2 0.134703 0.434212 0.363812
119 2 0.294825 0.822148 0.463245
120 2 0.70605 0.137438 0.28188
121 2 0.834747 0.855429 0.741538
122 2 0.144131 0.953695 0.327586
123 2 0.957001 0.250978 0.973932
124 2 0.368939 0.359001 0.341681
125 2 0.316912 0.0400374 0.434159
126 2 0.456447 0.484596 0.645851
127 2 0.150289 0.61355 0.146978
128 2 0.113664 0.123083 0.274352
129 2 0.264066 0.379101 0.530364
130 2 0.156679 0.242389 0.134299
131 2 0.437233 0.906635 0.408595
132 2 0.268382 0.0751143 0.456732
133 2 0.176876 0.107889 0.700692
134 2 0.446863 0.460001 0.435294
135 2 0.338422 0.072431 0.248136
136 2 0.392827 0.467227 0.334386
137 2 0.778464 0.169676 0.889333
138 2 0.57958 0.462343 0.354274
139 2 0.193952 0.212747 0.370207
140 2 0.415426 0.0477383 0.775172
141 2 0.256297 0.0194264 0.214353
142 2 0.365274 0.997306 0.558806
143 2 0.0505849 0.263951 0.223246
144 2 0.704928 0.23749 0.86924
145 2 0.498271 0.55028 0.339466
146 2 0.281517 0.144501 0.747234
147 2 0.464238 0.0148193 0.306866
148 2 0.118099 0.221506 0.858887
149 2 0.0654417 0.208973 0.179697
150 2 0.541902 0.0831199 0.294927
151 2 0.563074 0.416258 0.881781
152 2 0.526321 0.128662 0.206797
153 2 0.156791 0.425082 0.404684
154 2 0.320588 0.25901 0.316205
155 2 0.859155 0.354264 0.265887
156 2 0.0724749 0.146453 0.353286
157 2 0.0694216 0.335106 0.348182
158 2 0.377575 0.791935 0.586858
159 2 0.33899 0.19227 0.325766
160 2 0.745649 0.365906 0.866898
161 2 0.38889 0.846664 0.214092
162 2 0.181442 0.272864 0.315745
163 2 0.0601113 0.386594 0.374132
164 2 0.353213 0.149748 0.537559
165 2 0.78776 0.327067 0.232499
166 2 0.328393 0.160255 0.499982
167 2 0.129986 0.615519 0.447133
168 2 0.601787 0.938277 0.547978
169 2 0.225321 0.513086 0.410013
170 2 0.642333 0.576062 0.314191
171 2 0.0315195 0.154506 0.064376
172 2 0.972773 0.165812 0.880212
173 2 0.511731 0.232271 0.674642
174 2 0.239255 0.498064 0.435071
175 2 0.295251 0.0521346 0.772688
176 2 0.146657 0.333793 0.171093
177 2 0.487465 0.362897 0.313958
178 2 0.290133 0.25124 0.614517
179 2 0.291739 0.385821 0.454799
180 2 0.299043 0.940266 0.13415
181 2 0.402081 0.864964 0.399789
182 2 0.322277 0.492128 0.46776
183 2 0.339098 0.386744 0.302067
184 2 0.302044 0.436633 0.325168
185 2 0.15896 0.244735 0.255958
186 2 0.452359 0.399643 0.224769
187 2 0.309718 0.400174 0.389652
188 2 0.290907 0.210329 0.837297
189 2 0.896661 0.538347 0.947578
190 2 0.319554 0.0352989 0.329073
191 2 0.24889 0.781483 0.432274
192 2 0.804594 0.148514 0.875197
193 2 0.128288 0.583242 0.30314
194 2 0.536457 0.184233 0.591566
195 2 0.194955 0.405718 0.174415
196 2 0.48975 0.400815 0.217177
197 2 0.102636 0.254307 0.846143
198 2 0.364129 0.162702 0.110208
199 2 0.543897 0.34064 0.309252
200 2 0.148524 0.249138 0.18538
201 2 0.459305 0.0696264 0.252152
202 2 0.740766 0.47778 0.853606
203 2 0.471907 0.748555 0.428389
204 2 0.224659 0.0129519 0.450695
205 2 0.344522 0.360978 0.36525
206 2 0.261876 0.0419975 0.354297
207 2 0.597022 0.145119 0.173489
208 2 0.219534 0.197387 0.256175
209 2 0.199777 0.366377 0.915342
210 2 0.454999 0.129517 0.209199
211 2 0.110992 0.378107 0.343149
212 2 0.310479 0.941664 0.811322
213 2 0.821697 0.198181 0.512906
214 2 0.154284 0.228155 0.934627
215 2 0.256899 0.443167 0.815712
216 2 0.425924 0.411875 0.205338
217 2 0.175519 0.341822 0.386258
218 2 0.0945581 0.995165 0.450514
219 2 0.379634 0.814161 0.137327
220 2 0.115789 0.955988 0.413252
221 2 0.274991 0.0619662 0.515992
222 2 0.0984719 0.203448 0.428073
223 2 0.195627 0.358835 0.782784
224 2 0.109541 0.869125 0.248957
225 2 0.617698 0.0182378 0.319596
226 2 0.983139 0.228156 0.20682
227 2 0.488565 0.170995 0.669128
228 2 0.0773639 0.792159 0.172601
229 2 0.964631 0.152548 0.32229
230 2 0.497194 0.0383516 0.692247
231 2 0.509879 0.341217 0.295731
232 2 0.447795 0.02214 0.39824
233 2 0.981862 0.517268 0.332558
234 2 0.082648 0.973026 0.403783
235 2 0.493804 0.0861483 0.0960352
236 2 0.594043 0.177415 0.77996
237 2 0.327268 0.424365 0.346831
238 2 0.813225 0.976926 0.52138
239 2 0.0641181 0.811926 0.220973
240 2 0.635531 0.424243 0.360821
241 2 0.252842 0.371245 0.411665
242 2 0.435748 0.928869 0.160543
243 2 0.571276 0.333176 0.86576
244 2 0.0104049 0.240678 0.160015
245 2 0.721025 0.225344 0.915123
246 2 0.960048 0.14042 0.131077
247 2 0.669397 0.195633 0.426048
248 2 0.107655 0.720116 0.44252
249 2 0.518848 0.119768 0.330379
250 2 0.247369 0.916991 0.738795
251 2 0.429933 0.476673 0.327637
252 2 0.448464 0.279868 0.192477
253 2 0.202097 0.127683 0.342215
254 2 0.969457 0.077609 0.477361
255 2 0.818477 0.655303 0.452472
256 2 0.0101486 0.359362 0.356017
257 2 0.381023 0.0070606 0.244663
258 2 0.642689 0.26964 0.294072
259 2 0.327545 0.37789 0.209755
260 2 0.161267 0.00215857 0.524921
261 2 0.97737 0.227727 0.816985
262 2 0.43758 0.0366252 0.462438
263 2 0.048814 0.649724 0.206902
264 2 0.941582 0.222924 0.387667
265 2 0.118176 0.869013 0.850898
266 2 0.212219 0.372471 0.247615
267 2 0.290711 0.100606 0.280217
268 2 0.387238 0.494278 0.544273
269 2 0.282082 0.375851 0.361697
270 2 0.16003 0.31755 0.195646
271 2 0.289836 0.807871 0.324311
272 2 0.0436731 0.18256 0.112751
273 2 0.204808 0.0168917 0.24869
274 2 0.311158 0.00349894 0.0787502
275 2 0.440356 0.383279 0.619292
276 2 0.313337 0.407682 0.71145
277 2 0.294027 0.108188 0.74074
278 2 0.0489658 0.189822 0.397663
279 2 0.702816 0.106353 0.373085
280 2 0.257764 0.405721 0.359727
281 2 0.175438 0.234555 0.281503
282 2 0.515847 0.29362 0.364593
283 2 0.553259 0.728456 0.577529
284 2 0.12868 0.0768029 0.361421
285 2 0.321598 0.152047 0.259141
286 2 0.226503 0.524508 0.19383
287 2 0.0420895 0.219086 0.157921
288 2 0.819318 0.249075 0.924253
289 2 0.014457 0.122193 0.220393
290 2 0.0850635 0.27961 0.366655
291 2 0.50102 0.202239 0.410243
292 2 0.226111 0.379741 0.317475
293 2 0.678773 0.112116 0.420197
294 2 0.102911 0.327289 0.218191
295 2 0.0939912 0.908954 0.582388
296 2 0.882845 0.378682 0.307412
297 2 0.426807 0.286404 0.321031
298 2 0.747097 0.172308 0.815324
299 2 0.0996294 0.636413 0.75993
300 2 0.352176 0.206805 0.846866
301 2 0.985287 0.247412 0.687684
302 2 0.404062 0.103392 0.371475
303 2 0.282416 0.870824 0.43749
304 2 0.897385 0.0724651 0.275887
305 2 0.544758 0.092014 0.323699
306 2 0.487158 0.506401 0.258073
307 2 0.252986 0.493325 0.558976
308 2 0.944006 0.405977 0.866182
309 2 0.873023 0.27565 0.544636
310 2 0.584329 0.71693 0.408704
311 2 0.295628 0.248989 0.267449
312 2 0.143433 0.236424 0.504235
313 2 0.413862 0.272764 0.423583
314 2 0.400704 0.337268 0.341672
315 2 0.42525 0.83514 0.368591
316 2 0.368615 0.291382 0.50227
317 2 0.133559 0.952806 0.786905
318 2 0.06863 0.060683 0.19629
319 2 0.335521 0.0752352 0.103071
320 2 0.265719 0.321639 0.794325
321 2 0.636114 0.373665 0.338236
322 2 0.241524 0.0749831 0.435362
323 2 0.499802 0.0573249 0.347612
324 2 0.390794 0.158864 0.394569
325 2 0.0626842 0.519772 0.271572
326 2 0.211083 0.188461 0.331039
327 2 0.34555 0.083679 0.851015
328 2 0.595858 0.421022 0.713856
329 2 0.0645772 0.333989 0.415564
330 2 0.544861 0.28306 0.895415
331 2 0.130414 0.267436 0.26701
332 2 0.492281 0.567752 0.538868
333 2 0.469036 0.365821 0.21874
334 2 0.560219 0.270136 0.465755
335 2 0.240659 0.205534 0.210639
336 2 0.0681103 0.164635 0.9083
337 2 0.244504 0.221916 0.811242
338 2 0.993624 0.150329 0.205492
339 2 0.447065 0.119935 0.732799
340 2 0.463431 0.934914 0.326286
341 2 0.268427 0.300493 0.305469
342 2 0.667944 0.0218681 0.349174
343 2 0.200785 0.671383 0.328387
344 2 0.469636 0.895754 0.326378
345 2 0.72687 0.095295 0.314432
346 2 0.497683 0.0795823 0.464648
347 2 0.309264 0.0387531 0.403138
348 2 0.168611 0.0904494 0.454079
349 2 0.457242 0.494282 0.423439
350 2 0.405599 0.378818 0.574446
351 2 0.376999 0.855792 0.342503
352 2 0.0310543 0.44771 0.263532
353 2 0.716552 0.256915 0.299277
354 2 0.245129 0.184713 0.459017
355 2 0.127723 0.150532 0.254783
356 2 0.292613 0.094721 0.409088
357 2 0.553938 0.891895 0.246361
358 2 0.444345 0.0412848 0.210377
359 2 0.248122 0.162373 0.869984
360 2 0.515781 0.438094 0.312432
361 2 0.301965 0.437721 0.384584
362 2 0.0400985 0.264884 0.154967
363 2 0.726988 0.162149 0.95144
364 2 0.543872 0.212775 0.302817
365 2 0.000172419 0.391219 0.604264
366 2 0.239098 0.455683 0.332792
367 2 0.263312 0.730287 0.0972355
368 2 0.523892 0.791729 0.155827
369 2 0.00398149 0.477103 0.37807
370 2 0.347124 0.11357 0.0670845
371 2 0.207074 0.992194 0.081988
372 2 0.77972 0.584402 0.804488
373 2 0.138219 0.990619 0.502266
374 2 0.394496 0.414492 0.42294
375 2 0.384829 0.0348721 0.116677
376 2 0.278835 0.42309 0.262814
377 2 0.700722 0.164802 0.304259
378 2 0.511563 0.427764 0.259057
379 2 0.391325 0.122409 0.325013
380 2 0.626179 0.245564 0.334108
381 2 0.351671 0.375066 0.802979
382 2 0.508004 0.361895 0.248582
383 2 0.98767 0.600573 0.172588
384 2 0.0644171 0.103265 0.0814211
385 2 0.0867602 0.597213 0.210116
386 2 0.70277 0.138585 0.936342
387 2 0.56514 0.269085 0.191119
388 2 0.124816 0.169571 0.311091
389 2 0.422409 0.356108 0.321997
390 2 0.571546 0.196934 0.456011
391 2 0.343463 0.00670033 0.769209
392 2 0.522248 0.995585 0.314125
393 2 0.21608 0.892119 0.333373
394 2 0.996434 0.28432 0.312694
395 2 0.268681 0.974516 0.582634
396 2 0.409137 0.344065 0.715686
397 2 0.370645 0.359569 0.571258
398 2 0.470891 0.671092 0.3362
399 2 0.466813 0.150102 0.18251
400 2 0.731991 0.339278 0.504505
401 2 0.0337274 0.853412 0.133151
402 2 0.980928 0.48216 0.786946
403 2 0.768102 0.0318245 0.566464
404 2 0.420999 0.329535 0.366119
405 2 0.402245 0.239807 0.815016
406 2 0.700442 0.349959 0.378252
407 2 0.203737 0.854855 0.335587
408 2 0.151553 0.179496 0.794609
409 2 0.345348 0.152318 0.441956
410 2 0.0924574 0.178101 0.218653
411 2 0.380548 0.144885 0.79678
412 2 0.161661 0.995962 0.478278
413 2 0.635494 0.203849 0.439473
414 2 0.402772 0.121466 0.397859
415 2 0.152918 0.520761 0.239316
416 2 0.52383 0.0628379 0.768293
417 2 0.152146 0.151843 0.326643
418 2 0.434712 0.0703675 0.338179
419 2 0.13681 0.28649 0.193101
420 2 0.281944 0.170793 0.998021
421 2 0.575221 0.803734 0.235808
422 2 0.0655845 0.0221191 0.191355
423 2 0.473072 0.0716391 0.328578
424 2 0.167723 0.33928 0.435263
425 2 0.27413 0.365974 0.240916
426 2 0.336291 0.38625 0.88484
427 2 0.10311 0.0819152 0.195454
428 2 0.830324 0.670455 0.382376
429 2 0.315708 0.0390274 0.184303
430 2 0.605332 0.301422 0.894824
431 2 0.240737 0.0730663 0.308809
432 2 0.939699 0.785594 0.590388
433 2 0.457451 0.487781 0.485159
434 2 0.134052 0.133835 0.205654
435 2 0.872652 0.997229 0.302794
436 2 0.12616 0.60224 0.167968
437 2 0.485917 0.870661 0.434903
438 2 0.150966 0.311545 0.386375
439 2 0.118332 0.3657 0.388365
440 2 0.196226 0.491276 0.30209
441 2 0.326919 0.741498 0.43936
442 2 0.423878 0.169346 0.294865
443 2 0.76574 0.400592 0.369693
444 2 0.466933 0.269903 0.759034
445 2 0.650252 0.241823 0.387784
446 2 0.163584 0.380232 0.265875
447 2 0.0699074 0.161117 0.293903
448 2 0.207383 0.423638 0.289225
449 2 0.187201 0.109185 0.430626
450 2 0.253899 0.332898 0.9042
451 2 0.354534 0.446985 0.293751
452 2 0.111267 0.405674 0.277497
453 2 0.303448 0.243888 0.497111
454 2 0.870722 0.425719 0.351301
455 2 0.825757 0.457978 0.295975
456 2 0.378874 0.156334 0.0826195
457 2 0.712249 0.683677 0.148964
458 2 0.116445 0.309486 0.173879
459 2 0.105463 0.870772 0.589589
460 2 0.506889 0.923849 0.29689
461 2 0.683131 0.326871 0.205139
462 2 0.531373 0.317431 0.706816
463 2 0.866057 0.626219 0.423375
464 2 0.931273 0.388282 0.527097
465 2 0.596174 0.00407927 0.234049
466 2 0.113701 0.958581 0.553332
467 2 0.201166 0.165982 0.265061
468 2 0.45136 0.22995 0.343965
469 2 0.347963 0.960777 0.392765
470 2 0.0996624 0.929824 0.149944
471 2 0.297288 0.201582 0.951855
472 2 0.209827 0.432513 0.260452
473 2 0.780081 0.829032 0.438488
474 2 0.227442 0.0652852 0.750749
475 2 0.299213 0.297452 0.675655
476 2 0.0709074 0.283874 0.244615
477 2 0.154947 0.0683321 0.528752
478 2 0.202143 0.958136 0.284945
479 2 0.47491 0.702508 0.356311
480 2 0.717061 0.413917 0.841616
481 2 0.165901 0.43091 0.880726
482 2 0.903944 0.175998 0.245844
483 2 0.225911 0.248628 0.616812
484 2 0.661235 0.281109 0.784286
485 2 0.405595 0.471746 0.203901
486 2 0.0340418 0.221623 0.115013
487 2 0.353788 0.614024 0.419934
488 2 0.465883 0.879703 0.27756
489 2 0.335137 0.267815 0.36382
490 2 0.418701 0.298376 0.445523
491 2 0.33037 0.753652 0.304975
492 2 0.693699 0.788749 0.0961153
493 2 0.160632 0.474557 0.80969
494 2 0.211821 0.259634 0.42691
495 2 0.346963 0.210714 0.351017
496 2 0.0145643 0.104309 0.270085
497 2 0.457669 0.743785 0.724287
498 2 0.903426 0.201462 0.290741
499 2 0.208487 0.192494 0.451877
500 2 0.52665 0.169114 0.268987
501 2 0.809172 0.349328 0.856114
502 2 0.0994265 0.270349 0.317826
503 2 0.718869 0.175232 0.878341
504 2 0.211503 0.673883 0.177867
505 2 0.809623 0.290148 0.806808
506 2 0.102116 0.203218 0.378526
507 2 0.153054 0.967207 0.459946
508 2 0.173778 0.340741 0.57328
509 2 0.07832 0.111788 0.262868
510 2 0.638352 0.855863 0.576504
511 2 0.973796 0.382893 0.946996
512 2 0.0790801 0.212851 0.402608
513 2 0.266713 0.573214 0.205862
514 2 0.471062 0.417385 0.534427
515 2 0.151864 0.942975 0.372236
516 2 0.483554 0.785701 0.461967
517 2 0.292171 0.139716 0.275882
518 2 0.775393 0.0665048 0.235376
519 2 0.0475748 0.466298 0.212737
520 2 0.753375 0.923851 0.414235
521 2 0.448073 0.334828 0.83975
522 2 0.324668 0.103875 0.235144
523 2 0.173818 0.272151 0.841132
524 2 0.459271 0.0778064 0.28274
525 2 0.0580702 0.380536 0.447692
526 2 0.255169 0.523817 0.476169
527 2 0.344593 0.202681 0.170072
528 2 0.532556 0.18995 0.860583
529 2 0.35493 0.124355 0.46145
530 2 0.27973 0.441125 0.433281
531 2 0.814803 0.0781805 0.277996
532 2 0.767194 0.0360344 0.822925
533 2 0.473832 0.168013 0.559053
534 2 0.28138 0.964156 0.233742
535 2 0.451125 0.860888 0.827049
536 2 0.99427 0.245893 0.354613
537 2 0.141718 0.0163339 0.264646
538 2 0.115974 0.534293 0.415716
539 2 0.0669406 0.764927 0.414902
540 2 0.00795176 0.632585 0.179467
541 2 0.359521 0.0875474 0.28909
542 2 0.358628 0.823423 0.620269
543 2 0.394503 0.879088 0.589869
544 2 0.0340813 0.348511 0.172936
545 2 0.594391 0.365137 0.471997
546 2 0.900712 0.306277 0.917019
547 2 0.0488954 0.306582 0.336811
548 2 0.0400128 0.616812 0.19215
549 2 0.173098 0.704177 0.384512
550 2 0.778557 0.412314 0.804531
551 2 0.126225 0.188668 0.264428
552 2 0.0349059 0.380893 0.188267
553 2 0.249689 0.0476637 0.415487
554 2 0.158211 0.311421 0.701152
555 2 0.171422 0.472721 0.174332
556 2 0.31034 0.26261 0.216895
557 2 0.540579 0.309563 0.872325
558 2 0.229038 0.139747 0.27194
559 2 0.833542 0.553409 0.210762
560 2 0.436405 0.161861 0.322185
561 2 0.00690461 0.503783 0.240974
562 2 0.0795845 0.122063 0.447715
563 2 0.302414 0.185996 0.315625
564 2 0.0816623 0.271304 0.631464
565 2 0.497667 0.317501 0.484532
566 2 0.934793 0.115879 0.119989
567 2 0.434134 0.325401 0.157857
568 2 0.381566 0.413936 0.237649
569 2 0.330178 0.0199195 0.302003
570 2 0.165333 0.152232 0.580937
571 2 0.270456 0.481007 0.182578
572 2 0.271694 0.073232 0.370988
573 2 0.667922 0.357923 0.687971
574 2 0.0848837 0.111661 0.567606
575 2 0.445189 0.560346 0.17352
576 2 0.158461 0.069661 0.402483
577 2 0.313757 0.168435 0.232573
578 2 0.278328 0.105167 0.582132
579 2 0.38601 0.976016 0.472268
580 2 0.528061 0.176995 0.488264
581 2 0.0623162 0.397814 0.253741
582 2 0.241675 0.200875 0.902728
583 2 0.464204 0.928834 0.4215
584 2 0.921122 0.210399 0.965404
585 2 0.201544 0.0843365 0.303351
586 2 0.185186 0.174949 0.370319
587 2 0.520063 0.14246 0.158956
588 2 0.514236 0.555993 0.219226
589 2 0.155438 0.284979 0.408126
590 2 0.140297 0.454794 0.657467
591 2 0.158925 0.556067 0.723064
592 2 0.0758795 0.452983 0.383903
593 2 0.362473 0.769597 0.631084
594 2 0.0863322 0.355888 0.327001
595 2 0.0484217 0.21964 0.353195
596 2 0.838842 0.164117 0.982094
597 2 0.0101769 0.332836 0.965649
598 2 0.361564 0.997766 0.354593
599 2 0.420954 0.13693 0.583919
600 2 0.347307 0.0790311 0.0549009
601 2 0.287622 0.901226 0.176034
602 2 0.0114895 0.127292 0.103359
603 2 0.492561 0.291267 0.317371
604 2 0.977973 0.012353 0.0823617
605 2 0.19747 0.489608 0.558326
606 2 0.309096 0.960616 0.68158
607 2 0.415136 0.261744 0.20056
608 2 0.546682 0.0825549 0.533424
609 2 0.851196 0.473123 0.315931
610 2 0.353291 0.210834 0.593866
611 2 0.317189 0.457712 0.301819
612 2 0.0795572 0.400255 0.901826
613 2 0.468237 0.398524 0.601831
614 2 0.28296 0.286136 0.349472
615 2 0.914579 0.298895 0.944983
616 2 0.488208 0.876357 0.21493
617 2 0.294956 0.498397 0.599744
618 2 0.320402 0.279442 0.697521
619 2 0.327481 0.131262 0.312282
620 2 0.966583 0.585947 0.419015
621 2 0.708489 0.350323 0.460192
622 2 0.815472 0.31489 0.763606
623 2 0.193969 0.290892 0.273872
624 2 0.300809 0.636107 0.317524
625 2 0.207949 0.489069 0.624849
626 2 0.0932879 0.209646 0.481688
627 2 0.0307194 0.253539 0.344859
628 2 0.164555 0.405126 0.225728
629 2 0.544014 0.361886 0.377486
630 2 0.190497 0.122576 0.49877
631 2 0.21096 0.303599 0.48584
632 2 0.294936 0.149637 0.30501
633 2 0.624186 0.0688762 0.342844
634 2 0.86433 0.166471 0.418272
635 2 0.399242 0.0565305 0.255245
636 2 0.0642907 0.514971 0.370757
637 2 0.525849 0.610364 0.860384
638 2 0.337381 0.567127 0.368636
639 2 0.49761 0.229019 0.72911
640 2 0.431403 0.30525 0.494174
641 2 0.253287 0.398869 0.780397
642 2 0.884663 0.976763 0.27844
643 2 0.299868 0.455807 0.410237
644 2 0.193633 0.332779 0.901073
645 2 0.207786 0.287145 0.246046
646 2 0.897326 0.359578 0.266388
647 2 0.187727 0.342591 0.244449
648 2 0.338302 0.0934335 0.314076
649 2 0.885223 0.2036 0.954339
650 2 0.856831 0.937851 0.160822
651 2 0.587059 0.62086 0.71804
652 2 0.00470347 0.878502 0.0902784
653 2 0.487848 0.436987 0.511793
654 2 0.737593 0.24102 0.852035
655 2 0.173581 0.161592 0.733524
656 2 0.327065 0.140594 0.341361
657 2 0.212263 0.0443553 0.510947
658 2 0.384741 0.348687 0.245411
659 2 0.346192 0.212081 0.427944
660 2 0.598384 0.533514 0.362859
661 2 0.296513 0.692617 0.483735
662 2 0.56589 0.0977018 0.848643
663 2 0.460535 0.0950269 0.688163
664 2 0.222248 0.654041 0.349655
665 2 0.249078 0.325555 0.176806
666 2 0.589634 0.187581 0.224281
667 2 0.28131 0.189121 0.418425
668 2 0.861565 0.44395 0.43392
669 2 0.178483 0.70162 0.336275
670 2 0.0297023 0.499364 0.363259
671 2 0.456813 0.518084 0.215896
672 2 0.354134 0.160231 0.384402
673 2 0.180385 0.510131 0.51627
674 2 0.155207 0.38963 0.657669
675 2 0.121685 0.30257 0.318237
676 2 0.756436 0.203324 0.521247
677 2 0.994285 0.244574 0.255104
678 2 0.977655 0.318422 0.931234
679 2 0.318393 0.390202 0.361478
680 2 0.537916 0.406857 0.763495
681 2 0.326051 0.248637 0.811498
682 2 0.939258 0.391233 0.766781
683 2 0.523457 0.788877 0.353606
684 2 0.156959 0.0449086 0.245203
685 2 0.36027 0.446556 0.80752
686 2 0.923491 0.199766 0.264101
687 2 0.185034 0.655251 0.196254
688 2 0.140843 0.333054 0.92507
689 2 0.385737 0.41512 0.156337
690 2 0.28356 0.219275 0.250686
691 2 0.69613 0.389347 0.45642
692 2 0.404856 0.185953 0.352423
693 2 0.0658329 0.290064 0.872501
694 2 0.294695 0.103742 0.450753
695 2 0.194731 0.0185135 0.40801
696 2 0.0216073 0.481191 0.859503
697 2 0.220735 0.0032213 0.597066
698 2 0.122761 0.346715 0.286395
699 2 0.958299 0.214869 0.313463
700 2 0.161401 0.971969 0.182594
701 2 0.0954881 0.0578568 0.364805
702 2 0.0979181 0.389578 0.370782
703 2 0.428592 0.799028 0.108119
704 2 0.422322 0.262351 0.151412
705 2 0.156389 0.558162 0.231204
706 2 0.101368 0.387998 0.250815
707 2 0.14696 0.585385 0.329484
708 2 0.0431952 0.360312 0.826649
709 2 0.236457 0.0801716 0.797667
710 2 0.40196 0.64278 0.243584
711 2 0.234017 0.361802 0.489873
712 2 0.0809082 0.520185 0.342342
713 2 0.325441 0.986644 0.263001
714 2 0.508252 0.267936 0.139487
715 2 0.70056 0.782899 0.623378
716 2 0.222356 0.0423665 0.268128
717 2 0.026898 0.462451 0.449287
718 2 0.279945 0.479327 0.135543
719 2 0.914748 0.319304 0.46889
720 2 0.791168 0.860787 0.422311
721 2 0.448708 0.154937 0.382128
722 2 0.193515 0.642259 0.808826
723 2 0.109627 0.138339 0.359636
724 2 0.421284 0.481608 0.6989
725 2 0.0922347 0.937286 0.196488
726 2 0.480937 0.456944 0.355657
727 2 0.187553 0.445476 0.443932
728 2 0.420546 0.145605 0.202651
729 2 0.841744 0.81506 0.430916
730 2 0.385196 0.392767 0.346473
731 2 0.0043177 0.135833 0.494961
732 2 0.418658 0.42348 0.36903
733 2 0.469189 0.29383 0.23864
734 2 0.25995 0.264841 0.271465
735 2 0.8766 0.499524 0.304691
736 2 0.578949 0.0618037 0.402131
737 2 0.727494 0.272744 0.261264
738 2 0.276163 0.461003 0.209048
739 2 0.142312 0.330449 0.775086
740 2 0.218591 0.443309 0.823289
741 2 0.217286 0.538525 0.581744
742 2 0.30345 0.308179 0.861879
743 2 0.949686 0.36817 0.871346
744 2 0.00117907 0.229297 0.131563
745 2 0.418314 0.139455 0.457599
746 2 0.28651 0.142188 0.45282
747 2 0.0471213 0.0119598 0.132374
748 2 0.775288 0.0610836 0.318782
749 2 0.434835 0.236784 0.296129
750 2 0.361323 0.238507 0.642771
751 2 0.0521067 0.289239 0.270821
752 2 0.410571 0.355291 0.150042
753 2 0.249098 0.25339 0.528117
754 2 0.438519 0.103241 0.52091
755 2 0.381261 0.563703 0.399202
756 2 0.428134 0.17157 0.248482
757 2 0.429134 0.62596 0.533542
758 2 0.832111 0.992277 0.25345
759 2 0.0658051 0.582672 0.362283
760 2 0.475853 0.153435 0.227087
761 2 0.0475879 0.254936 0.756219
762 2 0.958684 0.383441 0.375543
763 2 0.369257 0.423028 0.85009
764 2 0.444216 0.608678 0.332901
765 2 0.177948 0.419582 0.486955
766 2 0.0220625 0.915394 0.135992
767 2 0.969319 0.635971 0.82977
768 2 0.0126471 0.470342 0.223736
769 2 0.341783 0.282702 0.206703
770 2 0.150821 0.353423 0.246255
771 2 0.244007 0.0995707 0.378819
772 2 0.237466 0.203095 0.180304
773 2 0.86241 0.112509 0.495955
774 2 0.15213 0.208107 0.610142
775 2 0.286148 0.957454 0.475192
776 2 0.217263 0.243992 0.796733
777 2 0.00766823 0.968206 0.15066
778 2 0.344901 0.553011 0.323941
779 2 0.0552313 0.0504967 0.261077
780 2 0.379141 0.336358 0.881916
781 2 0.584789 0.391924 0.493709
782 2 0.0445177 0.353115 0.292319
783 2 0.929972 0.432103 0.962754
784 2 0.248877 0.139972 0.922681
785 2 0.093755 0.364982 0.173775
786 2 0.410617 0.330875 0.261643
787 2 0.306098 0.993395 0.723081
788 2 0.480941 0.393525 0.482441
789 2 0.157579 0.393198 0.312434
790 2 0.2783 0.678375 0.405989
791 2 0.222037 0.150949 0.960888
792 2 0.27555 0.287481 0.457155
793 2 0.0462187 0.0905263 0.797847
794 2 0.463042 0.961068 0.349256
795 2 0.0413856 0.332377 0.928878
796 2 0.341721 0.292866 0.479747
797 2 0.369156 0.617352 0.245776
798 2 0.158302 0.793627 0.122399
799 2 0.203868 0.12117 0.312471
800 2 0.718628 0.878223 0.37567
801 2 0.46897 0.985424 0.172135
802 2 0.554986 0.339434 0.262735
803 2 0.293592 0.516377 0.296098
804 2 0.0771318 0.203471 0.454348
805 2 0.225581 0.109697 0.435283
806 2 0.348182 0.287372 0.161382
807 2 0.14448 0.439101 0.222398
808 2 0.328472 0.402989 0.590295
809 2 0.0201478 0.178732 0.136093
810 2 0.239822 0.345954 0.327134
811 2 0.389424 0.349748 0.48765
812 2 0.310147 0.0687973 0.20299
813 2 0.0456459 0.10775 0.572119
814 2 0.363389 0.379592 0.48945
815 2 0.257863 0.0203495 0.436181
816 2 0.0437983 0.441465 0.165627
817 2 0.196043 0.304256 0.694704
818 2 0.105116 0.50492 0.170405
819 2 0.189058 0.824174 0.51332
820 2 0.089932 0.23838 0.186541
821 2 0.681194 0.259518 0.823755
822 2 0.503485 0.149458 0.479709
823 2 0.980263 0.230997 0.177202
824 2 0.494332 0.279542 0.622122
825 2 0.392786 0.0790561 0.703285
826 2 0.786266 0.435099 0.21312
827 2 0.133277 0.553023 0.852516
828 2 0.472767 0.628455 0.37341
829 2 0.172429 0.052144 0.450235
830 2 0.112985 0.402875 0.506747
831 2 0.028751 0.192059 0.268064
832 2 0.301205 0.195756 0.369972
833 2 0.946139 0.175502 0.162261
834 2 0.714438 0.802714 0.402433
835 2 0.72098 0.202598 0.812834
836 2 0.395439 0.394038 0.375104
837 2 0.119098 0.16678 0.378335
838 2 0.583695 0.500153 0.186859
839 2 0.328237 0.892314 0.837606
840 2 0.499751 0.311441 0.203298
841 2 0.623882 0.459458 0.520186
842 2 0.958161 0.258021 0.928572
843 2 0.206266 0.646703 0.272664
844 2 0.535431 0.151234 0.315633
845 2 0.906271 0.212056 0.400156
846 2 0.490089 0.83176 0.383985
847 2 0.108946 0.990928 0.0998275
848 2 0.157984 0.17177 0.475174
849 2 0.459738 0.366976 0.499372
850 2 0.816349 0.205711 0.73719
851 2 0.398509 0.0841183 0.478024
852 2 0.545457 0.328304 0.337094
853 2 0.0524357 0.234329 0.591404
854 2 0.140334 0.428291 0.615119
855 2 0.356198 0.136997 0.490268
856 2 0.437822 0.199346 0.168356
857 2 0.00330732 0.298353 0.884326
858 2 0.321455 0.366657 0.84424
859 2 0.187059 0.351483 0.45969
860 2 0.605479 0.0359154 0.187681
861 2 0.256844 0.0519862 0.580285
862 2 0.113723 0.412629 0.735936
863 2 0.396846 0.712385 0.793654
864 2 0.106149 0.340027 0.912346
865 2 0.76794 0.292115 0.354784
866 2 0.274522 0.348971 0.340423
867 2 0.433875 0.532431 0.388467
868 2 0.904987 0.127043 0.731233
869 2 0.516124 0.506645 0.484594
870 2 0.18783 0.24652 0.187695
871 2 0.941133 0.38646 0.224837
872 2 0.968562 0.190806 0.708016
873 2 0.497439 0.326189 0.51531
874 2 0.929811 0.16467 0.331683
875 2 0.459941 0.187178 0.23591
876 2 0.280921 0.334599 0.192226
877 2 0.232404 0.310136 0.315377
878 2 0.141467 0.297333 0.602463
879 2 0.973375 0.284805 0.968148
880 2 0.275354 0.213864 0.742712
881 2 0.196363 0.849913 0.578885
882 2 0.201137 0.259826 0.291361
883 2 0.160547 0.383599 0.842199
884 2 0.234616 0.111438 0.522667
885 2 0.930458 0.444572 0.43936
886 2 0.21809 0.370955 0.872531
887 2 0.0149807 0.303493 0.263897
888 2 0.991972 0.305129 0.377198
889 2 0.901614 0.20843 0.205069
890 2 0.578773 0.210981 0.314963
891 2 0.078096 0.914185 0.439797
892 2 0.245086 0.430292 0.246479
893 2 0.997513 0.153597 0.337392
894 2 0.928843 0.976135 0.436634
895 2 0.734036 0.339379 0.811351
896 2 0.147896 0.494874 0.447117
897 2 0.0645599 0.316016 0.292717
898 2 0.193124 0.141137 0.943564
899 2 0.215278 0.180973 0.302159
900 2 0.283361 0.271677 0.321344
901 2 0.153988 0.29729 0.27444
902 2 0.282344 0.406554 0.478613
903 2 0.386021 0.193691 0.460634
904 2 0.642335 0.380621 0.807191
905 2 0.127698 0.439399 0.33469
906 2 0.045442 0.352063 0.367619