ITEM: TIMESTEP
223892
ITEM: NUMBER OF ATOMS
12500
ITEM: BOX BOUNDS pp pp pp
-1.1465450808472910e+00 5.9067728687022772e+01
-1.1465450808472910e+00 5.9067728687022772e+01
-1.1465450808472910e+00 6.6744451692516449e+01
ITEM: ATOMS id type xs ys zs
1 2 0.374046 0.0347479 0.575978
2 2 0.108269 0.109241 0.387415
3 2 0.229225 0.924769 0.127826
4 2 0.108848 0.00354912 0.305087
5 2 0.0938724 0.102069 0.0760854
6 2 0.377231 0.395755 0.22712
7 2 0.397554 0.241139 0.349318
8 2 0.671687 0.889446 0.2179
9 2 0.195411 0.990492 0.771723
10 2 0.522555 0.224313 0.417012
11 2 0.453662 0.114578 0.554092
12 2 0.85893 0.44546 0.389129
13 2 0.0625442 0.285754 0.284445
14 2 0.239206 0.244306 0.25969
15 2 0.125292 0.482983 0.74531
16 2 0.262131 0.390152 0.426959
17 2 0.155079 0.298146 0.91587
18 2 0.409832 0.229667 0.200608
19 2 0.426798 0.447042 0.520394
20 2 0.824247 0.417491 0.734767
21 2 0.958837 0.290844 0.199614
22 2 0.104161 0.173708 0.0721123
23 2 0.714044 0.44792 0.915986
24 2 0.0915754 0.275832 0.380402
25 2 0.405126 0.241227 0.969051
26 2 0.624685 0.392044 0.596304
27 2 0.295061 0.115902 0.913027
28 2 0.391044 0.112406 0.45154
29 2 1.39095e-05 0.206069 0.977601
30 2 0.273684 0.141754 0.477474
31 2 0.203242 0.0769089 0.236479
32 2 0.041232 0.476876 0.315789
33 2 0.379431 0.192546 0.0984864
34 2 0.740452 0.612747 0.144282
35 2 0.279731 0.178508 0.372281
36 2 0.33867 0.194899 0.357695
37 2 0.12104 0.0124684 0.416343
38 2 0.926346 0.619308 0.315128
39 2 0.242593 0.456866 0.181244
40 2 0.876608 0.834417 0.373217
41 2 0.796156 0.219319 0.381968
42 2 0.419232 0.392148 0.304892
43 2 0.291596 0.356837 0.724871
44 2 0.742859 0.230545 0.619886
45 2 0.179056 0.943737 0.528724
46 2 0.441048 0.528257 0.529718
47 2 0.0363367 0.404264 0.920109
48 2 0.325668 0.291828 0.420552
49 2 0.145983 0.904312 0.0492065
50 2 0.21304 0.1584 0.396498
51 2 0.823203 0.343526 0.433976
52 2 0.384506 0.2176 0.325166
53 2 0.228051 0.220587 0.365599
54 2 0.315495 0.514381 0.898929
55 2 0.00680913 0.420578 0.817443
56 2 0.697163 0.287268 0.145767
57 2 0.501541 0.442012 0.947246
58 2 0.348485 0.469139 0.210485
59 2 0.917861 0.0870496 0.830731
60 2 0.748613 0.370684 0.330841
61 2 0.402152 0.250371 0.121782
62 2 0.171684 0.424371 0.268194
63 2 0.0624402 0.285112 0.122403
64 2 0.72407 0.108401 0.197522
65 2 0.189618 0.485543 0.328725
66 2 0.360541 0.498946 0.189524
67 2 0.346273 0.418664 0.550499
68 2 0.283502 0.490942 0.383746
69 2 0.708101 0.556353 0.643927
70 2 0.143264 0.444882 0.119958
71 2 0.80239 0.374283 0.447259
72 2 0.15228 0.36846 0.353183
73 2 0.307713 0.0281982 0.0780739
74 2 0.154132 0.284733 0.948052
75 2 0.225824 0.386226 0.667079
76 2 0.689277 0.329703 0.617535
77 2 0.0117749 0.310584 0.304116
78 2 0.0575826 0.118472 0.467174
79 2 0.108227 0.658594 0.228881
80 2 0.592449 0.926266 0.182595
81 2 0.232333 0.143453 0.269517
82 2 0.208687 0.429373 0.903512
83 2 0.469015 0.318621 0.0874959
84 2 0.154703 0.453451 0.286793
85 2 0.357301 0.231978 0.245646
86 2 0.275612 0.141866 0.0399002
87 2 0.265881 0.11959 0.382672
88 2 0.295948 0.131883 0.33494
89 2 0.276119 0.292626 0.484594
90 2 0.0180342 0.208555 0.168729
91 2 0.0535888 0.232434 0.445681
92 2 0.278687 0.573299 0.57935
93 2 0.292747 0.268822 0.373426
94 2 0.452114 0.202455 0.607837
95 2 0.367205 0.00664186 0.262257
96 2 0.279146 0.0610909 0.38254
97 2 0.660123 0.150659 0.367
98 2 0.53961 0.393324 0.923163
99 2 0.992116 0.419511 0.548607
100 2 0.13882 0.219548 0.942944
101 2 0.34156 0.174788 0.241927
102 2 0.618241 0.0654136 0.388653
103 2 0.674712 0.0839843 0.200034
104 2 0.704158 0.957429 0.397045
105 2 0.419417 0.177342 0.358933
106 2 0.299397 0.620129 0.552561
107 2 0.132133 0.1422 0.0754351
108 2 0.256743 0.520073 0.307692
109 2 0.298609 0.368816 0.140221
110 2 0.31938 0.409835 0.182463
111 2 0.963585 0.169454 0.801951
112 2 0.156784 0.222451 0.426031
113 2 0.438671 0.467047 0.548893
114 2 0.350398 0.969567 0.273723
115 2 0.196016 0.367696 0.115298
116 2 0.304884 0.48303 0.512585
117 2 0.75515 0.463617 0.250581
118 2 0.134959 0.433816 0.342314
119 2 0.295001 0.822309 0.455996
120 2 0.706562 0.136785 0.247368
121 2 0.834447 0.856469 0.778886
122 2 0.144612 0.953539 0.298913
123 2 0.955685 0.257912 0.0552416
124 2 0.369286 0.358594 0.316557
125 2 0.316736 0.0398754 0.422782
126 2 0.456294 0.48468 0.668089
127 2 0.150562 0.612139 0.0924047
128 2 0.11433 0.122953 0.236865
129 2 0.264013 0.378963 0.534864
130 2 0.159647 0.23653 0.0770716
131 2 0.437495 0.906521 0.39285
132 2 0.267814 0.0748064 0.448785
133 2 0.177 0.108256 0.731344
134 2 0.446944 0.459747 0.424609
135 2 0.339139 0.072112 0.207128
136 2 0.393116 0.466741 0.308139
137 2 0.773171 0.177196 0.952968
138 2 0.579913 0.461735 0.331003
139 2 0.194227 0.212288 0.34936
140 2 0.415246 0.0479451 0.816594
141 2 0.257602 0.0197371 0.167337
142 2 0.365244 0.997369 0.566662
143 2 0.0508383 0.262962 0.178976
144 2 0.703349 0.239582 0.926777
145 2 0.498595 0.549819 0.313593
146 2 0.281467 0.145153 0.786538
147 2 0.464679 0.0143389 0.275166
148 2 0.116435 0.219951 0.915143
149 2 0.0670747 0.208017 0.123634
150 2 0.542337 0.0827527 0.261494
151 2 0.562137 0.41897 0.941678
152 2 0.527869 0.128367 0.15904
153 2 0.157125 0.424849 0.389452
154 2 0.321217 0.258642 0.287012
155 2 0.859715 0.353405 0.22948
156 2 0.0728183 0.146052 0.329206
157 2 0.0696565 0.334528 0.324316
158 2 0.377512 0.792123 0.598854
159 2 0.339591 0.192041 0.297893
160 2 0.743683 0.368474 0.9251
161 2 0.389698 0.846709 0.167213
162 2 0.18183 0.272315 0.286692
163 2 0.0603832 0.386171 0.354281
164 2 0.353115 0.149719 0.542796
165 2 0.78852 0.326017 0.19086
166 2 0.328599 0.16031 0.499301
167 2 0.13005 0.615509 0.438072
168 2 0.60183 0.938427 0.553664
169 2 0.225102 0.512987 0.395379
170 2 0.642851 0.575393 0.284552
171 2 0.0420873 0.163689 0.997723
172 2 0.970449 0.193741 0.957256
173 2 0.511416 0.232528 0.702041
174 2 0.239667 0.497526 0.423934
175 2 0.295299 0.0524141 0.815081
176 2 0.146072 0.333982 0.119904
177 2 0.488137 0.362298 0.284446
178 2 0.290032 0.251336 0.632148
179 2 0.291851 0.385276 0.448056
180 2 0.299426 0.941417 0.0744293
181 2 0.402416 0.864894 0.382528
182 2 0.322596 0.491566 0.462155
183 2 0.33963 0.386151 0.270785
184 2 0.302364 0.436232 0.29746
185 2 0.159138 0.244385 0.217892
186 2 0.453348 0.398777 0.181576
187 2 0.309744 0.400223 0.372053
188 2 0.289186 0.208948 0.891276
189 2 0.900176 0.535652 0.0363544
190 2 0.320002 0.0349581 0.300857
191 2 0.249175 0.781534 0.420339
192 2 0.799182 0.148161 0.949761
193 2 0.128484 0.582988 0.271912
194 2 0.536372 0.184268 0.605282
195 2 0.195202 0.405208 0.124127
196 2 0.490786 0.400114 0.172875
197 2 0.101411 0.253293 0.90108
198 2 0.375701 0.162445 0.0391231
199 2 0.54462 0.339948 0.278966
200 2 0.149756 0.251649 0.137121
201 2 0.459558 0.0687611 0.212822
202 2 0.740189 0.4779 0.908663
203 2 0.472213 0.748538 0.415648
204 2 0.22381 0.0128935 0.44169
205 2 0.34491 0.36068 0.343834
206 2 0.262055 0.0417704 0.330327
207 2 0.599256 0.144307 0.121869
208 2 0.220397 0.197352 0.217742
209 2 0.197471 0.366953 0.97863
210 2 0.454497 0.124572 0.167294
211 2 0.111259 0.377612 0.318587
212 2 0.312184 0.942567 0.860581
213 2 0.821692 0.198019 0.51457
214 2 0.149078 0.232473 0.00188006
215 2 0.255867 0.443437 0.863839
216 2 0.426905 0.411211 0.159309
217 2 0.175929 0.341432 0.368241
218 2 0.096281 0.995411 0.438627
219 2 0.380298 0.813743 0.0793088
220 2 0.115382 0.954688 0.397377
221 2 0.274712 0.0620306 0.517415
222 2 0.0987051 0.203179 0.416201
223 2 0.194691 0.3589 0.826223
224 2 0.11012 0.868744 0.208408
225 2 0.617916 0.0176579 0.289663
226 2 0.98402 0.227515 0.158896
227 2 0.48818 0.1713 0.69511
228 2 0.0778007 0.790787 0.120184
229 2 0.96536 0.151926 0.293228
230 2 0.496883 0.0386392 0.72094
231 2 0.510612 0.340676 0.263366
232 2 0.447939 0.0220112 0.381416
233 2 0.981962 0.516867 0.305941
234 2 0.0826488 0.972861 0.386581
235 2 0.495429 0.0897705 0.0162386
236 2 0.593347 0.178098 0.824628
237 2 0.327622 0.42392 0.322411
238 2 0.814436 0.977324 0.522698
239 2 0.0644199 0.810969 0.176016
240 2 0.635925 0.423771 0.33853
241 2 0.253234 0.371089 0.397649
242 2 0.43699 0.930686 0.103624
243 2 0.57034 0.333339 0.924348
244 2 0.00782709 0.241782 0.103643
245 2 0.717055 0.231071 0.979367
246 2 0.960593 0.137778 0.0704272
247 2 0.669713 0.195271 0.413798
248 2 0.107746 0.720146 0.432229
249 2 0.519325 0.119257 0.302761
250 2 0.24773 0.917558 0.774801
251 2 0.430266 0.476012 0.300219
252 2 0.450421 0.27992 0.143789
253 2 0.202445 0.12734 0.316436
254 2 0.969838 0.0776873 0.473132
255 2 0.818419 0.65503 0.443812
256 2 0.010451 0.358961 0.333416
257 2 0.381248 0.00799806 0.202169
258 2 0.643329 0.269004 0.261532
259 2 0.328141 0.376889 0.164149
260 2 0.161474 0.00238519 0.528279
261 2 0.976954 0.225423 0.870783
262 2 0.437631 0.0365285 0.455531
263 2 0.0492117 0.648587 0.159953
264 2 0.942007 0.2222 0.369502
265 2 0.118205 0.869444 0.90341
266 2 0.212778 0.372138 0.208481
267 2 0.29127 0.100348 0.24436
268 2 0.387286 0.494248 0.550511
269 2 0.282454 0.375548 0.339862
270 2 0.158968 0.319592 0.149156
271 2 0.290506 0.807998 0.295277
272 2 0.0393018 0.183456 0.0483583
273 2 0.205825 0.0170312 0.207543
274 2 0.300659 0.00728818 0.0103949
275 2 0.440451 0.383294 0.637551
276 2 0.312946 0.407583 0.744018
277 2 0.293832 0.108878 0.7786
278 2 0.0493301 0.189516 0.381004
279 2 0.703105 0.105742 0.352322
280 2 0.257793 0.405155 0.337272
281 2 0.175942 0.234201 0.247144
282 2 0.516261 0.293113 0.342733
283 2 0.553226 0.728613 0.588308
284 2 0.128966 0.0766179 0.33832
285 2 0.322508 0.15197 0.220522
286 2 0.226897 0.523869 0.146313
287 2 0.0417097 0.222875 0.101826
288 2 0.815485 0.257381 0.992579
289 2 0.0151823 0.12242 0.174692
290 2 0.0853644 0.279116 0.345526
291 2 0.501343 0.201804 0.395404
292 2 0.226401 0.379176 0.288722
293 2 0.679102 0.111609 0.406691
294 2 0.102567 0.326442 0.173885
295 2 0.0938993 0.909349 0.593798
296 2 0.883345 0.377896 0.277345
297 2 0.427278 0.285979 0.292364
298 2 0.748634 0.170757 0.866658
299 2 0.0990613 0.63727 0.798472
300 2 0.350608 0.203942 0.904665
301 2 0.984705 0.247662 0.716989
302 2 0.40427 0.103066 0.350473
303 2 0.282671 0.870979 0.426187
304 2 0.89816 0.0720794 0.239355
305 2 0.545068 0.091404 0.294751
306 2 0.487646 0.505691 0.219986
307 2 0.252938 0.493358 0.567432
308 2 0.943138 0.40924 0.924277
309 2 0.87294 0.275581 0.551196
310 2 0.584576 0.716671 0.392765
311 2 0.296607 0.248686 0.230572
312 2 0.143459 0.236428 0.504377
313 2 0.414336 0.272337 0.41101
314 2 0.401136 0.336898 0.316623
315 2 0.425632 0.835128 0.346376
316 2 0.368746 0.29115 0.502298
317 2 0.133777 0.953131 0.829749
318 2 0.0688513 0.0616616 0.146356
319 2 0.338477 0.074206 0.0337174
320 2 0.264936 0.321158 0.839922
321 2 0.636538 0.373118 0.312745
322 2 0.240335 0.0741831 0.424653
323 2 0.500274 0.0568447 0.322489
324 2 0.391088 0.158526 0.377259
325 2 0.0628724 0.519283 0.235684
326 2 0.211487 0.188079 0.303813
327 2 0.346275 0.0814706 0.904324
328 2 0.59534 0.421356 0.747301
329 2 0.0647862 0.333635 0.402091
330 2 0.541271 0.282482 0.959032
331 2 0.130445 0.267 0.230245
332 2 0.492368 0.567745 0.544037
333 2 0.470595 0.365187 0.174137
334 2 0.560437 0.269802 0.459903
335 2 0.241944 0.205565 0.165653
336 2 0.0796007 0.168725 0.00853203
337 2 0.243818 0.2208 0.860109
338 2 0.994652 0.150426 0.157076
339 2 0.446294 0.120563 0.768644
340 2 0.463566 0.934713 0.297029
341 2 0.269067 0.300177 0.274886
342 2 0.668263 0.0212846 0.3242
343 2 0.201139 0.671306 0.300567
344 2 0.469977 0.89555 0.297181
345 2 0.727278 0.0945405 0.284591
346 2 0.49791 0.0794157 0.458179
347 2 0.30923 0.0385756 0.386935
348 2 0.168126 0.0891751 0.445765
349 2 0.457421 0.49394 0.410738
350 2 0.405637 0.378743 0.5858
351 2 0.377525 0.855808 0.316169
352 2 0.0314397 0.447057 0.226856
353 2 0.71724 0.256244 0.267505
354 2 0.245283 0.184553 0.451929
355 2 0.128283 0.150418 0.214253
356 2 0.292625 0.0944193 0.393958
357 2 0.553514 0.891913 0.204083
358 2 0.450716 0.0410671 0.145831
359 2 0.249584 0.158354 0.931897
360 2 0.516272 0.437393 0.282737
361 2 0.301847 0.437481 0.364986
362 2 0.0386485 0.2654 0.0997146
363 2 0.723224 0.164157 0.0233822
364 2 0.544455 0.212202 0.271043
365 2 0.999773 0.391268 0.620208
366 2 0.239145 0.455299 0.3062
367 2 0.264208 0.729497 0.034545
368 2 0.524595 0.790333 0.10046
369 2 0.0041575 0.476817 0.358641
370 2 0.337651 0.12579 0.978306
371 2 0.206914 0.992338 0.0153235
372 2 0.779437 0.584814 0.85115
373 2 0.138292 0.990822 0.502403
374 2 0.394765 0.41405 0.410659
375 2 0.385773 0.0308767 0.0433339
376 2 0.279279 0.422382 0.22572
377 2 0.701249 0.164168 0.273187
378 2 0.512314 0.426906 0.221191
379 2 0.391841 0.122001 0.297114
380 2 0.626716 0.24501 0.307716
381 2 0.35093 0.375138 0.849805
382 2 0.509108 0.360939 0.208817
383 2 0.987824 0.598571 0.120343
384 2 0.0602404 0.102305 0.0131272
385 2 0.0868857 0.596373 0.164497
386 2 0.702072 0.136432 0.00687023
387 2 0.567383 0.268543 0.141745
388 2 0.125271 0.168858 0.279755
389 2 0.422885 0.355549 0.293841
390 2 0.571855 0.196647 0.448491
391 2 0.343463 0.00690312 0.809957
392 2 0.522355 0.995089 0.282251
393 2 0.216684 0.892156 0.305611
394 2 0.996637 0.283985 0.283432
395 2 0.268798 0.974766 0.594398
396 2 0.408987 0.344353 0.749533
397 2 0.370645 0.359452 0.582099
398 2 0.471391 0.670741 0.309283
399 2 0.469327 0.154166 0.124635
400 2 0.731912 0.339106 0.505095
401 2 0.0341321 0.852145 0.0750579
402 2 0.980156 0.482702 0.8312
403 2 0.767929 0.032358 0.575887
404 2 0.421287 0.329239 0.344871
405 2 0.401354 0.238917 0.865465
406 2 0.700753 0.34941 0.358865
407 2 0.204265 0.854866 0.308368
408 2 0.151359 0.179401 0.840551
409 2 0.345432 0.152041 0.432103
410 2 0.0937507 0.178342 0.170775
411 2 0.379962 0.145121 0.844131
412 2 0.160499 0.996425 0.474204
413 2 0.635767 0.203314 0.429371
414 2 0.403024 0.121064 0.380952
415 2 0.153249 0.520193 0.198703
416 2 0.523545 0.0632918 0.808643
417 2 0.152514 0.151546 0.298184
418 2 0.435181 0.069949 0.311919
419 2 0.136815 0.287879 0.145871
420 2 0.265126 0.171289 0.0598557
421 2 0.575588 0.802916 0.19241
422 2 0.0663177 0.0228146 0.141411
423 2 0.473575 0.0711542 0.300556
424 2 0.168017 0.339096 0.424771
425 2 0.274665 0.36509 0.200285
426 2 0.334602 0.38731 0.94217
427 2 0.103765 0.0826737 0.145524
428 2 0.830286 0.669793 0.362931
429 2 0.317523 0.0397371 0.131786
430 2 0.602793 0.301495 0.961509
431 2 0.241088 0.0728218 0.277525
432 2 0.939343 0.786408 0.602954
433 2 0.457545 0.48757 0.482091
434 2 0.134779 0.134219 0.157438
435 2 0.873078 0.996557 0.270534
436 2 0.126397 0.600645 0.116377
437 2 0.486152 0.870541 0.42319
438 2 0.151308 0.311155 0.368265
439 2 0.118633 0.365329 0.370697
440 2 0.196458 0.490957 0.271027
441 2 0.32712 0.741565 0.428518
442 2 0.42462 0.169133 0.261952
443 2 0.766023 0.40004 0.349062
444 2 0.466328 0.2703 0.799894
445 2 0.650552 0.241321 0.369729
446 2 0.163996 0.379968 0.229684
447 2 0.0703481 0.160473 0.260184
448 2 0.207683 0.423072 0.256219
449 2 0.186914 0.108438 0.4187
450 2 0.251279 0.333447 0.965592
451 2 0.35502 0.446383 0.261216
452 2 0.111618 0.405174 0.24301
453 2 0.303456 0.243643 0.496349
454 2 0.870995 0.425214 0.327955
455 2 0.826172 0.457147 0.263858
456 2 0.389019 0.157471 0.00504464
457 2 0.711316 0.678751 0.0902158
458 2 0.116147 0.308901 0.122584
459 2 0.105298 0.871137 0.602115
460 2 0.507256 0.923655 0.262949
461 2 0.68582 0.323191 0.157374
462 2 0.530979 0.317805 0.73944
463 2 0.86609 0.625877 0.410302
464 2 0.93111 0.388254 0.53115
465 2 0.596475 0.00381034 0.190348
466 2 0.113858 0.958955 0.560445
467 2 0.201906 0.165773 0.227462
468 2 0.451831 0.229578 0.318867
469 2 0.348032 0.960484 0.374534
470 2 0.10027 0.929449 0.0944461
471 2 0.288352 0.213259 0.0184234
472 2 0.210255 0.432095 0.223153
473 2 0.780059 0.828467 0.426824
474 2 0.22779 0.065797 0.789296
475 2 0.298984 0.297462 0.702961
476 2 0.0709829 0.2828 0.20401
477 2 0.15551 0.0690783 0.533574
478 2 0.203205 0.958233 0.249417
479 2 0.475331 0.702254 0.332462
480 2 0.715804 0.415371 0.894034
481 2 0.164221 0.431375 0.939128
482 2 0.904689 0.175491 0.205028
483 2 0.225748 0.248753 0.634788
484 2 0.660514 0.281634 0.82982
485 2 0.406022 0.470955 0.157631
486 2 0.0313786 0.223038 0.0518424
487 2 0.354148 0.614001 0.406399
488 2 0.466672 0.880215 0.240356
489 2 0.335563 0.267486 0.34212
490 2 0.419004 0.297852 0.43644
491 2 0.330957 0.753765 0.273118
492 2 0.693836 0.78581 0.0324558
493 2 0.159518 0.47508 0.857199
494 2 0.212105 0.259242 0.414985
495 2 0.347463 0.210346 0.327081
496 2 0.0152008 0.104307 0.232095
497 2 0.457302 0.744042 0.757418
498 2 0.904364 0.200708 0.257238
499 2 0.208623 0.192274 0.443617
500 2 0.527256 0.168836 0.231477
501 2 0.808535 0.350239 0.911195
502 2 0.0995557 0.269535 0.288947
503 2 0.71548 0.177897 0.936107
504 2 0.211999 0.673317 0.127403
505 2 0.810419 0.290595 0.854166
506 2 0.102369 0.202897 0.359071
507 2 0.153002 0.967875 0.452304
508 2 0.173662 0.340786 0.584168
509 2 0.0794521 0.111105 0.2229
510 2 0.637937 0.856298 0.58816
511 2 0.972945 0.387706 0.0163327
512 2 0.0793854 0.21259 0.386848
513 2 0.267148 0.572647 0.159933
514 2 0.471172 0.41731 0.539299
515 2 0.152159 0.942665 0.350396
516 2 0.483815 0.785622 0.454499
517 2 0.293047 0.139564 0.239871
518 2 0.77592 0.0659464 0.193401
519 2 0.0480147 0.465514 0.168256
520 2 0.753766 0.923295 0.399039
521 2 0.447343 0.334988 0.892882
522 2 0.325874 0.103821 0.19232
523 2 0.172296 0.271922 0.893604
524 2 0.45985 0.0777452 0.247939
525 2 0.0582035 0.380333 0.439104
526 2 0.255711 0.523392 0.471305
527 2 0.348306 0.202541 0.116941
528 2 0.532253 0.190989 0.915617
529 2 0.354913 0.124169 0.454715
530 2 0.282363 0.440243 0.42186
531 2 0.815483 0.0775354 0.242399
532 2 0.766794 0.0358202 0.87379
533 2 0.473724 0.168091 0.567566
534 2 0.282867 0.964704 0.189783
535 2 0.450963 0.86142 0.875792
536 2 0.994555 0.245019 0.33142
537 2 0.142629 0.0164217 0.225906
538 2 0.116052 0.534215 0.401953
539 2 0.067021 0.764683 0.400128
540 2 0.00804838 0.630849 0.128261
541 2 0.3595 0.087558 0.255321
542 2 0.358359 0.823664 0.637431
543 2 0.39454 0.879239 0.60246
544 2 0.0338732 0.347929 0.122405
545 2 0.594435 0.364877 0.467111
546 2 0.898853 0.311428 0.983543
547 2 0.0492661 0.305929 0.311076
548 2 0.0401129 0.61553 0.143215
549 2 0.173298 0.704021 0.365332
550 2 0.777663 0.412699 0.851952
551 2 0.12691 0.188186 0.226134
552 2 0.0351108 0.380235 0.140123
553 2 0.249288 0.0475282 0.401302
554 2 0.157888 0.311458 0.732295
555 2 0.171819 0.472029 0.124009
556 2 0.311505 0.262191 0.172079
557 2 0.539218 0.309581 0.932185
558 2 0.22985 0.139485 0.235189
559 2 0.837255 0.549238 0.159656
560 2 0.436904 0.161527 0.293494
561 2 0.0072134 0.503034 0.200424
562 2 0.0799052 0.122081 0.438857
563 2 0.303029 0.185772 0.286066
564 2 0.0813492 0.271495 0.651851
565 2 0.498096 0.317147 0.48168
566 2 0.935735 0.114231 0.0555316
567 2 0.435911 0.325677 0.104567
568 2 0.382194 0.413231 0.196559
569 2 0.330836 0.0196848 0.269398
570 2 0.165374 0.15259 0.59303
571 2 0.270853 0.480229 0.133397
572 2 0.2718 0.0728994 0.349882
573 2 0.667403 0.358181 0.717737
574 2 0.0848621 0.112084 0.577686
575 2 0.445718 0.559227 0.122296
576 2 0.158468 0.0690223 0.385985
577 2 0.315026 0.168391 0.18986
578 2 0.278326 0.10533 0.594224
579 2 0.386123 0.976057 0.466671
580 2 0.528175 0.176811 0.485667
581 2 0.06276 0.397194 0.215624
582 2 0.238413 0.201087 0.966118
583 2 0.464365 0.928695 0.407936
584 2 0.913765 0.21102 0.0355359
585 2 0.201961 0.0841342 0.270976
586 2 0.185426 0.174437 0.349118
587 2 0.522493 0.143789 0.104484
588 2 0.514712 0.554868 0.174721
589 2 0.155774 0.284654 0.393376
590 2 0.139826 0.454793 0.681504
591 2 0.158278 0.556363 0.756782
592 2 0.0760991 0.452692 0.365447
593 2 0.362282 0.769817 0.649922
594 2 0.0866323 0.355305 0.299961
595 2 0.0486874 0.21888 0.329263
596 2 0.828886 0.166679 0.0510194
597 2 0.00780969 0.338457 0.0391499
598 2 0.361853 0.997679 0.330685
599 2 0.420872 0.137039 0.59619
600 2 0.344041 0.0859394 0.979906
601 2 0.289035 0.901942 0.123321
602 2 0.0107172 0.12771 0.0363568
603 2 0.493143 0.290835 0.288213
604 2 0.980223 0.00834888 0.017064
605 2 0.19739 0.489579 0.566692
606 2 0.309041 0.960999 0.708657
607 2 0.4173 0.261327 0.153049
608 2 0.546795 0.0824717 0.53785
609 2 0.85148 0.472498 0.286861
610 2 0.353176 0.210809 0.607935
611 2 0.317632 0.45719 0.270527
612 2 0.0777704 0.400917 0.963515
613 2 0.468226 0.398506 0.617284
614 2 0.283534 0.285816 0.325578
615 2 0.909195 0.305899 0.0170604
616 2 0.488887 0.877092 0.166737
617 2 0.294775 0.498384 0.614595
618 2 0.320064 0.279524 0.72837
619 2 0.327755 0.131148 0.282257
620 2 0.966599 0.585719 0.40537
621 2 0.708642 0.349958 0.453625
622 2 0.81542 0.315298 0.804943
623 2 0.194336 0.290616 0.238734
624 2 0.301296 0.636083 0.288143
625 2 0.207745 0.489068 0.643661
626 2 0.093444 0.209613 0.478248
627 2 0.0309265 0.25305 0.320447
628 2 0.164965 0.404636 0.183305
629 2 0.544235 0.361354 0.357913
630 2 0.190612 0.122743 0.497668
631 2 0.211145 0.303448 0.483188
632 2 0.295358 0.149485 0.273533
633 2 0.624564 0.0682598 0.317029
634 2 0.864645 0.16605 0.404626
635 2 0.399045 0.056509 0.217878
636 2 0.0644473 0.5147 0.350088
637 2 0.52766 0.615149 0.918048
638 2 0.337647 0.567263 0.347194
639 2 0.497021 0.229483 0.765225
640 2 0.431651 0.304918 0.492795
641 2 0.252474 0.39893 0.823403
642 2 0.885028 0.976125 0.242344
643 2 0.297315 0.457377 0.393176
644 2 0.191366 0.333359 0.962275
645 2 0.20832 0.287062 0.206789
646 2 0.897862 0.358803 0.230078
647 2 0.188077 0.342401 0.205275
648 2 0.338387 0.0932734 0.284062
649 2 0.876487 0.208478 0.0268082
650 2 0.857167 0.938115 0.106443
651 2 0.586753 0.621135 0.751372
652 2 0.00494967 0.877378 0.0261267
653 2 0.487989 0.436791 0.513121
654 2 0.736637 0.242967 0.907375
655 2 0.173667 0.161847 0.769656
656 2 0.32728 0.140297 0.315774
657 2 0.211918 0.0446162 0.511696
658 2 0.385493 0.347997 0.205244
659 2 0.346466 0.211653 0.41583
660 2 0.598644 0.532876 0.340565
661 2 0.296602 0.692644 0.47982
662 2 0.562061 0.0977797 0.901641
663 2 0.460164 0.0954803 0.716552
664 2 0.222612 0.654045 0.325131
665 2 0.24868 0.324287 0.126664
666 2 0.590675 0.187597 0.180632
667 2 0.281492 0.188664 0.40506
668 2 0.861614 0.443657 0.423111
669 2 0.178776 0.701533 0.309632
670 2 0.0298313 0.499079 0.341449
671 2 0.457211 0.517139 0.17124
672 2 0.354346 0.159884 0.365645
673 2 0.18045 0.510061 0.518023
674 2 0.154813 0.389682 0.681626
675 2 0.12191 0.301808 0.289682
676 2 0.756489 0.203126 0.524033
677 2 0.994972 0.243668 0.215553
678 2 0.973568 0.32209 0.000578926
679 2 0.318795 0.390018 0.339792
680 2 0.537597 0.407808 0.805432
681 2 0.325468 0.247444 0.861944
682 2 0.93868 0.391082 0.809058
683 2 0.523821 0.788563 0.32889
684 2 0.157717 0.045041 0.203188
685 2 0.359645 0.446949 0.854657
686 2 0.924242 0.199091 0.226245
687 2 0.185377 0.654747 0.148501
688 2 0.137971 0.332624 0.989874
689 2 0.386232 0.414606 0.102759
690 2 0.284782 0.219045 0.211074
691 2 0.69624 0.389023 0.449153
692 2 0.405421 0.1855 0.328555
693 2 0.0631515 0.288515 0.933586
694 2 0.294393 0.103479 0.442167
695 2 0.193865 0.0182066 0.392336
696 2 0.0211063 0.483419 0.914809
697 2 0.220717 0.00345412 0.611136
698 2 0.123051 0.346232 0.2533
699 2 0.958996 0.214144 0.283591
700 2 0.162212 0.972457 0.131497
701 2 0.0954744 0.0579363 0.341349
702 2 0.0982123 0.389182 0.350426
703 2 0.429393 0.797569 0.0456572
704 2 0.424856 0.262544 0.0963429
705 2 0.156735 0.557569 0.189292
706 2 0.101799 0.387441 0.212319
707 2 0.147127 0.585234 0.302264
708 2 0.041495 0.359768 0.877793
709 2 0.236155 0.0799808 0.843763
710 2 0.402451 0.64205 0.202633
711 2 0.234092 0.361627 0.488006
712 2 0.0810583 0.519885 0.317305
713 2 0.326707 0.986782 0.223708
714 2 0.507027 0.266454 0.0787753
715 2 0.700404 0.783241 0.641461
716 2 0.22339 0.0423715 0.230028
717 2 0.0269758 0.462298 0.440883
718 2 0.280175 0.478471 0.0792736
719 2 0.914877 0.319081 0.463678
720 2 0.791277 0.860142 0.40809
721 2 0.448933 0.154412 0.362774
722 2 0.192661 0.643141 0.855005
723 2 0.110052 0.138196 0.336543
724 2 0.421126 0.481828 0.729373
725 2 0.0930655 0.936963 0.147983
726 2 0.481243 0.456451 0.332635
727 2 0.188092 0.445337 0.434557
728 2 0.423459 0.143415 0.155087
729 2 0.841997 0.814489 0.417835
730 2 0.385532 0.392357 0.322307
731 2 0.00449798 0.135779 0.493503
732 2 0.418879 0.423065 0.348206
733 2 0.471107 0.293307 0.196161
734 2 0.260904 0.264499 0.235689
735 2 0.87686 0.498855 0.27371
736 2 0.579119 0.0612092 0.385369
737 2 0.728364 0.27171 0.223251
738 2 0.276593 0.460133 0.163818
739 2 0.141322 0.330294 0.817626
740 2 0.217462 0.443632 0.872553
741 2 0.217145 0.538593 0.593583
742 2 0.302353 0.30832 0.917688
743 2 0.949333 0.371218 0.929594
744 2 0.998656 0.229797 0.0708851
745 2 0.418405 0.139259 0.450191
746 2 0.286457 0.141972 0.444987
747 2 0.0480377 0.0118648 0.0738013
748 2 0.775851 0.0604147 0.289406
749 2 0.435624 0.23648 0.263534
750 2 0.361123 0.238685 0.664941
751 2 0.0526803 0.288376 0.234493
752 2 0.412083 0.355388 0.0956404
753 2 0.24913 0.253395 0.532099
754 2 0.438569 0.103292 0.523315
755 2 0.381514 0.563599 0.382607
756 2 0.429386 0.171116 0.208138
757 2 0.429164 0.625944 0.537595
758 2 0.832453 0.991455 0.213661
759 2 0.0659722 0.582346 0.340052
760 2 0.476989 0.151939 0.182887
761 2 0.0467292 0.25505 0.796576
762 2 0.958916 0.383028 0.355911
763 2 0.368355 0.423849 0.903619
764 2 0.444658 0.608282 0.305819
765 2 0.178127 0.419464 0.484371
766 2 0.0225231 0.914642 0.0787002
767 2 0.968889 0.637317 0.878939
768 2 0.0130874 0.469469 0.180894
769 2 0.343286 0.281828 0.160188
770 2 0.15115 0.353165 0.207145
771 2 0.244094 0.0992607 0.358961
772 2 0.238325 0.203618 0.130853
773 2 0.862761 0.112428 0.494769
774 2 0.152121 0.208348 0.626969
775 2 0.286042 0.957588 0.470015
776 2 0.216605 0.243377 0.843193
777 2 0.00860984 0.967534 0.0956334
778 2 0.345343 0.55283 0.29567
779 2 0.0559936 0.0501874 0.221848
780 2 0.377993 0.337527 0.941085
781 2 0.584956 0.391659 0.492234
782 2 0.0448943 0.352454 0.25997
783 2 0.930472 0.437749 0.0342961
784 2 0.24012 0.139085 0.987934
785 2 0.0939069 0.364423 0.123172
786 2 0.411521 0.330088 0.223745
787 2 0.306036 0.993627 0.75701
788 2 0.481333 0.393191 0.479176
789 2 0.157929 0.39275 0.283211
790 2 0.278528 0.678351 0.390157
791 2 0.217798 0.149455 0.0333127
792 2 0.275796 0.287136 0.450104
793 2 0.0485528 0.0891197 0.84232
794 2 0.463458 0.960647 0.323819
795 2 0.0381111 0.334225 0.99527
796 2 0.341859 0.292674 0.476274
797 2 0.369678 0.616787 0.205435
798 2 0.158701 0.792786 0.0631209
799 2 0.204387 0.120824 0.28208
800 2 0.718788 0.877479 0.354199
801 2 0.470199 0.98806 0.113975
802 2 0.555823 0.338539 0.225293
803 2 0.293993 0.515864 0.263712
804 2 0.0775202 0.203233 0.44665
805 2 0.225245 0.109229 0.424127
806 2 0.352209 0.288091 0.107934
807 2 0.144861 0.438556 0.179356
808 2 0.32838 0.402924 0.604132
809 2 0.020561 0.179382 0.0776665
810 2 0.24027 0.345487 0.299991
811 2 0.389826 0.349241 0.485524
812 2 0.311619 0.0690603 0.15419
813 2 0.0456216 0.108158 0.582886
814 2 0.363733 0.379042 0.487705
815 2 0.257347 0.0203133 0.425231
816 2 0.0443078 0.440587 0.113558
817 2 0.195782 0.304407 0.724825
818 2 0.105397 0.503948 0.119518
819 2 0.189073 0.82436 0.51397
820 2 0.0909388 0.237173 0.135598
821 2 0.680147 0.260131 0.875217
822 2 0.503643 0.149242 0.475663
823 2 0.979491 0.230027 0.124834
824 2 0.494155 0.279421 0.641001
825 2 0.392626 0.0793351 0.733924
826 2 0.787132 0.433433 0.168287
827 2 0.134225 0.553213 0.908015
828 2 0.473149 0.62818 0.352392
829 2 0.168638 0.0500636 0.442085
830 2 0.113052 0.402845 0.507212
831 2 0.0291837 0.191561 0.230511
832 2 0.301546 0.195444 0.349121
833 2 0.945975 0.174447 0.107363
834 2 0.714456 0.802092 0.385348
835 2 0.721192 0.201698 0.86363
836 2 0.395461 0.393796 0.355432
837 2 0.119383 0.166402 0.358504
838 2 0.584199 0.498424 0.137978
839 2 0.329991 0.894311 0.890389
840 2 0.502628 0.31159 0.154468
841 2 0.623826 0.459389 0.522783
842 2 0.951558 0.261473 0.00333595
843 2 0.206627 0.646489 0.236522
844 2 0.535867 0.150746 0.285666
845 2 0.906678 0.211512 0.384028
846 2 0.490448 0.831482 0.36427
847 2 0.109451 0.990248 0.0369526
848 2 0.158204 0.171723 0.470716
849 2 0.460145 0.36667 0.498821
850 2 0.815043 0.205721 0.774952
851 2 0.398553 0.0840184 0.473692
852 2 0.545974 0.327807 0.311114
853 2 0.0522698 0.234616 0.605433
854 2 0.14005 0.428317 0.63242
855 2 0.356247 0.136891 0.487961
856 2 0.440062 0.199295 0.115746
857 2 0.000859973 0.3015 0.946547
858 2 0.320325 0.366845 0.89709
859 2 0.187333 0.351399 0.452939
860 2 0.606918 0.0353301 0.138094
861 2 0.256733 0.0522248 0.592025
862 2 0.112924 0.412755 0.772336
863 2 0.396212 0.712919 0.837207
864 2 0.102705 0.339092 0.975678
865 2 0.768373 0.291514 0.331892
866 2 0.274965 0.348625 0.315359
867 2 0.434091 0.532111 0.370291
868 2 0.903735 0.128048 0.76882
869 2 0.516173 0.506478 0.481484
870 2 0.18855 0.247631 0.140314
871 2 0.941782 0.385671 0.1823
872 2 0.96705 0.191645 0.741004
873 2 0.497556 0.325867 0.517318
874 2 0.930605 0.163859 0.304498
875 2 0.4614 0.186089 0.193183
876 2 0.281604 0.332829 0.143189
877 2 0.232943 0.309668 0.286394
878 2 0.141288 0.297425 0.617928
879 2 0.96998 0.291226 0.0440729
880 2 0.275083 0.213769 0.780891
881 2 0.196327 0.850271 0.589714
882 2 0.201683 0.259421 0.258609
883 2 0.158981 0.384156 0.894349
884 2 0.234575 0.111451 0.525347
885 2 0.930572 0.444295 0.42946
886 2 0.216084 0.371248 0.929101
887 2 0.015564 0.302708 0.226932
888 2 0.99223 0.304786 0.357774
889 2 0.901974 0.208115 0.158535
890 2 0.579206 0.210472 0.285404
891 2 0.0782953 0.914025 0.428723
892 2 0.245503 0.429712 0.207021
893 2 0.998142 0.153337 0.310841
894 2 0.929396 0.975572 0.425296
895 2 0.734006 0.340988 0.859376
896 2 0.148015 0.494743 0.438295
897 2 0.0649169 0.31519 0.260094
898 2 0.185541 0.144026 0.0153256
899 2 0.215762 0.180631 0.270471
900 2 0.283967 0.271322 0.293157
901 2 0.154183 0.296758 0.239146
902 2 0.282395 0.4062 0.475344
903 2 0.386229 0.193379 0.453571
904 2 0.641225 0.382522 0.855821