 vasp.6.5.0 16Dec24 (build Jan 20 2025 08:32:48) complex                         
 executed on        HPECrayEX_GCC date 2025.07.25  15:07:49
 running   64 mpi-ranks, with    1 threads/rank, on    1 nodes
 distrk:  each k-point on   64 cores,    1 groups
 distr:  one band on NCORE=  16 cores,    4 groups


--------------------------------------------------------------------------------------------------------


 INCAR:
   SYSTEM = a-Si SPC
   NCORE = 16
   ISTART = 1
   ICHARG = 1
   ISPIN = 1
   ISYM = 1
   EDIFF = 1E-6
   NELM = 150
   EDIFFG = -0.01
   NSW = 0
   ISIF = 2
   IBRION = -1
   PREC = Accurate
   ENCUT = 1200
   KSPACING = 0.23
   KGAMMA = .TRUE.
   METAGGA = SCAN
   LASPH = .TRUE.
   LDIAG = .FALSE.
   LMIXTAU = .TRUE.
   ADDGRID = .TRUE.
   ALGO = Normal
   ISMEAR = 0
   SIGMA = 0.1
   LORBIT = 11
   NEDOS = 2000
   LWAVE = .FALSE.
   LCHARG = .FALSE.

 POTCAR:    PAW_PBE Si_GW 04May2012               
 POTCAR:    PAW_PBE H 15Jun2001                   
 POTCAR:    PAW_PBE Si_GW 04May2012               
   SHA256 =  9ee269d4247e69d62ab9db642b0c3f6e4981ddd1f39659ad08dec53e20e43eb1 Si_GW/POTCAR          
   COPYR  = (c) Copyright 04May2012 Georg Kresse                                                    
   COPYR  = This file is part of the software VASP. Any use, copying, and all other rights are regul
   COPYR  = If you do not have a valid VASP license, you may not use, copy or distribute this file. 
   VRHFIN =Si: s2p2                                                                                 
   LEXCH  = PE                                                                                      
   EATOM  =   103.0669 eV,    7.5752 Ry                                                             
                                                                                                    
   TITEL  = PAW_PBE Si_GW 04May2012                                                                 
   LULTRA =        F    use ultrasoft PP ?                                                          
   IUNSCR =        1    unscreen: 0-lin 1-nonlin 2-no                                               
   RPACOR =    1.500    partial core radius                                                         
   POMASS =   28.085; ZVAL   =    4.000    mass and valenz                                          
   RCORE  =    1.900    outmost cutoff radius                                                       
   RWIGS  =    2.480; RWIGS  =    1.312    wigner-seitz radius (au A)                               
   ENMAX  =  245.345; ENMIN  =  184.009 eV                                                          
   ICORE  =        3    local potential                                                             
   LCOR   =        T    correct aug charges                                                         
   LPAW   =        T    paw PP                                                                      
   EAUG   =  412.952                                                                                
   DEXC   =    0.000                                                                                
   RMAX   =    1.950    core radius for proj-oper                                                   
   RAUG   =    1.300    factor for augmentation sphere                                              
   RDEP   =    1.993    radius for radial grids                                                     
   RDEPT  =    2.000    core radius for aug-charge                                                  
                                                                                                    
   Atomic configuration                                                                             
    7 entries                                                                                       
     n  l   j            E        occ.                                                              
     1  0  0.50     -1785.8828   2.0000                                                             
     2  0  0.50      -139.4969   2.0000                                                             
     2  1  1.50       -95.5546   6.0000                                                             
     3  0  0.50       -10.8127   2.0000                                                             
     3  1  0.50        -4.0811   2.0000                                                             
     3  2  1.50        -4.0817   0.0000                                                             
     4  3  2.50        -4.0817   0.0000                                                             
   Description                                                                                      
     l       E           TYP  RCUT    TYP  RCUT                                                     
     0    -10.8127223     23  1.900                                                                 
     0     95.2407820     23  1.900                                                                 
     1     -4.0811372     23  1.900                                                                 
     1     54.4233040     23  1.900                                                                 
     2     -8.1634956     23  1.900                                                                 
     2     81.6349560     23  1.900                                                                 
     3     27.2116520     23  1.900                                                                 
  local pseudopotential read in
  partial core-charges read in
  partial kinetic energy density read in
  kinetic energy density of atom read in
  atomic valenz-charges read in
  non local Contribution for L=           0  read in
    real space projection operators read in
  non local Contribution for L=           0  read in
    real space projection operators read in
  non local Contribution for L=           1  read in
    real space projection operators read in
  non local Contribution for L=           1  read in
    real space projection operators read in
  non local Contribution for L=           2  read in
    real space projection operators read in
  non local Contribution for L=           2  read in
    real space projection operators read in
    PAW grid and wavefunctions read in

   number of l-projection  operators is LMAX  =           6
   number of lm-projection operators is LMMAX =          18

 POTCAR:    PAW_PBE H 15Jun2001                   
   SHA256 =  030f79b5d3ab3cf0e668861823c8fb652ff669f3e15e46930bd03bfd63a607b6 H/POTCAR              
   COPYR  = (c) Copyright 15Jun2001 Georg Kresse                                                    
   COPYR  = This file is part of the software VASP. Any use, copying, and all other rights are regul
   COPYR  = If you do not have a valid VASP license, you may not use, copy or distribute this file. 
   VRHFIN =H: ultrasoft test                                                                        
   LEXCH  = PE                                                                                      
   EATOM  =    12.4884 eV,    0.9179 Ry                                                             
                                                                                                    
   TITEL  = PAW_PBE H 15Jun2001                                                                     
   LULTRA =        F    use ultrasoft PP ?                                                          
   IUNSCR =        0    unscreen: 0-lin 1-nonlin 2-no                                               
   RPACOR =    0.000    partial core radius                                                         
   POMASS =    1.000; ZVAL   =    1.000    mass and valenz                                          
   RCORE  =    1.100    outmost cutoff radius                                                       
   RWIGS  =    0.700; RWIGS  =    0.370    wigner-seitz radius (au A)                               
   ENMAX  =  250.000; ENMIN  =  200.000 eV                                                          
   RCLOC  =    0.701    cutoff for local pot                                                        
   LCOR   =        T    correct aug charges                                                         
   LPAW   =        T    paw PP                                                                      
   EAUG   =  400.000                                                                                
   RMAX   =    1.123    core radius for proj-oper                                                   
   RAUG   =    1.200    factor for augmentation sphere                                              
   RDEP   =    1.112    radius for radial grids                                                     
   RDEPT  =    0.926    core radius for aug-charge                                                  
                                                                                                    
   Atomic configuration                                                                             
    2 entries                                                                                       
     n  l   j            E        occ.                                                              
     1  0  0.50        -6.4927   1.0000                                                             
     2  1  0.50        -3.4015   0.0000                                                             
   Description                                                                                      
     l       E           TYP  RCUT    TYP  RCUT                                                     
     0     -6.4927494     23  1.100                                                                 
     0      6.8029130     23  1.100                                                                 
     1     -4.0817478     23  1.100                                                                 
  local pseudopotential read in
  atomic valenz-charges read in
  non local Contribution for L=           0  read in
    real space projection operators read in
  non local Contribution for L=           0  read in
    real space projection operators read in
  non local Contribution for L=           1  read in
    real space projection operators read in
    PAW grid and wavefunctions read in

   number of l-projection  operators is LMAX  =           3
   number of lm-projection operators is LMMAX =           5

 -----------------------------------------------------------------------------
|                                                                             |
|               ----> ADVICE to this user running VASP <----                  |
|                                                                             |
|     You have a (more or less) 'large supercell' and for larger cells it     |
|     might be more efficient to use real-space projection operators.         |
|     Therefore, try LREAL= Auto in the INCAR file.                           |
|     Mind: For very accurate calculation, you might also keep the            |
|     reciprocal projection scheme (i.e. LREAL=.FALSE.).                      |
|                                                                             |
 -----------------------------------------------------------------------------

 -----------------------------------------------------------------------------
|                                                                             |
|               ----> ADVICE to this user running VASP <----                  |
|                                                                             |
|     You enforced a specific xc type in the INCAR file but a different       |
|     type was found in the POTCAR file.                                      |
|     I HOPE YOU KNOW WHAT YOU ARE DOING!                                     |
|                                                                             |
 -----------------------------------------------------------------------------

  PAW_PBE Si_GW 04May2012               :
 energy of atom  1       EATOM= -103.0669
 kinetic energy error for atom=    0.0001 (will be added to EATOM!!)
  PAW_PBE H 15Jun2001                   :
 energy of atom  2       EATOM=  -12.4884
 kinetic energy error for atom=    0.0000 (will be added to EATOM!!)


 POSCAR: Si H
  positions in direct lattice
  velocities in cartesian coordinates


 exchange-correlation table for SCAN
   RHO(1)=    0.500       N(1)  =     2000
   RHO(2)=  100.500       N(2)  =     4000



--------------------------------------------------------------------------------------------------------


 ion  position               nearest neighbor table
   1  0.978  0.978  0.978-  65 1.60  46 2.32  56 2.32  28 2.32
   2  0.147  0.147  0.147-  65 1.60   5 2.32   7 2.32   3 2.32
   3  0.998  0.255  0.255-   2 2.32   4 2.34  38 2.35  40 2.35
   4  0.126  0.377  0.377-  25 2.34   3 2.34  15 2.35  21 2.35
   5  0.255  0.998  0.255-   2 2.32   6 2.34  20 2.35  24 2.35
   6  0.377  0.126  0.377-  41 2.34   5 2.34  35 2.35  15 2.35
   7  0.255  0.255  0.998-   2 2.32   8 2.34  12 2.35  14 2.35
   8  0.377  0.377  0.126-  49 2.34   7 2.34  35 2.35  21 2.35
   9  0.000  0.000  0.500-  20 2.35  38 2.35  64 2.35  10 2.36
  10  0.125  0.125  0.625-  11 2.35  13 2.35  15 2.35   9 2.36
  11  0.001  0.250  0.750-  10 2.35  46 2.35  48 2.35  12 2.36
  12  0.124  0.375  0.875-  17 2.35   7 2.35  29 2.35  11 2.36
  13  0.250  0.001  0.750-  10 2.35  28 2.35  32 2.35  14 2.36
  14  0.375  0.124  0.875-  33 2.35   7 2.35  43 2.35  13 2.36
  15  0.250  0.250  0.501-  10 2.35   4 2.35   6 2.35  16 2.36
  16  0.375  0.375  0.625-  43 2.35  29 2.35  57 2.35  15 2.36
  17  0.000  0.500  0.000-  12 2.35  40 2.35  62 2.35  18 2.36
  18  0.125  0.625  0.125-  19 2.35  23 2.35  21 2.35  17 2.36
  19  0.001  0.750  0.250-  18 2.35  56 2.35  54 2.35  20 2.36
  20  0.124  0.875  0.375-   9 2.35   5 2.35  31 2.35  19 2.36
  21  0.250  0.501  0.250-  18 2.35   8 2.35   4 2.35  22 2.36
  22  0.375  0.625  0.375-  31 2.35  51 2.35  57 2.35  21 2.36
  23  0.250  0.750  0.001-  18 2.35  28 2.35  30 2.35  24 2.36
  24  0.375  0.875  0.124-  33 2.35   5 2.35  51 2.35  23 2.36
  25  1.000  0.501  0.501-   4 2.34  26 2.34  48 2.35  54 2.35
  26  0.125  0.624  0.624-  27 2.34  25 2.34  29 2.35  31 2.35
  27  0.999  0.748  0.748-  26 2.34  28 2.34  62 2.35  64 2.35
  28  0.127  0.870  0.870-   1 2.32  27 2.34  23 2.35  13 2.35
  29  0.250  0.500  0.750-  16 2.35  26 2.35  12 2.35  30 2.36
  30  0.375  0.625  0.875-  59 2.35  49 2.35  23 2.35  29 2.36
  31  0.250  0.750  0.500-  22 2.35  26 2.35  20 2.35  32 2.36
  32  0.375  0.875  0.625-  59 2.35  41 2.35  13 2.35  31 2.36
  33  0.500  0.000  0.000-  14 2.35  24 2.35  60 2.35  34 2.36
  34  0.625  0.125  0.125-  37 2.35  39 2.35  35 2.35  33 2.36
  35  0.501  0.250  0.250-  34 2.35   8 2.35   6 2.35  36 2.36
  36  0.625  0.375  0.375-  47 2.35  53 2.35  57 2.35  35 2.36
  37  0.750  0.001  0.250-  34 2.35  56 2.35  52 2.35  38 2.36
  38  0.875  0.124  0.375-   9 2.35   3 2.35  47 2.35  37 2.36
  39  0.750  0.250  0.001-  34 2.35  46 2.35  44 2.35  40 2.36
  40  0.875  0.375  0.124-  17 2.35   3 2.35  53 2.35  39 2.36
  41  0.501  1.000  0.501-   6 2.34  42 2.34  32 2.35  52 2.35
  42  0.624  0.125  0.624-  45 2.34  41 2.34  43 2.35  47 2.35
  43  0.500  0.250  0.750-  16 2.35  42 2.35  14 2.35  44 2.36
  44  0.625  0.375  0.875-  61 2.35  49 2.35  39 2.35  43 2.36
  45  0.748  0.999  0.748-  42 2.34  46 2.34  60 2.35  64 2.35
  46  0.870  0.127  0.870-   1 2.32  45 2.34  39 2.35  11 2.35
  47  0.750  0.250  0.500-  36 2.35  42 2.35  38 2.35  48 2.36
  48  0.875  0.375  0.625-  61 2.35  25 2.35  11 2.35  47 2.36
  49  0.501  0.501  1.000-   8 2.34  50 2.34  44 2.35  30 2.35
  50  0.624  0.624  0.125-  55 2.34  49 2.34  53 2.35  51 2.35
  51  0.500  0.750  0.250-  22 2.35  50 2.35  24 2.35  52 2.36
  52  0.625  0.875  0.375-  63 2.35  41 2.35  37 2.35  51 2.36
  53  0.750  0.500  0.250-  36 2.35  50 2.35  40 2.35  54 2.36
  54  0.875  0.625  0.375-  63 2.35  25 2.35  19 2.35  53 2.36
  55  0.748  0.748  0.999-  50 2.34  56 2.34  60 2.35  62 2.35
  56  0.870  0.870  0.127-   1 2.32  55 2.34  37 2.35  19 2.35
  57  0.500  0.500  0.500-  22 2.35  36 2.35  16 2.35  58 2.36
  58  0.625  0.625  0.625-  59 2.35  61 2.35  63 2.35  57 2.36
  59  0.500  0.750  0.750-  30 2.35  32 2.35  58 2.35  60 2.36
  60  0.624  0.875  0.875-  33 2.35  45 2.35  55 2.35  59 2.36
  61  0.750  0.500  0.750-  44 2.35  48 2.35  58 2.35  62 2.36
  62  0.875  0.624  0.875-  17 2.35  27 2.35  55 2.35  61 2.36
  63  0.750  0.750  0.500-  52 2.35  54 2.35  58 2.35  64 2.36
  64  0.875  0.875  0.624-   9 2.35  27 2.35  45 2.35  63 2.36
  65  0.062  0.062  0.062-   1 1.60   2 1.60

  LATTYP: Found a trigonal (rhomboedric) cell.
 ALAT       =    10.8756723599
 COS(alpha) =     0.0037156794
  
  Lattice vectors:
  
 A1 = (  10.8756348911,   0.0201865910,   0.0201865910)
 A2 = (   0.0201865910,  10.8756348911,   0.0201865910)
 A3 = (   0.0201865910,   0.0201865910,  10.8756348911)


Analysis of symmetry for initial positions (statically):
=====================================================================
 Subroutine PRICEL returns:
 Original cell was already a primitive cell.
 

 Routine SETGRP: Setting up the symmetry group for a 
 trigonal (rhombohedral) supercell.


 Subroutine GETGRP returns: Found 12 space group operations
 (whereof  6 operations were pure point group operations)
 out of a pool of 12 trial point group operations.


The static configuration has the point symmetry C_3v.
 The point group associated with its full space group is D_3d.


Analysis of symmetry for dynamics (positions and initial velocities):
=====================================================================
 Subroutine PRICEL returns:
 Original cell was already a primitive cell.
 

 Routine SETGRP: Setting up the symmetry group for a 
 trigonal (rhombohedral) supercell.


 Subroutine GETGRP returns: Found 12 space group operations
 (whereof  6 operations were pure point group operations)
 out of a pool of 12 trial point group operations.


The dynamic configuration has the point symmetry C_3v.
 The point group associated with its full space group is D_3d.


 Subroutine INISYM returns: Found 12 space group operations
 (whereof  6 operations are pure point group operations),
 and found     1 'primitive' translations


----------------------------------------------------------------------------------------

                                     Primitive cell                                     

  volume of cell :    1286.3507

  direct lattice vectors                    reciprocal lattice vectors
    10.875634891  0.020186591  0.020186591     0.091949287 -0.000170354 -0.000170354
     0.020186591 10.875634891  0.020186591    -0.000170354  0.091949287 -0.000170354
     0.020186591  0.020186591 10.875634891    -0.000170354 -0.000170354  0.091949287

  length of vectors
    10.875672360 10.875672360 10.875672360     0.091949603  0.091949603  0.091949603

  position of ions in fractional coordinates (direct lattice)
     0.977779191  0.977779191  0.977779191
     0.147220809  0.147220809  0.147220809
     0.998480540  0.255474247  0.255474247
     0.125810667  0.377421365  0.377421365
     0.255474247  0.998480540  0.255474247
     0.377421365  0.125810667  0.377421365
     0.255474247  0.255474247  0.998480540
     0.377421365  0.377421365  0.125810667
     0.000063799  0.000063799  0.500296758
     0.124936201  0.124936201  0.624703242
     0.000702667  0.250096925  0.749762252
     0.124297333  0.375237748  0.874903075
     0.250096925  0.000702667  0.749762252
     0.375237748  0.124297333  0.874903075
     0.250486217  0.250486217  0.500875571
     0.375100491  0.375100491  0.625452068
     0.000063799  0.500296758  0.000063799
     0.124936201  0.624703242  0.124936201
     0.000702667  0.749762252  0.250096925
     0.124297333  0.874903075  0.375237748
     0.250486217  0.500875571  0.250486217
     0.375100491  0.625452068  0.375100491
     0.250096925  0.749762252  0.000702667
     0.375237748  0.874903075  0.124297333
     0.999800556  0.500922528  0.500922528
     0.125199444  0.624077472  0.624077472
     0.999189333  0.747578635  0.747578635
     0.126519460  0.869525753  0.869525753
     0.250052932  0.500088374  0.750240558
     0.374759442  0.624911626  0.874947068
     0.250052932  0.750240558  0.500088374
     0.374759442  0.874947068  0.624911626
     0.500296758  0.000063799  0.000063799
     0.624703242  0.124936201  0.124936201
     0.500875571  0.250486217  0.250486217
     0.625452068  0.375100491  0.375100491
     0.749762252  0.000702667  0.250096925
     0.874903075  0.124297333  0.375237748
     0.749762252  0.250096925  0.000702667
     0.874903075  0.375237748  0.124297333
     0.500922528  0.999800556  0.500922528
     0.624077472  0.125199444  0.624077472
     0.500088374  0.250052932  0.750240558
     0.624911626  0.374759442  0.874947068
     0.747578635  0.999189333  0.747578635
     0.869525753  0.126519460  0.869525753
     0.750240558  0.250052932  0.500088374
     0.874947068  0.374759442  0.624911626
     0.500922528  0.500922528  0.999800556
     0.624077472  0.624077472  0.125199444
     0.500088374  0.750240558  0.250052932
     0.624911626  0.874947068  0.374759442
     0.750240558  0.500088374  0.250052932
     0.874947068  0.624911626  0.374759442
     0.747578635  0.747578635  0.999189333
     0.869525753  0.869525753  0.126519460
     0.500168413  0.500168413  0.500168413
     0.624831587  0.624831587  0.624831587
     0.499547932  0.749899509  0.749899509
     0.624124429  0.874513783  0.874513783
     0.749899509  0.499547932  0.749899509
     0.874513783  0.624124429  0.874513783
     0.749899509  0.749899509  0.499547932
     0.874513783  0.874513783  0.624124429
     0.062500000  0.062500000  0.062500000

  ion indices of the primitive-cell ions
   primitive index   ion index
                 1           1
                 2           2
                 3           3
                 4           4
                 5           5
                 6           6
                 7           7
                 8           8
                 9           9
                10          10
                11          11
                12          12
                13          13
                14          14
                15          15
                16          16
                17          17
                18          18
                19          19
                20          20
                21          21
                22          22
                23          23
                24          24
                25          25
                26          26
                27          27
                28          28
                29          29
                30          30
                31          31
                32          32
                33          33
                34          34
                35          35
                36          36
                37          37
                38          38
                39          39
                40          40
                41          41
                42          42
                43          43
                44          44
                45          45
                46          46
                47          47
                48          48
                49          49
                50          50
                51          51
                52          52
                53          53
                54          54
                55          55
                56          56
                57          57
                58          58
                59          59
                60          60
                61          61
                62          62
                63          63
                64          64
                65          65

----------------------------------------------------------------------------------------


 -----------------------------------------------------------------------------
|                                                                             |
|           W    W    AA    RRRRR   N    N  II  N    N   GGGG   !!!           |
|           W    W   A  A   R    R  NN   N  II  NN   N  G    G  !!!           |
|           W    W  A    A  R    R  N N  N  II  N N  N  G       !!!           |
|           W WW W  AAAAAA  RRRRR   N  N N  II  N  N N  G  GGG   !            |
|           WW  WW  A    A  R   R   N   NN  II  N   NN  G    G                |
|           W    W  A    A  R    R  N    N  II  N    N   GGGG   !!!           |
|                                                                             |
|     The requested file  could not be found or opened for reading            |
|     k-point information. Automatic k-point generation is used as a          |
|     fallback, which may lead to unwanted results.                           |
|                                                                             |
 -----------------------------------------------------------------------------



Automatic generation of k-mesh.
 Grid dimensions derived from KSPACING:
 generate k-points for:    3    3    3

 Generating k-lattice:

  Cartesian coordinates                     Fractional coordinates (reciprocal lattice)
     0.030649762 -0.000056785 -0.000056785     0.333333333 -0.000000000  0.000000000
    -0.000056785  0.030649762 -0.000056785    -0.000000000  0.333333333 -0.000000000
    -0.000056785 -0.000056785  0.030649762    -0.000000000 -0.000000000  0.333333333

  Length of vectors
     0.030649868  0.030649868  0.030649868

  Shift w.r.t. Gamma in fractional coordinates (k-lattice)
     0.000000000  0.000000000  0.000000000

 
 Subroutine IBZKPT returns following result:
 ===========================================
 
 Found      6 irreducible k-points:
 
 Following reciprocal coordinates:
            Coordinates               Weight
  0.000000  0.000000  0.000000      1.000000
  0.333333  0.000000  0.000000      6.000000
  0.333333  0.333333  0.000000      6.000000
 -0.333333  0.333333  0.000000      6.000000
  0.333333  0.333333  0.333333      2.000000
 -0.333333  0.333333  0.333333      6.000000
 
 Following cartesian coordinates:
            Coordinates               Weight
  0.000000  0.000000  0.000000      1.000000
  0.030650 -0.000057 -0.000057      6.000000
  0.030593  0.030593 -0.000114      6.000000
 -0.030707  0.030707  0.000000      6.000000
  0.030536  0.030536  0.030536      2.000000
 -0.030763  0.030650  0.030650      6.000000
 


--------------------------------------------------------------------------------------------------------




 Dimension of arrays:
   k-points           NKPTS =      6   k-points in BZ     NKDIM =      6   number of bands    NBANDS=    164
   number of dos      NEDOS =   2000   number of ions     NIONS =     65
   non local maximal  LDIM  =      6   non local SUM 2l+1 LMDIM =     18
   total plane-waves  NPLWV = ******
   max r-space proj   IRMAX =      1   max aug-charges    IRDMAX= 610805
   dimension x,y,z NGX =   126 NGY =  126 NGZ =  126
   dimension x,y,z NGXF=   252 NGYF=  252 NGZF=  252
   support grid    NGXF=   504 NGYF=  504 NGZF=  504
   ions per type =              64   1
   NGX,Y,Z   is equivalent  to a cutoff of  19.26, 19.26, 19.26 a.u.
   NGXF,Y,Z  is equivalent  to a cutoff of  38.52, 38.52, 38.52 a.u.

 SYSTEM =  a-Si SPC                                
 POSCAR =  Si H                                    

 Startparameter for this run:
   NWRITE =      2    write-flag & timer
   PREC   = accura    normal or accurate (medium, high low for compatibility)
   ISTART =      1    job   : 0-new  1-cont  2-samecut
   ICHARG =      1    charge: 1-file 2-atom 10-const
   ISPIN  =      1    spin polarized calculation?
   LNONCOLLINEAR =      F non collinear calculations
   LSORBIT =      F    spin-orbit coupling
   INIWAV =      1    electr: 0-lowe 1-rand  2-diag
   LASPH  =      T    aspherical Exc in radial PAW
 Electronic Relaxation 1
   ENCUT  = 1200.0 eV  88.20 Ry    9.39 a.u.  30.72 30.72 30.72*2*pi/ulx,y,z
   ENINI  = 1200.0     initial cutoff
   ENAUG  =  413.0 eV  augmentation charge cutoff
   NELM   =    150;   NELMIN=  2; NELMDL=  0     # of ELM steps 
   EDIFF  = 0.1E-05   stopping-criterion for ELM
   LREAL  =      F    real-space projection
   NLSPLINE    = F    spline interpolate recip. space projectors
   LCOMPAT=      F    compatible to vasp.4.4
   GGA_COMPAT  = T    GGA compatible to vasp.4.4-vasp.4.6
   LMAXPAW     = -100 max onsite density
   LMAXMIX     =    2 max onsite mixed and CHGCAR
   VOSKOWN=      0    Vosko Wilk Nusair interpolation
   ROPT   =    0.00000   0.00000
 Ionic relaxation
   EDIFFG = -.1E-01   stopping-criterion for IOM
   NSW    =      0    number of steps for IOM
   NBLOCK =      1;   KBLOCK =      1    inner block; outer block 
   IBRION =     -1    ionic relax: 0-MD 1-quasi-New 2-CG
   NFREE  =      0    steps in history (QN), initial steepest desc. (CG)
   ISIF   =      2    stress and relaxation
   IWAVPR =     10    prediction:  0-non 1-charg 2-wave 3-comb
   ISYM   =      1    0-nonsym 1-usesym 2-fastsym
   LCORR  =      T    Harris-Foulkes like correction to forces

   POTIM  = 0.5000    time-step for ionic-motion
   TEIN   =    0.0    initial temperature
   TEBEG  =    0.0;   TEEND  =   0.0 temperature during run
   SMASS  =  -3.00    Nose mass-parameter (am)
   estimated Nose-frequenzy (Omega)   =  0.10E-29 period in steps = 0.13E+47 mass=  -0.270E-26a.u.
   SCALEE = 1.0000    scale energy and forces
   NPACO  =    256;   APACO  = 10.0  distance and # of slots for P.C.
   PSTRESS=    0.0 pullay stress

  Mass of Ions in am
   POMASS =  28.09  1.00
  Ionic Valenz
   ZVAL   =   4.00  1.00
  Atomic Wigner-Seitz radii
   RWIGS  =  -1.00 -1.00
  virtual crystal weights 
   VCA    =   1.00  1.00
   NELECT =     257.0000    total number of electrons
   NUPDOWN=      -1.0000    fix difference up-down

 DOS related values:
   EMIN   =  10.00;   EMAX   =-10.00  energy-range for DOS
   EFERMI =   0.00;   METHOD = LEGACY      
   ISMEAR =     0;   SIGMA  =   0.10  broadening in eV -4-tet -1-fermi 0-gaus
   EFERMI_NEDOS =   21; number of points for ismear=-14 and -15

 Electronic relaxation 2 (details)
   IALGO  =     38    algorithm
   LDIAG  =      F    sub-space diagonalisation (order eigenvalues)
   LSUBROT=      F    optimize rotation matrix (better conditioning)
   TURBO    =      0    0=normal 1=particle mesh
   IRESTART =      0    0=no restart 2=restart with 2 vectors
   NREBOOT  =      0    no. of reboots
   NMIN     =      0    reboot dimension
   EREF     =   0.00    reference energy to select bands
   IMIX   =      4    mixing-type and parameters
     AMIX     =   0.40;   BMIX     =  1.00
     AMIX_MAG =   1.60;   BMIX_MAG =  1.00
     AMIN     =   0.10
     WC   =   100.;   INIMIX=   1;  MIXPRE=   1;  MAXMIX= -45

 Intra band minimization:
   WEIMIN = 0.0000     energy-eigenvalue tresh-hold
   EBREAK =  0.15E-08  absolut break condition
   DEPER  =   0.30     relativ break condition  

   TIME   =   0.40     timestep for ELM

  volume/ion in A,a.u.               =      19.79       133.55
  Fermi-wavevector in a.u.,A,eV,Ry     =   0.957046  1.808554 12.462076  0.915937
  Thomas-Fermi vector in A             =   2.086029

 Write flags
   LWAVE        =      F    write WAVECAR
   LDOWNSAMPLE  =      F    k-point downsampling of WAVECAR
   LCHARG       =      F    write CHGCAR
   LVTOT        =      F    write LOCPOT, total local potential
   LVHAR        =      F    write LOCPOT, Hartree potential only
   WRT_POTENTIAL= false  ! write potential to hdf5 file
   LELF         =      F    write electronic localiz. function (ELF)
   LORBIT       =     11    0 simple, 1 ext, 2 COOP (PROOUT), +10 PAW based schemes


 Python interface
   PLUGINS active      =      F    recompile with -DPLUGINS to activate

 Dipole corrections
   LMONO      =      F    monopole corrections only (constant potential shift)
   LDIPOL     =      F    correct potential (dipole corrections)
   IDIPOL     =      0    1-x, 2-y, 3-z, 4-all directions 
   EPSILON    =  1.0000000 bulk dielectric constant
   LVACPOTAV  =      F  vacuum potentials using an averaging scheme for the charge density
   VACPOTFLAT =  0.1000000 required flatness to determine vacuum potential

Coulomb truncation method
  LTRUNCATE          =      F  Coulomb kernel truncation to be used
  IDIMENSIONALITY    =      3  Dimensionality of cutoff (0 molecules / 2 surfaces)
  ISURFACE           =     -1  Direction of surface normal
  LCOARSEN           =      F  Coarsen the charge grid before padding, preferred


 Exchange correlation treatment:
   METAGGA = SCAN    functional components
   XC_C    = 1    coefficients multiplying the functional components
   LIBXC   =     F    Libxc                    
   VOSKOWN =     0    Vosko Wilk Nusair interpolation
   LHFCALC =     F    Hartree Fock is set to
   LHFONE  =     F    Hartree Fock one center treatment
   AEXX    =    0.0000 exact exchange contribution

 Parameters of functionals:
   SCAN:
     P1 =  0.000000E+00
     P2 =  0.000000E+00
     P3 =  0.000000E+00

 Accuracy and mixing parameters for tau-dependent meta-GGA functionals:
   LMAXTAU = 6
   LMIXTAU = T

 Van der Waals corrections
   IVDW    =     0    specifies the selected vdW correction

 Linear response parameters
   LEPSILON=     F    determine dielectric tensor
   LRPA    =     F    only Hartree local field effects (RPA)
   LNABLA  =     F    use nabla operator in PAW spheres
   LVEL    =     F    velocity operator in full k-point grid
   CSHIFT  =0.1000    complex shift for real part using Kramers Kronig
   OMEGAMAX=  -1.0    maximum frequency
   DEG_THRESHOLD= 0.2000000E-02 threshold for treating states as degnerate
   RTIME   =   -0.100 relaxation time in fs
  (WPLASMAI=    0.000 imaginary part of plasma frequency in eV, 0.658/RTIME)
   DFIELD  = 0.0000000 0.0000000 0.0000000 field for delta impulse in time

  Optional k-point grid parameters
   LKPOINTS_OPT  =     F    use optional k-point grid
   KPOINTS_OPT_MODE=     1    mode for optional k-point grid

 Orbital magnetization related:
   ORBITALMAG=     F  switch on orbital magnetization
   LCHIMAG   =     F  perturbation theory with respect to B field
   DQ        =  0.001000  dq finite difference perturbation B field
   LLRAUG    =     F  two centre corrections for induced B field
   LBONE     =     F  B-component reconstruction in AE one-centre
   LVGVCALC  =     T  calculate vGv susceptibility
   LVGVAPPL  =     F  apply vGv susceptibility instead of pGv for G=0

 Random number generation:
   RANDOM_GENERATOR = DEFAULT
   PCG_SEED         = not used


--------------------------------------------------------------------------------------------------------


 Static calculation
 charge density and potential will be updated during run
 non-spin polarized calculation
 Variant of blocked Davidson
 perform Loewdin sub-space diagonalisation
    ordering is kept fixed
    before iterative eigenvector-optimisation
 modified Broyden-mixing scheme, WC =      100.0
 initial mixing is a Kerker type mixing with AMIX =  0.4000 and BMIX =      1.0000
 Hartree-type preconditioning will be used
 using additional bands           35
 reciprocal scheme for non local part
 use partial core corrections
 calculate Harris-corrections to forces   (improved forces if not selfconsistent)
 use gradient corrections 
 use of overlap-Matrix (Vanderbilt PP)
 Gauss-broadening in eV      SIGMA  =   0.10


--------------------------------------------------------------------------------------------------------


  energy-cutoff  :     1200.00
  volume of cell :     1286.35
      direct lattice vectors                 reciprocal lattice vectors
    10.875634891  0.020186591  0.020186591     0.091949287 -0.000170354 -0.000170354
     0.020186591 10.875634891  0.020186591    -0.000170354  0.091949287 -0.000170354
     0.020186591  0.020186591 10.875634891    -0.000170354 -0.000170354  0.091949287

  length of vectors
    10.875672360 10.875672360 10.875672360     0.091949603  0.091949603  0.091949603



 old parameters found on file WAVECAR:
  energy-cutoff  :     1200.00
  volume of cell :     1286.35
      direct lattice vectors                 reciprocal lattice vectors
    10.875634891  0.020186591  0.020186591     0.091949287 -0.000170354 -0.000170354
     0.020186591 10.875634891  0.020186591    -0.000170354  0.091949287 -0.000170354
     0.020186591  0.020186591 10.875634891    -0.000170354 -0.000170354  0.091949287

  length of vectors


 k-points in units of 2pi/SCALE and weight: read from INCAR                         
   0.00000000  0.00000000  0.00000000       0.037
   0.03064976 -0.00005678 -0.00005678       0.222
   0.03059298  0.03059298 -0.00011357       0.222
  -0.03070655  0.03070655  0.00000000       0.222
   0.03053619  0.03053619  0.03053619       0.074
  -0.03076333  0.03064976  0.03064976       0.222

 k-points in reciprocal lattice and weights: read from INCAR                         
   0.00000000  0.00000000  0.00000000       0.037
   0.33333333  0.00000000  0.00000000       0.222
   0.33333333  0.33333333  0.00000000       0.222
  -0.33333333  0.33333333  0.00000000       0.222
   0.33333333  0.33333333  0.33333333       0.074
  -0.33333333  0.33333333  0.33333333       0.222

 position of ions in fractional coordinates (direct lattice) 
   0.97777919  0.97777919  0.97777919
   0.14722081  0.14722081  0.14722081
   0.99848054  0.25547425  0.25547425
   0.12581067  0.37742136  0.37742136
   0.25547425  0.99848054  0.25547425
   0.37742136  0.12581067  0.37742136
   0.25547425  0.25547425  0.99848054
   0.37742136  0.37742136  0.12581067
   0.00006380  0.00006380  0.50029676
   0.12493620  0.12493620  0.62470324
   0.00070267  0.25009693  0.74976225
   0.12429733  0.37523775  0.87490307
   0.25009693  0.00070267  0.74976225
   0.37523775  0.12429733  0.87490307
   0.25048622  0.25048622  0.50087557
   0.37510049  0.37510049  0.62545207
   0.00006380  0.50029676  0.00006380
   0.12493620  0.62470324  0.12493620
   0.00070267  0.74976225  0.25009693
   0.12429733  0.87490307  0.37523775
   0.25048622  0.50087557  0.25048622
   0.37510049  0.62545207  0.37510049
   0.25009693  0.74976225  0.00070267
   0.37523775  0.87490307  0.12429733
   0.99980056  0.50092253  0.50092253
   0.12519944  0.62407747  0.62407747
   0.99918933  0.74757864  0.74757864
   0.12651946  0.86952575  0.86952575
   0.25005293  0.50008837  0.75024056
   0.37475944  0.62491163  0.87494707
   0.25005293  0.75024056  0.50008837
   0.37475944  0.87494707  0.62491163
   0.50029676  0.00006380  0.00006380
   0.62470324  0.12493620  0.12493620
   0.50087557  0.25048622  0.25048622
   0.62545207  0.37510049  0.37510049
   0.74976225  0.00070267  0.25009693
   0.87490307  0.12429733  0.37523775
   0.74976225  0.25009693  0.00070267
   0.87490307  0.37523775  0.12429733
   0.50092253  0.99980056  0.50092253
   0.62407747  0.12519944  0.62407747
   0.50008837  0.25005293  0.75024056
   0.62491163  0.37475944  0.87494707
   0.74757864  0.99918933  0.74757864
   0.86952575  0.12651946  0.86952575
   0.75024056  0.25005293  0.50008837
   0.87494707  0.37475944  0.62491163
   0.50092253  0.50092253  0.99980056
   0.62407747  0.62407747  0.12519944
   0.50008837  0.75024056  0.25005293
   0.62491163  0.87494707  0.37475944
   0.75024056  0.50008837  0.25005293
   0.87494707  0.62491163  0.37475944
   0.74757864  0.74757864  0.99918933
   0.86952575  0.86952575  0.12651946
   0.50016841  0.50016841  0.50016841
   0.62483159  0.62483159  0.62483159
   0.49954793  0.74989951  0.74989951
   0.62412443  0.87451378  0.87451378
   0.74989951  0.49954793  0.74989951
   0.87451378  0.62412443  0.87451378
   0.74989951  0.74989951  0.49954793
   0.87451378  0.87451378  0.62412443
   0.06250000  0.06250000  0.06250000

 position of ions in cartesian coordinates  (Angst):
  10.67344555 10.67344555 10.67344555
   1.60706354  1.60706354  1.60706354
  10.86942410  2.80375771  2.80375771
   1.38350859  4.11485550  4.11485550
   2.80375771 10.86942410  2.80375771
   4.11485550  1.38350859  4.11485550
   2.80375771  2.80375771 10.86942410
   4.11485550  4.11485550  1.38350859
   0.01079443  0.01079443  5.44104746
   1.37389317  1.37389317  6.79908844
   0.02782570  2.73511218  8.15920330
   1.37704849  4.10111920  9.52521031
   2.73511218  0.02782570  8.15920330
   4.10111920  1.37704849  9.52521031
   2.73936407  2.73936407  5.45745276
   4.09965373  4.09965373  6.81733233
   0.01079443  5.44104746  0.01079443
   1.37389317  6.79908844  1.37389317
   0.02782570  8.15920330  2.73511218
   1.37704849  9.52521031  4.10111920
   2.73936407  5.45745276  2.73936407
   4.09965373  6.81733233  4.09965373
   2.73511218  8.15920330  0.02782570
   4.10111920  9.52521031  1.37704849
  10.89368964  5.47814500  5.47814500
   1.38681944  6.80236408  6.80236408
  10.89700050  8.16565358  8.16565358
   1.41108498  9.47675137  9.47675137
   2.74472427  5.45897109  8.17448519
   4.10602390  6.82153800  9.53578482
   2.74472427  8.17448519  5.45897109
   4.10602390  9.53578482  6.82153800
   5.44104746  0.01079443  0.01079443
   6.79908844  1.37389317  1.37389317
   5.45745276  2.73936407  2.73936407
   6.81733233  4.09965373  4.09965373
   8.15920330  0.02782570  2.73511218
   9.52521031  1.37704849  4.10111920
   8.15920330  2.73511218  0.02782570
   9.52521031  4.10111920  1.37704849
   5.47814500 10.89368964  5.47814500
   6.80236408  1.38681944  6.80236408
   5.45897109  2.74472427  8.17448519
   6.82153800  4.10602390  9.53578482
   8.16565358 10.89700050  8.16565358
   9.47675137  1.41108498  9.47675137
   8.17448519  2.74472427  5.45897109
   9.53578482  4.10602390  6.82153800
   5.47814500  5.47814500 10.89368964
   6.80236408  6.80236408  1.38681944
   5.45897109  8.17448519  2.74472427
   6.82153800  9.53578482  4.10602390
   8.17448519  5.45897109  2.74472427
   9.53578482  6.82153800  4.10602390
   8.16565358  8.16565358 10.89700050
   9.47675137  9.47675137  1.41108498
   5.45984244  5.45984244  5.45984244
   6.82066664  6.82066664  6.82066664
   5.46317675  8.18085535  8.18085535
   6.82305632  9.54114501  9.54114501
   8.18085535  5.46317675  8.18085535
   9.54114501  6.82305632  9.54114501
   8.18085535  8.18085535  5.46317675
   9.54114501  9.54114501  6.82305632
   0.68225050  0.68225050  0.68225050



--------------------------------------------------------------------------------------------------------


 k-point     1 :   0.0000 0.0000 0.0000  plane waves:  121433
 k-point     2 :   0.3333 0.0000 0.0000  plane waves:  121433
 k-point     3 :   0.3333 0.3333 0.0000  plane waves:  121400
 k-point     4 :  -0.3333 0.3333 0.0000  plane waves:  121408
 k-point     5 :   0.3333 0.3333 0.3333  plane waves:  121473
 k-point     6 :  -0.3333 0.3333 0.3333  plane waves:  121433

 maximum and minimum number of plane-waves per node :      7637     7546

 maximum number of plane-waves:    121473
 maximum index in each direction: 
   IXMAX=   31   IYMAX=   30   IZMAX=   30
   IXMIN=  -31   IYMIN=  -31   IZMIN=  -31


 parallel 3D FFT for wavefunctions:
    minimum data exchange during FFTs selected (reduces bandwidth)
 parallel 3D FFT for charge:
    minimum data exchange during FFTs selected (reduces bandwidth)


 total amount of memory used by VASP MPI-rank0   147630. kBytes
=======================================================================

   base                                    :      30000. kBytes
   nonl-proj                               :      21058. kBytes
   fftplans                                :      40723. kBytes
   grid                                    :      25513. kBytes
   one-center                              :         77. kBytes
   wavefun                                 :      30259. kBytes

     INWAV:  cpu time      1.7748: real time      1.7753
 Broyden mixing: mesh for mixing (old mesh)
   NGX = 61   NGY = 61   NGZ = 61
  (NGX  =252   NGY  =252   NGZ  =252)
  gives a total of 226981 points

 initial charge density was supplied:
 number of electron     256.9999999 magnetization 
 keeping initial charge density in first step


--------------------------------------------------------------------------------------------------------


 Maximum index for augmentation-charges        10367 (set IRDMAX)


--------------------------------------------------------------------------------------------------------


 First call to EWALD:  gamma=   0.163
 Maximum number of real-space cells   3x   3x   3
 Maximum number of reciprocal cells   3x   3x   3

    FEWALD:  cpu time      0.0086: real time      0.0088


--------------------------------------- Ionic step        1  -------------------------------------------




--------------------------------------- Iteration      1(   1)  ---------------------------------------


    POTLOK:  cpu time      0.6941: real time      0.6945
    SETDIJ:  cpu time      1.8936: real time      1.8942
    EDDIAG:  cpu time     10.1288: real time     10.1346
     EDDAV:  cpu time     65.6427: real time     65.6829
       DOS:  cpu time      0.0064: real time      0.0064
    CHARGE:  cpu time     10.2051: real time     10.2110
    MIXING:  cpu time      0.0187: real time      0.0188
    --------------------------------------------
      LOOP:  cpu time     88.5893: real time     88.6424

 eigenvalue-minimisations  :  3016
 total energy-change (2. order) :-0.6846330E+03  (-0.6024157E+00)
 number of electron     256.9999999 magnetization 
 augmentation part      -14.9911476 magnetization 

 Broyden mixing:
  rms(total) = 0.90389E-01    rms(broyden)= 0.60377E+02
  rms(prec ) = 0.61708E+00
  weight for this iteration     100.00
  WARNING: grid for Broyden might be to small

 Free energy of the ion-electron system (eV)
  ---------------------------------------------------
  alpha Z        PSCENC =       195.24944362
  Ewald energy   TEWEN  =     -7312.76997688
  -Hartree energ DENC   =      -485.54083363
  -exchange      EXHF   =         0.00000000
  -V(xc)+E(xc)   XCENC  =      -306.76511400
  PAW double counting   =      7926.35290332    -7273.67842375
  entropy T*S    EENTRO =        -0.03469198
  eigenvalues    EBANDS =       -36.21214844
  atomic energy  EATOM  =      6608.76585177
  Solvation  Ediel_sol  =         0.00000000
  ---------------------------------------------------
  free energy    TOTEN  =      -684.63298997 eV

  energy without entropy =     -684.59829799  energy(sigma->0) =     -684.61564398


--------------------------------------------------------------------------------------------------------




--------------------------------------- Iteration      1(   2)  ---------------------------------------


    POTLOK:  cpu time      0.6940: real time      0.7026
    SETDIJ:  cpu time      1.8945: real time      1.8957
    EDDIAG:  cpu time     10.2023: real time     10.2098
     EDDAV:  cpu time     53.9918: real time     54.0264
       DOS:  cpu time      0.0061: real time      0.0061
    CHARGE:  cpu time     10.1355: real time     10.1418
    MIXING:  cpu time      0.0169: real time      0.0171
    --------------------------------------------
      LOOP:  cpu time     76.9410: real time     76.9996

 eigenvalue-minimisations  :  2216
 total energy-change (2. order) : 0.4519369E+02  (-0.6254717E+00)
 number of electron     256.9999999 magnetization 
 augmentation part      -14.9156234 magnetization 

 Broyden mixing:
  rms(total) = 0.95600E-01    rms(broyden)= 0.34913E+02
  rms(prec ) = 0.36802E+00
  weight for this iteration     100.00
  WARNING: grid for Broyden might be to small

 eigenvalues of (default mixing * dielectric matrix)
  average eigenvalue GAMMA=   0.6336
  0.6336

 Free energy of the ion-electron system (eV)
  ---------------------------------------------------
  alpha Z        PSCENC =       195.24944362
  Ewald energy   TEWEN  =     -7312.76997688
  -Hartree energ DENC   =      -481.81274111
  -exchange      EXHF   =         0.00000000
  -V(xc)+E(xc)   XCENC  =      -301.05133193
  PAW double counting   =      7954.44436130    -7302.00010029
  entropy T*S    EENTRO =        -0.03681190
  eigenvalues    EBANDS =        -0.22798991
  atomic energy  EATOM  =      6608.76585177
  Solvation  Ediel_sol  =         0.00000000
  ---------------------------------------------------
  free energy    TOTEN  =      -639.43929533 eV

  energy without entropy =     -639.40248343  energy(sigma->0) =     -639.42088938


--------------------------------------------------------------------------------------------------------




--------------------------------------- Iteration      1(   3)  ---------------------------------------


    POTLOK:  cpu time      0.7004: real time      0.7035
    SETDIJ:  cpu time      1.8901: real time      1.8919
    EDDIAG:  cpu time     10.1932: real time     10.2003
     EDDAV:  cpu time     52.9624: real time     52.9999
       DOS:  cpu time      0.0053: real time      0.0053
    CHARGE:  cpu time     10.1810: real time     10.1870
    MIXING:  cpu time      0.0162: real time      0.0162
    --------------------------------------------
      LOOP:  cpu time     75.9486: real time     76.0041

 eigenvalue-minimisations  :  2160
 total energy-change (2. order) :-0.2867505E+01  (-0.5389321E+00)
 number of electron     256.9999999 magnetization 
 augmentation part      -14.8774785 magnetization 

 Broyden mixing:
  rms(total) = 0.10269E+00    rms(broyden)= 0.70983E+00
  rms(prec ) = 0.12427E+00
  weight for this iteration     100.00
  WARNING: grid for Broyden might be to small

 eigenvalues of (default mixing * dielectric matrix)
  average eigenvalue GAMMA=   0.6433
  0.6780  0.6087

 Free energy of the ion-electron system (eV)
  ---------------------------------------------------
  alpha Z        PSCENC =       195.24944362
  Ewald energy   TEWEN  =     -7312.76997688
  -Hartree energ DENC   =      -483.29927455
  -exchange      EXHF   =         0.00000000
  -V(xc)+E(xc)   XCENC  =      -305.98656447
  PAW double counting   =      7994.23462184    -7341.83010530
  entropy T*S    EENTRO =        -0.03712455
  eigenvalues    EBANDS =         3.36632818
  atomic energy  EATOM  =      6608.76585177
  Solvation  Ediel_sol  =         0.00000000
  ---------------------------------------------------
  free energy    TOTEN  =      -642.30680034 eV

  energy without entropy =     -642.26967579  energy(sigma->0) =     -642.28823807


--------------------------------------------------------------------------------------------------------




--------------------------------------- Iteration      1(   4)  ---------------------------------------


    POTLOK:  cpu time      0.7039: real time      0.7042
    SETDIJ:  cpu time      1.8885: real time      1.8897
    EDDIAG:  cpu time     10.1720: real time     10.1783
     EDDAV:  cpu time     56.8023: real time     56.8399
       DOS:  cpu time      0.0051: real time      0.0051
    CHARGE:  cpu time     10.1680: real time     10.1736
    MIXING:  cpu time      0.0166: real time      0.0166
    --------------------------------------------
      LOOP:  cpu time     79.7563: real time     79.8072

 eigenvalue-minimisations  :  2416
 total energy-change (2. order) :-0.2091995E+00  (-0.5110894E-01)
 number of electron     256.9999999 magnetization 
 augmentation part      -14.8800828 magnetization 

 Broyden mixing:
  rms(total) = 0.12452E+00    rms(broyden)= 0.10572E+01
  rms(prec ) = 0.15178E+00
  weight for this iteration     100.00
  WARNING: grid for Broyden might be to small

 eigenvalues of (default mixing * dielectric matrix)
  average eigenvalue GAMMA=   0.5987
  0.7869  0.6345  0.3748

 Free energy of the ion-electron system (eV)
  ---------------------------------------------------
  alpha Z        PSCENC =       195.24944362
  Ewald energy   TEWEN  =     -7312.76997688
  -Hartree energ DENC   =      -482.82085586
  -exchange      EXHF   =         0.00000000
  -V(xc)+E(xc)   XCENC  =      -308.07360332
  PAW double counting   =      7986.47952059    -7334.07718233
  entropy T*S    EENTRO =        -0.03714914
  eigenvalues    EBANDS =         4.76795170
  atomic energy  EATOM  =      6608.76585177
  Solvation  Ediel_sol  =         0.00000000
  ---------------------------------------------------
  free energy    TOTEN  =      -642.51599984 eV

  energy without entropy =     -642.47885070  energy(sigma->0) =     -642.49742527


--------------------------------------------------------------------------------------------------------




--------------------------------------- Iteration      1(   5)  ---------------------------------------


    POTLOK:  cpu time      0.7022: real time      0.7025
    SETDIJ:  cpu time      1.8876: real time      1.8885
    EDDIAG:  cpu time     10.1899: real time     10.1970
     EDDAV:  cpu time     58.3427: real time     58.3834
       DOS:  cpu time      0.0057: real time      0.0057
    CHARGE:  cpu time     10.1358: real time     10.1416
    MIXING:  cpu time      0.0165: real time      0.0165
    --------------------------------------------
      LOOP:  cpu time     81.2803: real time     81.3352

 eigenvalue-minimisations  :  2528
 total energy-change (2. order) :-0.2003176E-03  (-0.1014357E-01)
 number of electron     256.9999999 magnetization 
 augmentation part      -14.8744615 magnetization 

 Broyden mixing:
  rms(total) = 0.53060E-01    rms(broyden)= 0.15045E+01
  rms(prec ) = 0.68965E-01
  weight for this iteration     100.00
  WARNING: grid for Broyden might be to small

 eigenvalues of (default mixing * dielectric matrix)
  average eigenvalue GAMMA=   0.6732
  1.0887  0.6483  0.6150  0.3408

 Free energy of the ion-electron system (eV)
  ---------------------------------------------------
  alpha Z        PSCENC =       195.24944362
  Ewald energy   TEWEN  =     -7312.76997688
  -Hartree energ DENC   =      -485.84245149
  -exchange      EXHF   =         0.00000000
  -V(xc)+E(xc)   XCENC  =      -306.26002523
  PAW double counting   =      8071.07168443    -7418.73992470
  entropy T*S    EENTRO =        -0.03715105
  eigenvalues    EBANDS =         6.04634936
  atomic energy  EATOM  =      6608.76585177
  Solvation  Ediel_sol  =         0.00000000
  ---------------------------------------------------
  free energy    TOTEN  =      -642.51620016 eV

  energy without entropy =     -642.47904911  energy(sigma->0) =     -642.49762464


--------------------------------------------------------------------------------------------------------




--------------------------------------- Iteration      1(   6)  ---------------------------------------


    POTLOK:  cpu time      0.7022: real time      0.7035
    SETDIJ:  cpu time      1.8922: real time      1.8928
    EDDIAG:  cpu time     10.1554: real time     10.1622
     EDDAV:  cpu time     60.0780: real time     60.1172
       DOS:  cpu time      0.0056: real time      0.0057
    CHARGE:  cpu time     10.1811: real time     10.1871
    MIXING:  cpu time      0.0172: real time      0.0172
    --------------------------------------------
      LOOP:  cpu time     83.0318: real time     83.0858

 eigenvalue-minimisations  :  2632
 total energy-change (2. order) :-0.1788788E-02  (-0.1009192E-02)
 number of electron     256.9999999 magnetization 
 augmentation part      -14.8744486 magnetization 

 Broyden mixing:
  rms(total) = 0.44224E-01    rms(broyden)= 0.46136E+00
  rms(prec ) = 0.56712E-01
  weight for this iteration     100.00
  WARNING: grid for Broyden might be to small

 eigenvalues of (default mixing * dielectric matrix)
  average eigenvalue GAMMA=   0.8814
  1.8186  0.9203  0.3882  0.6401  0.6401

 Free energy of the ion-electron system (eV)
  ---------------------------------------------------
  alpha Z        PSCENC =       195.24944362
  Ewald energy   TEWEN  =     -7312.76997688
  -Hartree energ DENC   =      -486.65841068
  -exchange      EXHF   =         0.00000000
  -V(xc)+E(xc)   XCENC  =      -306.49298944
  PAW double counting   =      8079.44897896    -7427.13363597
  entropy T*S    EENTRO =        -0.03703621
  eigenvalues    EBANDS =         7.10978588
  atomic energy  EATOM  =      6608.76585177
  Solvation  Ediel_sol  =         0.00000000
  ---------------------------------------------------
  free energy    TOTEN  =      -642.51798895 eV

  energy without entropy =     -642.48095274  energy(sigma->0) =     -642.49947084


--------------------------------------------------------------------------------------------------------




--------------------------------------- Iteration      1(   7)  ---------------------------------------


    POTLOK:  cpu time      0.7028: real time      0.7042
    SETDIJ:  cpu time      1.8877: real time      1.8888
    EDDIAG:  cpu time     10.1888: real time     10.1959
     EDDAV:  cpu time     63.7087: real time     63.7524
       DOS:  cpu time      0.0051: real time      0.0051
    CHARGE:  cpu time     10.1722: real time     10.1788
    MIXING:  cpu time      0.0172: real time      0.0173
    --------------------------------------------
      LOOP:  cpu time     86.6826: real time     86.7424

 eigenvalue-minimisations  :  2888
 total energy-change (2. order) :-0.4755767E-03  (-0.1407556E-03)
 number of electron     256.9999999 magnetization 
 augmentation part      -14.8734753 magnetization 

 Broyden mixing:
  rms(total) = 0.41053E-01    rms(broyden)= 0.57097E+00
  rms(prec ) = 0.52633E-01
  weight for this iteration     100.00
  WARNING: grid for Broyden might be to small

 eigenvalues of (default mixing * dielectric matrix)
  average eigenvalue GAMMA=   0.9496
  2.1588  1.1009  0.3786  0.7864  0.6479  0.6250

 Free energy of the ion-electron system (eV)
  ---------------------------------------------------
  alpha Z        PSCENC =       195.24944362
  Ewald energy   TEWEN  =     -7312.76997688
  -Hartree energ DENC   =      -487.00509348
  -exchange      EXHF   =         0.00000000
  -V(xc)+E(xc)   XCENC  =      -306.54938218
  PAW double counting   =      8079.79452418    -7427.48469834
  entropy T*S    EENTRO =        -0.03708597
  eigenvalues    EBANDS =         7.51795275
  atomic energy  EATOM  =      6608.76585177
  Solvation  Ediel_sol  =         0.00000000
  ---------------------------------------------------
  free energy    TOTEN  =      -642.51846453 eV

  energy without entropy =     -642.48137856  energy(sigma->0) =     -642.49992154


--------------------------------------------------------------------------------------------------------




--------------------------------------- Iteration      1(   8)  ---------------------------------------


    POTLOK:  cpu time      0.7023: real time      0.7030
    SETDIJ:  cpu time      1.8910: real time      1.8921
    EDDIAG:  cpu time     10.1747: real time     10.1811
     EDDAV:  cpu time     55.6746: real time     55.7097
       DOS:  cpu time      0.0049: real time      0.0049
    CHARGE:  cpu time     10.2490: real time     10.2538
    MIXING:  cpu time      0.0173: real time      0.0173
    --------------------------------------------
      LOOP:  cpu time     78.7139: real time     78.7619

 eigenvalue-minimisations  :  2336
 total energy-change (2. order) : 0.2817364E-03  (-0.1904815E-03)
 number of electron     256.9999999 magnetization 
 augmentation part      -14.8704407 magnetization 

 Broyden mixing:
  rms(total) = 0.27570E-01    rms(broyden)= 0.37614E+00
  rms(prec ) = 0.35316E-01
  weight for this iteration     100.00
  WARNING: grid for Broyden might be to small

 eigenvalues of (default mixing * dielectric matrix)
  average eigenvalue GAMMA=   1.0108
  2.4483  1.4020  0.9155  0.3836  0.6987  0.6188  0.6089

 Free energy of the ion-electron system (eV)
  ---------------------------------------------------
  alpha Z        PSCENC =       195.24944362
  Ewald energy   TEWEN  =     -7312.76997688
  -Hartree energ DENC   =      -488.21621437
  -exchange      EXHF   =         0.00000000
  -V(xc)+E(xc)   XCENC  =      -306.43317303
  PAW double counting   =      8083.99560013    -7431.70271889
  entropy T*S    EENTRO =        -0.03707028
  eigenvalues    EBANDS =         8.63007514
  atomic energy  EATOM  =      6608.76585177
  Solvation  Ediel_sol  =         0.00000000
  ---------------------------------------------------
  free energy    TOTEN  =      -642.51818279 eV

  energy without entropy =     -642.48111250  energy(sigma->0) =     -642.49964765


--------------------------------------------------------------------------------------------------------




--------------------------------------- Iteration      1(   9)  ---------------------------------------


    POTLOK:  cpu time      0.6984: real time      0.6993
    SETDIJ:  cpu time      1.8895: real time      1.8903
    EDDIAG:  cpu time     10.1918: real time     10.1979
     EDDAV:  cpu time     61.2962: real time     61.3353
       DOS:  cpu time      0.0053: real time      0.0053
    CHARGE:  cpu time     10.1852: real time     10.1903
    MIXING:  cpu time      0.0177: real time      0.0177
    --------------------------------------------
      LOOP:  cpu time     84.2841: real time     84.3363

 eigenvalue-minimisations  :  2720
 total energy-change (2. order) : 0.1523472E-03  (-0.1114144E-03)
 number of electron     256.9999999 magnetization 
 augmentation part      -14.8682218 magnetization 

 Broyden mixing:
  rms(total) = 0.17208E-01    rms(broyden)= 0.23653E+00
  rms(prec ) = 0.22060E-01
  weight for this iteration     100.00
  WARNING: grid for Broyden might be to small

 eigenvalues of (default mixing * dielectric matrix)
  average eigenvalue GAMMA=   1.0666
  2.6330  1.6893  1.0640  0.8529  0.3813  0.6637  0.6511  0.5978

 Free energy of the ion-electron system (eV)
  ---------------------------------------------------
  alpha Z        PSCENC =       195.24944362
  Ewald energy   TEWEN  =     -7312.76997688
  -Hartree energ DENC   =      -489.14208894
  -exchange      EXHF   =         0.00000000
  -V(xc)+E(xc)   XCENC  =      -306.32728689
  PAW double counting   =      8087.30257733    -7435.02094139
  entropy T*S    EENTRO =        -0.03705880
  eigenvalues    EBANDS =         9.46144974
  atomic energy  EATOM  =      6608.76585177
  Solvation  Ediel_sol  =         0.00000000
  ---------------------------------------------------
  free energy    TOTEN  =      -642.51803044 eV

  energy without entropy =     -642.48097164  energy(sigma->0) =     -642.49950104


--------------------------------------------------------------------------------------------------------




--------------------------------------- Iteration      1(  10)  ---------------------------------------


    POTLOK:  cpu time      0.7058: real time      0.7062
    SETDIJ:  cpu time      1.8867: real time      1.8879
    EDDIAG:  cpu time     10.1951: real time     10.2025
     EDDAV:  cpu time     58.4883: real time     58.5262
       DOS:  cpu time      0.0041: real time      0.0041
    CHARGE:  cpu time     10.1975: real time     10.2029
    MIXING:  cpu time      0.0180: real time      0.0180
    --------------------------------------------
      LOOP:  cpu time     81.4954: real time     81.5476

 eigenvalue-minimisations  :  2528
 total energy-change (2. order) : 0.7428362E-04  (-0.3658738E-04)
 number of electron     256.9999999 magnetization 
 augmentation part      -14.8667541 magnetization 

 Broyden mixing:
  rms(total) = 0.10969E-01    rms(broyden)= 0.15588E+00
  rms(prec ) = 0.14058E-01
  weight for this iteration     100.00
  WARNING: grid for Broyden might be to small

 eigenvalues of (default mixing * dielectric matrix)
  average eigenvalue GAMMA=   1.2776
  3.7366  2.2884  1.3572  1.0420  0.3819  0.7950  0.6653  0.6187  0.6135

 Free energy of the ion-electron system (eV)
  ---------------------------------------------------
  alpha Z        PSCENC =       195.24944362
  Ewald energy   TEWEN  =     -7312.76997688
  -Hartree energ DENC   =      -489.69515508
  -exchange      EXHF   =         0.00000000
  -V(xc)+E(xc)   XCENC  =      -306.26743572
  PAW double counting   =      8089.07892344    -7436.80262714
  entropy T*S    EENTRO =        -0.03703893
  eigenvalues    EBANDS =         9.96005877
  atomic energy  EATOM  =      6608.76585177
  Solvation  Ediel_sol  =         0.00000000
  ---------------------------------------------------
  free energy    TOTEN  =      -642.51795616 eV

  energy without entropy =     -642.48091722  energy(sigma->0) =     -642.49943669


--------------------------------------------------------------------------------------------------------




--------------------------------------- Iteration      1(  11)  ---------------------------------------


    POTLOK:  cpu time      0.7044: real time      0.7053
    SETDIJ:  cpu time      1.8937: real time      1.8946
    EDDIAG:  cpu time     10.2050: real time     10.2120
     EDDAV:  cpu time     57.2196: real time     57.2596
       DOS:  cpu time      0.0052: real time      0.0052
    CHARGE:  cpu time     10.1781: real time     10.1840
    MIXING:  cpu time      0.0181: real time      0.0181
    --------------------------------------------
      LOOP:  cpu time     80.2240: real time     80.2788

 eigenvalue-minimisations  :  2448
 total energy-change (2. order) : 0.8572964E-04  (-0.7294507E-04)
 number of electron     256.9999999 magnetization 
 augmentation part      -14.8646708 magnetization 

 Broyden mixing:
  rms(total) = 0.20774E-02    rms(broyden)= 0.26974E-01
  rms(prec ) = 0.26649E-02
  weight for this iteration     100.00
  WARNING: grid for Broyden might be to small

 eigenvalues of (default mixing * dielectric matrix)
  average eigenvalue GAMMA=   1.4051
  5.1790  2.4475  1.4814  1.0459  0.8784  0.3818  0.7438  0.6391  0.6391  0.6148

 Free energy of the ion-electron system (eV)
  ---------------------------------------------------
  alpha Z        PSCENC =       195.24944362
  Ewald energy   TEWEN  =     -7312.76997688
  -Hartree energ DENC   =      -490.48853320
  -exchange      EXHF   =         0.00000000
  -V(xc)+E(xc)   XCENC  =      -306.16539857
  PAW double counting   =      8091.70503038    -7439.43606542
  entropy T*S    EENTRO =        -0.03701574
  eigenvalues    EBANDS =        10.65879361
  atomic energy  EATOM  =      6608.76585177
  Solvation  Ediel_sol  =         0.00000000
  ---------------------------------------------------
  free energy    TOTEN  =      -642.51787043 eV

  energy without entropy =     -642.48085469  energy(sigma->0) =     -642.49936256


--------------------------------------------------------------------------------------------------------




--------------------------------------- Iteration      1(  12)  ---------------------------------------


    POTLOK:  cpu time      0.7159: real time      0.7163
    SETDIJ:  cpu time      1.8930: real time      1.8941
    EDDIAG:  cpu time     10.1715: real time     10.1774
     EDDAV:  cpu time     66.7013: real time     66.7452
       DOS:  cpu time      0.0048: real time      0.0048
    CHARGE:  cpu time     10.2072: real time     10.2132
    MIXING:  cpu time      0.0186: real time      0.0186
    --------------------------------------------
      LOOP:  cpu time     89.7124: real time     89.7696

 eigenvalue-minimisations  :  3088
 total energy-change (2. order) :-0.2604957E-05  (-0.6728356E-05)
 number of electron     256.9999999 magnetization 
 augmentation part      -14.8642241 magnetization 

 Broyden mixing:
  rms(total) = 0.22388E-03    rms(broyden)= 0.42095E-02
  rms(prec ) = 0.28257E-03
  weight for this iteration     100.00
  WARNING: grid for Broyden might be to small

 eigenvalues of (default mixing * dielectric matrix)
  average eigenvalue GAMMA=   1.4322
  6.1448  2.4988  1.5328  1.0665  0.9268  0.3818  0.7423  0.6258  0.6258  0.6043
  0.6043

 Free energy of the ion-electron system (eV)
  ---------------------------------------------------
  alpha Z        PSCENC =       195.24944362
  Ewald energy   TEWEN  =     -7312.76997688
  -Hartree energ DENC   =      -490.66032196
  -exchange      EXHF   =         0.00000000
  -V(xc)+E(xc)   XCENC  =      -306.15166543
  PAW double counting   =      8092.26657040    -7439.99916399
  entropy T*S    EENTRO =        -0.03701750
  eigenvalues    EBANDS =        10.81840693
  atomic energy  EATOM  =      6608.76585177
  Solvation  Ediel_sol  =         0.00000000
  ---------------------------------------------------
  free energy    TOTEN  =      -642.51787303 eV

  energy without entropy =     -642.48085553  energy(sigma->0) =     -642.49936428


--------------------------------------------------------------------------------------------------------




--------------------------------------- Iteration      1(  13)  ---------------------------------------


    POTLOK:  cpu time      0.7023: real time      0.7031
    SETDIJ:  cpu time      1.8897: real time      1.8907
    EDDIAG:  cpu time     10.1870: real time     10.1937
     EDDAV:  cpu time     45.0324: real time     45.0613
       DOS:  cpu time      0.0038: real time      0.0038
    CHARGE:  cpu time     10.1940: real time     10.1992
    MIXING:  cpu time      0.0185: real time      0.0186
    --------------------------------------------
      LOOP:  cpu time     68.0278: real time     68.0704

 eigenvalue-minimisations  :  1616
 total energy-change (2. order) :-0.9406836E-05  (-0.1485509E-06)
 number of electron     256.9999999 magnetization 
 augmentation part      -14.8642202 magnetization 

 Broyden mixing:
  rms(total) = 0.17619E-03    rms(broyden)= 0.24202E-02
  rms(prec ) = 0.21677E-03
  weight for this iteration     100.00
  WARNING: grid for Broyden might be to small

 eigenvalues of (default mixing * dielectric matrix)
  average eigenvalue GAMMA=   1.4331
  6.2683  2.4968  1.5936  1.2099  1.0747  0.9117  0.3818  0.7544  0.6377  0.6377
  0.6150  0.6150

 Free energy of the ion-electron system (eV)
  ---------------------------------------------------
  alpha Z        PSCENC =       195.24944362
  Ewald energy   TEWEN  =     -7312.76997688
  -Hartree energ DENC   =      -490.68553572
  -exchange      EXHF   =         0.00000000
  -V(xc)+E(xc)   XCENC  =      -306.15071950
  PAW double counting   =      8092.36135715    -7440.09372190
  entropy T*S    EENTRO =        -0.03701840
  eigenvalues    EBANDS =        10.84243741
  atomic energy  EATOM  =      6608.76585177
  Solvation  Ediel_sol  =         0.00000000
  ---------------------------------------------------
  free energy    TOTEN  =      -642.51788244 eV

  energy without entropy =     -642.48086404  energy(sigma->0) =     -642.49937324


--------------------------------------------------------------------------------------------------------




--------------------------------------- Iteration      1(  14)  ---------------------------------------


    POTLOK:  cpu time      0.7029: real time      0.7042
    SETDIJ:  cpu time      1.8928: real time      1.8937
    EDDIAG:  cpu time     10.1823: real time     10.1887
     EDDAV:  cpu time     42.0154: real time     42.0444
       DOS:  cpu time      0.0051: real time      0.0051
    CHARGE:  cpu time     10.1792: real time     10.1851
    MIXING:  cpu time      0.0188: real time      0.0188
    --------------------------------------------
      LOOP:  cpu time     64.9964: real time     65.0398

 eigenvalue-minimisations  :  1400
 total energy-change (2. order) :-0.4052896E-05  (-0.9909219E-07)
 number of electron     256.9999999 magnetization 
 augmentation part      -14.8642285 magnetization 

 Broyden mixing:
  rms(total) = 0.10668E-03    rms(broyden)= 0.35190E-02
  rms(prec ) = 0.14038E-03
  weight for this iteration     100.00
  WARNING: grid for Broyden might be to small

 eigenvalues of (default mixing * dielectric matrix)
  average eigenvalue GAMMA=   1.4194
  6.3348  2.4949  1.6575  1.3981  1.0877  1.0321  0.3818  0.8283  0.7353  0.6398
  0.6398  0.6111  0.6111

 Free energy of the ion-electron system (eV)
  ---------------------------------------------------
  alpha Z        PSCENC =       195.24944362
  Ewald energy   TEWEN  =     -7312.76997688
  -Hartree energ DENC   =      -490.66596664
  -exchange      EXHF   =         0.00000000
  -V(xc)+E(xc)   XCENC  =      -306.15521551
  PAW double counting   =      8092.28861971    -7440.02053666
  entropy T*S    EENTRO =        -0.03701800
  eigenvalues    EBANDS =        10.82691209
  atomic energy  EATOM  =      6608.76585177
  Solvation  Ediel_sol  =         0.00000000
  ---------------------------------------------------
  free energy    TOTEN  =      -642.51788649 eV

  energy without entropy =     -642.48086850  energy(sigma->0) =     -642.49937749


--------------------------------------------------------------------------------------------------------




--------------------------------------- Iteration      1(  15)  ---------------------------------------


    POTLOK:  cpu time      0.7005: real time      0.7014
    SETDIJ:  cpu time      1.8950: real time      1.8959
    EDDIAG:  cpu time     10.1939: real time     10.2008
     EDDAV:  cpu time     41.8015: real time     41.8294
       DOS:  cpu time      0.0047: real time      0.0047
    --------------------------------------------
      LOOP:  cpu time     54.5960: real time     54.6326

 eigenvalue-minimisations  :  1392
 total energy-change (2. order) :-0.8708939E-06  (-0.4788406E-07)
 number of electron     256.9999999 magnetization 
 augmentation part      -14.8642285 magnetization 

 Free energy of the ion-electron system (eV)
  ---------------------------------------------------
  alpha Z        PSCENC =       195.24944362
  Ewald energy   TEWEN  =     -7312.76997688
  -Hartree energ DENC   =      -490.67597352
  -exchange      EXHF   =         0.00000000
  -V(xc)+E(xc)   XCENC  =      -306.15359940
  PAW double counting   =      8092.33511598    -7440.06704819
  entropy T*S    EENTRO =        -0.03701706
  eigenvalues    EBANDS =        10.83531632
  atomic energy  EATOM  =      6608.76585177
  Solvation  Ediel_sol  =         0.00000000
  ---------------------------------------------------
  free energy    TOTEN  =      -642.51788736 eV

  energy without entropy =     -642.48087030  energy(sigma->0) =     -642.49937883


--------------------------------------------------------------------------------------------------------




 average (electrostatic) potential at core
  the test charge radii are     1.1243  0.5201
  (the norm of the test charge is              1.0000)
       1 -69.8450       2 -69.8448       3 -69.4654       4 -69.3932       5 -69.4655
       6 -69.3931       7 -69.4657       8 -69.3931       9 -69.4052      10 -69.4053
      11 -69.4413      12 -69.4415      13 -69.4413      14 -69.4414      15 -69.4007
      16 -69.3800      17 -69.4052      18 -69.4053      19 -69.4413      20 -69.4415
      21 -69.4006      22 -69.3800      23 -69.4413      24 -69.4414      25 -69.3493
      26 -69.3492      27 -69.3934      28 -69.4649      29 -69.3951      30 -69.3952
      31 -69.3951      32 -69.3952      33 -69.4052      34 -69.4053      35 -69.4006
      36 -69.3800      37 -69.4414      38 -69.4415      39 -69.4414      40 -69.4414
      41 -69.3493      42 -69.3491      43 -69.3951      44 -69.3952      45 -69.3934
      46 -69.4651      47 -69.3952      48 -69.3953      49 -69.3493      50 -69.3491
      51 -69.3951      52 -69.3952      53 -69.3952      54 -69.3953      55 -69.3933
      56 -69.4649      57 -69.3742      58 -69.3743      59 -69.3799      60 -69.4007
      61 -69.3799      62 -69.4008      63 -69.3799      64 -69.4008      65 -34.9769



 E-fermi :   6.1530     XC(G=0):  -9.7939     alpha+bet :-11.5874

 WARNING: Could not determine fundamental gap because eigenvalues are not
     sorted.

 Fermi energy:         6.1529848404

 k-point     1 :       0.0000    0.0000    0.0000
  band No.  band energies     occupation 
      1      -7.1639      2.00000
      2      -6.1354      2.00000
      3      -6.0960      2.00000
      4      -6.0014      2.00000
      5      -6.0014      2.00000
      6      -5.9993      2.00000
      7      -5.9993      2.00000
      8      -5.2310      2.00000
      9      -5.1461      2.00000
     10      -5.0270      2.00000
     11      -5.0270      2.00000
     12      -5.0207      2.00000
     13      -5.0206      2.00000
     14      -4.9958      2.00000
     15      -4.9888      2.00000
     16      -4.9888      2.00000
     17      -4.9796      2.00000
     18      -4.9775      2.00000
     19      -4.9774      2.00000
     20      -4.7246      2.00000
     21      -4.7204      2.00000
     22      -4.6983      2.00000
     23      -4.6983      2.00000
     24      -3.0755      2.00000
     25      -2.9812      2.00000
     26      -2.8330      2.00000
     27      -2.8330      2.00000
     28      -2.8013      2.00000
     29      -2.8013      2.00000
     30      -2.7004      2.00000
     31      -2.6764      2.00000
     32      -2.6636      2.00000
     33      -2.6636      2.00000
     34      -2.6502      2.00000
     35      -2.6442      2.00000
     36      -2.6441      2.00000
     37      -2.6405      2.00000
     38      -2.6405      2.00000
     39      -2.6175      2.00000
     40      -2.6175      2.00000
     41      -2.6023      2.00000
     42      -2.0150      2.00000
     43      -1.9755      2.00000
     44      -1.8858      2.00000
     45      -1.8858      2.00000
     46      -0.6725      2.00000
     47      -0.4791      2.00000
     48      -0.4011      2.00000
     49      -0.4010      2.00000
     50      -0.3782      2.00000
     51      -0.3781      2.00000
     52      -0.3751      2.00000
     53      -0.3658      2.00000
     54      -0.3586      2.00000
     55      -0.3586      2.00000
     56      -0.3416      2.00000
     57      -0.3416      2.00000
     58       0.4691      2.00000
     59       1.2392      2.00000
     60       1.2394      2.00000
     61       1.2613      2.00000
     62       1.2614      2.00000
     63       1.3034      2.00000
     64       1.3166      2.00000
     65       1.3145      2.00000
     66       1.3272      2.00000
     67       1.3273      2.00000
     68       1.3937      2.00000
     69       1.3937      2.00000
     70       1.3947      2.00000
     71       1.4015      2.00000
     72       1.4015      2.00000
     73       1.4075      2.00000
     74       1.4275      2.00000
     75       1.4277      2.00000
     76       1.4295      2.00000
     77       1.4296      2.00000
     78       1.4313      2.00000
     79       1.4425      2.00000
     80       1.5613      2.00000
     81       1.5613      2.00000
     82       1.6074      2.00000
     83       1.6519      2.00000
     84       1.6520      2.00000
     85       1.6706      2.00000
     86       1.7060      2.00000
     87       1.7062      2.00000
     88       2.2095      2.00000
     89       2.3162      2.00000
     90       2.3165      2.00000
     91       2.3208      2.00000
     92       2.3210      2.00000
     93       2.3628      2.00000
     94       3.0682      2.00000
     95       3.2575      2.00000
     96       3.2578      2.00000
     97       3.2578      2.00000
     98       3.2697      2.00000
     99       3.2700      2.00000
    100       3.3361      2.00000
    101       3.3364      2.00000
    102       3.3521      2.00000
    103       3.3545      2.00000
    104       3.3578      2.00000
    105       3.3577      2.00000
    106       3.6989      2.00000
    107       3.8384      2.00000
    108       3.8385      2.00000
[...]
    10.875634891  0.020186591  0.020186591     0.091949287 -0.000170354 -0.000170354
     0.020186591 10.875634891  0.020186591    -0.000170354  0.091949287 -0.000170354
     0.020186591  0.020186591 10.875634891    -0.000170354 -0.000170354  0.091949287

  length of vectors
    10.875672360 10.875672360 10.875672360     0.091949603  0.091949603  0.091949603


 FORCES acting on ions
    electron-ion (+dipol)            ewald-force                    non-local-force                 convergence-correction
 -----------------------------------------------------------------------------------------------
   -.818E+00 -.818E+00 -.818E+00   0.407E-01 0.407E-01 0.407E-01   0.723E+00 0.723E+00 0.723E+00   0.208E-04 0.208E-04 0.208E-04
   0.818E+00 0.818E+00 0.818E+00   -.407E-01 -.407E-01 -.407E-01   -.723E+00 -.723E+00 -.723E+00   -.208E-04 -.208E-04 -.208E-04
   0.584E+01 0.210E+01 0.210E+01   -.566E+01 -.182E+01 -.182E+01   -.234E+00 -.256E+00 -.256E+00   -.405E-04 -.448E-05 -.448E-05
   -.505E+00 -.908E+00 -.908E+00   0.314E+00 0.113E+01 0.113E+01   0.203E+00 -.196E+00 -.196E+00   -.110E-06 0.304E-04 0.304E-04
   0.210E+01 0.584E+01 0.210E+01   -.182E+01 -.566E+01 -.182E+01   -.256E+00 -.234E+00 -.256E+00   -.448E-05 -.405E-04 -.448E-05
   -.908E+00 -.505E+00 -.908E+00   0.113E+01 0.314E+00 0.113E+01   -.196E+00 0.203E+00 -.196E+00   0.304E-04 -.110E-06 0.304E-04
   0.210E+01 0.210E+01 0.584E+01   -.182E+01 -.182E+01 -.566E+01   -.256E+00 -.256E+00 -.234E+00   -.448E-05 -.448E-05 -.405E-04
   -.908E+00 -.908E+00 -.505E+00   0.113E+01 0.113E+01 0.314E+00   -.196E+00 -.196E+00 0.203E+00   0.304E-04 0.304E-04 -.110E-06
   -.374E+00 -.374E+00 0.522E+00   0.285E+00 0.285E+00 -.614E+00   0.881E-01 0.881E-01 0.983E-01   -.311E-04 -.311E-04 -.199E-04
   0.374E+00 0.374E+00 -.521E+00   -.285E+00 -.285E+00 0.614E+00   -.881E-01 -.881E-01 -.983E-01   0.311E-04 0.311E-04 0.199E-04
   -.163E+01 0.275E+00 -.279E+01   0.161E+01 -.203E+00 0.241E+01   0.311E-01 -.719E-01 0.354E+00   0.100E-04 0.391E-04 0.636E-05
   0.163E+01 0.279E+01 -.275E+00   -.161E+01 -.241E+01 0.203E+00   -.311E-01 -.354E+00 0.719E-01   -.100E-04 -.636E-05 -.391E-04
   0.275E+00 -.163E+01 -.279E+01   -.203E+00 0.161E+01 0.241E+01   -.719E-01 0.311E-01 0.354E+00   0.391E-04 0.100E-04 0.636E-05
   0.279E+01 0.163E+01 -.275E+00   -.241E+01 -.161E+01 0.203E+00   -.354E+00 -.311E-01 0.719E-01   -.636E-05 -.100E-04 -.391E-04
   -.709E-03 -.709E-03 -.132E+01   0.126E-01 0.126E-01 0.137E+01   -.962E-02 -.962E-02 -.369E-01   0.119E-04 0.119E-04 0.446E-04
   0.408E-01 0.408E-01 -.126E+00   0.316E-01 0.316E-01 0.216E+00   -.629E-01 -.629E-01 -.874E-01   -.163E-04 -.163E-04 0.340E-04
   -.374E+00 0.522E+00 -.374E+00   0.285E+00 -.614E+00 0.285E+00   0.881E-01 0.983E-01 0.881E-01   -.311E-04 -.199E-04 -.311E-04
   0.374E+00 -.521E+00 0.374E+00   -.285E+00 0.614E+00 -.285E+00   -.881E-01 -.983E-01 -.881E-01   0.311E-04 0.199E-04 0.311E-04
   -.163E+01 -.279E+01 0.275E+00   0.161E+01 0.241E+01 -.203E+00   0.311E-01 0.354E+00 -.719E-01   0.100E-04 0.636E-05 0.391E-04
   0.163E+01 -.275E+00 0.279E+01   -.161E+01 0.203E+00 -.241E+01   -.311E-01 0.719E-01 -.354E+00   -.100E-04 -.391E-04 -.636E-05
   -.709E-03 -.132E+01 -.709E-03   0.126E-01 0.137E+01 0.126E-01   -.962E-02 -.369E-01 -.962E-02   0.119E-04 0.446E-04 0.119E-04
   0.408E-01 -.126E+00 0.408E-01   0.316E-01 0.216E+00 0.316E-01   -.629E-01 -.874E-01 -.629E-01   -.163E-04 0.340E-04 -.163E-04
   0.275E+00 -.279E+01 -.163E+01   -.203E+00 0.241E+01 0.161E+01   -.719E-01 0.354E+00 0.311E-01   0.391E-04 0.636E-05 0.100E-04
   0.279E+01 -.275E+00 0.163E+01   -.241E+01 0.203E+00 -.161E+01   -.354E+00 0.719E-01 -.311E-01   -.636E-05 -.391E-04 -.100E-04
   0.129E+01 -.482E+00 -.482E+00   -.987E+00 0.390E+00 0.390E+00   -.299E+00 0.888E-01 0.888E-01   -.928E-05 0.392E-05 0.392E-05
   -.129E+01 0.482E+00 0.482E+00   0.987E+00 -.390E+00 -.390E+00   0.299E+00 -.888E-01 -.888E-01   0.928E-05 -.392E-05 -.392E-05
   0.504E+00 0.908E+00 0.908E+00   -.314E+00 -.113E+01 -.113E+01   -.203E+00 0.196E+00 0.196E+00   0.110E-06 -.304E-04 -.304E-04
   -.584E+01 -.210E+01 -.210E+01   0.566E+01 0.182E+01 0.182E+01   0.234E+00 0.256E+00 0.256E+00   0.405E-04 0.448E-05 0.448E-05
   -.258E+00 -.983E-01 -.656E+00   0.273E+00 0.272E-01 0.482E+00   -.132E-01 0.689E-01 0.164E+00   0.993E-05 -.115E-04 -.440E-05
   0.656E+00 0.982E-01 0.257E+00   -.482E+00 -.272E-01 -.273E+00   -.164E+00 -.689E-01 0.132E-01   0.440E-05 0.115E-04 -.993E-05
   -.258E+00 -.656E+00 -.983E-01   0.273E+00 0.482E+00 0.272E-01   -.132E-01 0.164E+00 0.689E-01   0.993E-05 -.440E-05 -.115E-04
   0.656E+00 0.257E+00 0.982E-01   -.482E+00 -.273E+00 -.272E-01   -.164E+00 0.132E-01 -.689E-01   0.440E-05 -.993E-05 0.115E-04
   0.522E+00 -.374E+00 -.374E+00   -.614E+00 0.285E+00 0.285E+00   0.983E-01 0.881E-01 0.881E-01   -.199E-04 -.311E-04 -.311E-04
   -.521E+00 0.374E+00 0.374E+00   0.614E+00 -.285E+00 -.285E+00   -.983E-01 -.881E-01 -.881E-01   0.199E-04 0.311E-04 0.311E-04
   -.132E+01 -.709E-03 -.709E-03   0.137E+01 0.126E-01 0.126E-01   -.369E-01 -.962E-02 -.962E-02   0.446E-04 0.119E-04 0.119E-04
   -.126E+00 0.408E-01 0.408E-01   0.216E+00 0.316E-01 0.316E-01   -.874E-01 -.629E-01 -.629E-01   0.340E-04 -.163E-04 -.163E-04
   -.279E+01 -.163E+01 0.275E+00   0.241E+01 0.161E+01 -.203E+00   0.354E+00 0.311E-01 -.719E-01   0.636E-05 0.100E-04 0.391E-04
   -.275E+00 0.163E+01 0.279E+01   0.203E+00 -.161E+01 -.241E+01   0.719E-01 -.311E-01 -.354E+00   -.391E-04 -.100E-04 -.636E-05
   -.279E+01 0.275E+00 -.163E+01   0.241E+01 -.203E+00 0.161E+01   0.354E+00 -.719E-01 0.311E-01   0.636E-05 0.391E-04 0.100E-04
   -.275E+00 0.279E+01 0.163E+01   0.203E+00 -.241E+01 -.161E+01   0.719E-01 -.354E+00 -.311E-01   -.391E-04 -.636E-05 -.100E-04
   -.482E+00 0.129E+01 -.482E+00   0.390E+00 -.987E+00 0.390E+00   0.888E-01 -.299E+00 0.888E-01   0.392E-05 -.928E-05 0.392E-05
   0.482E+00 -.129E+01 0.482E+00   -.390E+00 0.987E+00 -.390E+00   -.888E-01 0.299E+00 -.888E-01   -.392E-05 0.928E-05 -.392E-05
   -.983E-01 -.258E+00 -.656E+00   0.272E-01 0.273E+00 0.482E+00   0.689E-01 -.132E-01 0.164E+00   -.115E-04 0.993E-05 -.440E-05
   0.982E-01 0.656E+00 0.257E+00   -.272E-01 -.482E+00 -.273E+00   -.689E-01 -.164E+00 0.132E-01   0.115E-04 0.440E-05 -.993E-05
   0.908E+00 0.504E+00 0.908E+00   -.113E+01 -.314E+00 -.113E+01   0.196E+00 -.203E+00 0.196E+00   -.304E-04 0.110E-06 -.304E-04
   -.210E+01 -.584E+01 -.210E+01   0.182E+01 0.566E+01 0.182E+01   0.256E+00 0.234E+00 0.256E+00   0.448E-05 0.405E-04 0.448E-05
   -.656E+00 -.258E+00 -.983E-01   0.482E+00 0.273E+00 0.272E-01   0.164E+00 -.132E-01 0.689E-01   -.440E-05 0.993E-05 -.115E-04
   0.257E+00 0.656E+00 0.982E-01   -.273E+00 -.482E+00 -.272E-01   0.132E-01 -.164E+00 -.689E-01   -.993E-05 0.440E-05 0.115E-04
   -.482E+00 -.482E+00 0.129E+01   0.390E+00 0.390E+00 -.987E+00   0.888E-01 0.888E-01 -.299E+00   0.392E-05 0.392E-05 -.928E-05
   0.482E+00 0.482E+00 -.129E+01   -.390E+00 -.390E+00 0.987E+00   -.888E-01 -.888E-01 0.299E+00   -.392E-05 -.392E-05 0.928E-05
   -.983E-01 -.656E+00 -.258E+00   0.272E-01 0.482E+00 0.273E+00   0.689E-01 0.164E+00 -.132E-01   -.115E-04 -.440E-05 0.993E-05
   0.982E-01 0.257E+00 0.656E+00   -.272E-01 -.273E+00 -.482E+00   -.689E-01 0.132E-01 -.164E+00   0.115E-04 -.993E-05 0.440E-05
   -.656E+00 -.983E-01 -.258E+00   0.482E+00 0.272E-01 0.273E+00   0.164E+00 0.689E-01 -.132E-01   -.440E-05 -.115E-04 0.993E-05
   0.257E+00 0.982E-01 0.656E+00   -.273E+00 -.272E-01 -.482E+00   0.132E-01 -.689E-01 -.164E+00   -.993E-05 0.115E-04 0.440E-05
   0.908E+00 0.908E+00 0.504E+00   -.113E+01 -.113E+01 -.314E+00   0.196E+00 0.196E+00 -.203E+00   -.304E-04 -.304E-04 0.110E-06
   -.210E+01 -.210E+01 -.584E+01   0.182E+01 0.182E+01 0.566E+01   0.256E+00 0.256E+00 0.234E+00   0.448E-05 0.448E-05 0.405E-04
   -.342E+00 -.342E+00 -.342E+00   0.308E+00 0.308E+00 0.308E+00   0.328E-01 0.328E-01 0.328E-01   0.384E-05 0.384E-05 0.384E-05
   0.342E+00 0.342E+00 0.342E+00   -.308E+00 -.308E+00 -.308E+00   -.328E-01 -.328E-01 -.328E-01   -.384E-05 -.384E-05 -.384E-05
   0.125E+00 -.409E-01 -.409E-01   -.216E+00 -.316E-01 -.316E-01   0.874E-01 0.629E-01 0.629E-01   -.340E-04 0.163E-04 0.163E-04
   0.132E+01 0.113E-02 0.113E-02   -.137E+01 -.126E-01 -.126E-01   0.369E-01 0.962E-02 0.962E-02   -.446E-04 -.119E-04 -.119E-04
   -.409E-01 0.125E+00 -.409E-01   -.316E-01 -.216E+00 -.316E-01   0.629E-01 0.874E-01 0.629E-01   0.163E-04 -.340E-04 0.163E-04
   0.113E-02 0.132E+01 0.113E-02   -.126E-01 -.137E+01 -.126E-01   0.962E-02 0.369E-01 0.962E-02   -.119E-04 -.446E-04 -.119E-04
   -.409E-01 -.409E-01 0.125E+00   -.316E-01 -.316E-01 -.216E+00   0.629E-01 0.629E-01 0.874E-01   0.163E-04 0.163E-04 -.340E-04
   0.113E-02 0.113E-02 0.132E+01   -.126E-01 -.126E-01 -.137E+01   0.962E-02 0.962E-02 0.369E-01   -.119E-04 -.119E-04 -.446E-04
   0.910E-09 0.910E-09 -.627E-09   -.741E-14 -.203E-14 -.178E-14   -.728E-20 -.199E-21 0.683E-20   0.873E-14 -.238E-14 0.995E-15
 -----------------------------------------------------------------------------------------------
   -.644E-02 -.644E-02 -.644E-02   0.403E-12 -.234E-13 -.240E-13   -.664E-15 -.416E-16 -.638E-15   0.237E-12 -.214E-12 0.741E-13


 POSITION                                       TOTAL-FORCE (eV/Angst)
 -----------------------------------------------------------------------------------
     10.67345     10.67345     10.67345         0.028878      0.028878      0.028878
      1.60706      1.60706      1.60706        -0.028878     -0.028878     -0.028878
     10.86942      2.80376      2.80376        -0.026524      0.003471      0.003471
      1.38351      4.11486      4.11486         0.017819      0.010631      0.010631
      2.80376     10.86942      2.80376         0.003471     -0.026524      0.003471
      4.11486      1.38351      4.11486         0.010631      0.017819      0.010631
      2.80376      2.80376     10.86942         0.003471      0.003471     -0.026524
      4.11486      4.11486      1.38351         0.010631      0.010631      0.017819
      0.01079      0.01079      5.44105         0.002395      0.002395      0.006711
      1.37389      1.37389      6.79909        -0.002395     -0.002395     -0.006711
      0.02783      2.73511      8.15920         0.001726     -0.007796     -0.008750
      1.37705      4.10112      9.52521        -0.001726      0.008750      0.007796
      2.73511      0.02783      8.15920        -0.007796      0.001726     -0.008750
      4.10112      1.37705      9.52521         0.008750     -0.001726      0.007796
      2.73936      2.73936      5.45745         0.000779      0.000779      0.004159
      4.09965      4.09965      6.81733         0.005427      0.005427     -0.000706
      0.01079      5.44105      0.01079         0.002395      0.006711      0.002395
      1.37389      6.79909      1.37389        -0.002395     -0.006711     -0.002395
      0.02783      8.15920      2.73511         0.001726     -0.008750     -0.007796
      1.37705      9.52521      4.10112        -0.001726      0.007796      0.008750
      2.73936      5.45745      2.73936         0.000779      0.004159      0.000779
      4.09965      6.81733      4.09965         0.005427     -0.000706      0.005427
      2.73511      8.15920      0.02783        -0.007796     -0.008750      0.001726
      4.10112      9.52521      1.37705         0.008750      0.007796     -0.001726
     10.89369      5.47815      5.47815        -0.006581      0.000082      0.000082
      1.38682      6.80236      6.80236         0.006581     -0.000082     -0.000082
     10.89700      8.16565      8.16565        -0.017819     -0.010631     -0.010631
      1.41108      9.47675      9.47675         0.026524     -0.003471     -0.003471
      2.74472      5.45897      8.17449        -0.000703     -0.000443     -0.000605
      4.10602      6.82154      9.53578         0.000605      0.000443      0.000703
      2.74472      8.17449      5.45897        -0.000703     -0.000605     -0.000443
      4.10602      9.53578      6.82154         0.000605      0.000703      0.000443
      5.44105      0.01079      0.01079         0.006711      0.002395      0.002395
      6.79909      1.37389      1.37389        -0.006711     -0.002395     -0.002395
      5.45745      2.73936      2.73936         0.004159      0.000779      0.000779
      6.81733      4.09965      4.09965        -0.000706      0.005427      0.005427
      8.15920      0.02783      2.73511        -0.008750      0.001726     -0.007796
      9.52521      1.37705      4.10112         0.007796     -0.001726      0.008750
      8.15920      2.73511      0.02783        -0.008750     -0.007796      0.001726
      9.52521      4.10112      1.37705         0.007796      0.008750     -0.001726
      5.47815     10.89369      5.47815         0.000082     -0.006581      0.000082
      6.80236      1.38682      6.80236        -0.000082      0.006581     -0.000082
      5.45897      2.74472      8.17449        -0.000443     -0.000703     -0.000605
      6.82154      4.10602      9.53578         0.000443      0.000605      0.000703
      8.16565     10.89700      8.16565        -0.010631     -0.017819     -0.010631
      9.47675      1.41108      9.47675        -0.003471      0.026524     -0.003471
      8.17449      2.74472      5.45897        -0.000605     -0.000703     -0.000443
      9.53578      4.10602      6.82154         0.000703      0.000605      0.000443
      5.47815      5.47815     10.89369         0.000082      0.000082     -0.006581
      6.80236      6.80236      1.38682        -0.000082     -0.000082      0.006581
      5.45897      8.17449      2.74472        -0.000443     -0.000605     -0.000703
      6.82154      9.53578      4.10602         0.000443      0.000703      0.000605
      8.17449      5.45897      2.74472        -0.000605     -0.000443     -0.000703
      9.53578      6.82154      4.10602         0.000703      0.000443      0.000605
      8.16565      8.16565     10.89700        -0.010631     -0.010631     -0.017819
      9.47675      9.47675      1.41108        -0.003471     -0.003471      0.026524
      5.45984      5.45984      5.45984         0.000309      0.000309      0.000309
      6.82067      6.82067      6.82067        -0.000309     -0.000309     -0.000309
      5.46318      8.18086      8.18086         0.000706     -0.005427     -0.005427
      6.82306      9.54115      9.54115        -0.004159     -0.000779     -0.000779
      8.18086      5.46318      8.18086        -0.005427      0.000706     -0.005427
      9.54115      6.82306      9.54115        -0.000779     -0.004159     -0.000779
      8.18086      8.18086      5.46318        -0.005427     -0.005427      0.000706
      9.54115      9.54115      6.82306        -0.000779     -0.000779     -0.004159
      0.68225      0.68225      0.68225        -0.000000     -0.000000      0.000000
 -----------------------------------------------------------------------------------
    total drift:                               -0.006440     -0.006440     -0.006439


--------------------------------------------------------------------------------------------------------



  FREE ENERGIE OF THE ION-ELECTRON SYSTEM (eV)
  ---------------------------------------------------
  free  energy   TOTEN  =      -642.51788736 eV

  energy  without entropy=     -642.48087030  energy(sigma->0) =     -642.49937883



--------------------------------------------------------------------------------------------------------


    POTLOK:  cpu time      2.5777: real time      2.5788


--------------------------------------------------------------------------------------------------------


     LOOP+:  cpu time   1300.2180: real time   1301.0755
    4ORBIT:  cpu time      0.0000: real time      0.0000



 total charge

# of ion       s       p       d       tot
------------------------------------------
    1        0.751   0.914   0.075   1.741
    2        0.751   0.914   0.075   1.741
    3        0.723   0.948   0.068   1.740
    4        0.724   0.941   0.068   1.733
    5        0.723   0.948   0.068   1.740
    6        0.724   0.941   0.068   1.733
    7        0.723   0.948   0.068   1.740
    8        0.724   0.941   0.068   1.733
    9        0.724   0.939   0.065   1.728
   10        0.724   0.939   0.065   1.728
   11        0.723   0.937   0.066   1.726
   12        0.723   0.937   0.066   1.726
   13        0.723   0.937   0.066   1.726
   14        0.723   0.937   0.066   1.726
   15        0.724   0.938   0.065   1.727
   16        0.723   0.938   0.065   1.727
   17        0.724   0.939   0.065   1.728
   18        0.724   0.939   0.065   1.728
   19        0.723   0.937   0.066   1.726
   20        0.723   0.937   0.066   1.726
   21        0.724   0.938   0.065   1.727
   22        0.723   0.938   0.065   1.727
   23        0.723   0.937   0.066   1.726
   24        0.723   0.937   0.066   1.726
   25        0.725   0.943   0.066   1.734
   26        0.725   0.943   0.066   1.734
   27        0.724   0.941   0.068   1.733
   28        0.723   0.948   0.068   1.740
   29        0.723   0.937   0.065   1.726
   30        0.723   0.937   0.065   1.726
   31        0.723   0.937   0.065   1.726
   32        0.723   0.937   0.065   1.726
   33        0.724   0.939   0.065   1.728
   34        0.724   0.939   0.065   1.728
   35        0.724   0.938   0.065   1.727
   36        0.723   0.938   0.065   1.727
   37        0.723   0.937   0.066   1.726
   38        0.723   0.937   0.066   1.726
   39        0.723   0.937   0.066   1.726
   40        0.723   0.937   0.066   1.726
   41        0.725   0.943   0.066   1.734
   42        0.725   0.943   0.066   1.734
   43        0.723   0.937   0.065   1.726
   44        0.723   0.937   0.065   1.726
   45        0.724   0.941   0.068   1.733
   46        0.723   0.948   0.068   1.740
   47        0.723   0.937   0.065   1.726
   48        0.723   0.937   0.065   1.726
   49        0.725   0.943   0.066   1.734
   50        0.725   0.943   0.066   1.734
   51        0.723   0.937   0.065   1.726
   52        0.723   0.937   0.065   1.726
   53        0.723   0.937   0.065   1.726
   54        0.723   0.937   0.065   1.726
   55        0.724   0.941   0.068   1.733
   56        0.723   0.948   0.068   1.740
   57        0.724   0.936   0.065   1.725
   58        0.724   0.936   0.065   1.725
   59        0.723   0.938   0.065   1.727
   60        0.724   0.938   0.065   1.727
   61        0.723   0.938   0.065   1.727
   62        0.724   0.938   0.065   1.727
   63        0.723   0.938   0.065   1.727
   64        0.724   0.938   0.065   1.727
   65        0.607   0.019   0.000   0.626
--------------------------------------------------
tot         46.973  60.099   4.240 111.312


 total amount of memory used by VASP MPI-rank0   147630. kBytes
=======================================================================

   base                                    :      30000. kBytes
   nonl-proj                               :      21058. kBytes
   fftplans                                :      40723. kBytes
   grid                                    :      25513. kBytes
   one-center                              :         77. kBytes
   wavefun                                 :      30259. kBytes

  
  
 General timing and accounting informations for this job:
 ========================================================
  
                  Total CPU time used (sec):     1336.323
                            User time (sec):     1311.282
                          System time (sec):       25.040
                         Elapsed time (sec):     1337.250
  
                   Maximum memory used (kb):      630672.
                   Average memory used (kb):          N/A
  
                          Minor page faults:      2198241
                          Major page faults:         1143
                 Voluntary context switches:         1075
