64
Lattice="10.83001999906046 1.3387745725375925e-21 -6.107726461425179e-23 2.4608982960252377e-22 10.83001999906046 -1.5241430401652982e-22 -2.8378206060648215e-21 2.2050263602153795e-22 10.83001999906046" Properties=species:S:1:pos:R:3:forces:R:3:energies:R:1 energy=-374.88536172729795 free_energy=-374.88536172729795 stress="1.4055471935524035e-06 -3.4126285781276764e-15 -3.271436138453145e-15 -3.4126285781276764e-15 1.4055471935620092e-06 -3.589380113809688e-15 -3.271436138453145e-15 -3.589380113809688e-15 1.4055471935380035e-06" pbc="T T T"
Si      -0.00000000       0.00000000      -0.00000000       0.00000000       0.00000000       0.00000000      -5.85758378
Si       1.35375250       1.35375250       1.35375250       0.00000000       0.00000000      -0.00000000      -5.85758378
Si       0.00000000       2.70750500       2.70750500      -0.00000000      -0.00000000      -0.00000000      -5.85758378
Si       1.35375250       4.06125750       4.06125750      -0.00000000      -0.00000000      -0.00000000      -5.85758378
Si       2.70750500       0.00000000       2.70750500      -0.00000000       0.00000000       0.00000000      -5.85758378
Si       4.06125750       1.35375250       4.06125750      -0.00000000      -0.00000000       0.00000000      -5.85758378
Si       2.70750500       2.70750500       0.00000000      -0.00000000       0.00000000       0.00000000      -5.85758378
Si       4.06125750       4.06125750       1.35375250      -0.00000000      -0.00000000      -0.00000000      -5.85758378
Si       0.00000000      -0.00000000       5.41501000       0.00000000       0.00000000      -0.00000000      -5.85758378
Si       1.35375250       1.35375250       6.76876250      -0.00000000      -0.00000000       0.00000000      -5.85758378
Si       0.00000000       2.70750500       8.12251500       0.00000000      -0.00000000      -0.00000000      -5.85758378
Si       1.35375250       4.06125750       9.47626750      -0.00000000       0.00000000       0.00000000      -5.85758378
Si       2.70750500      -0.00000000       8.12251500      -0.00000000       0.00000000      -0.00000000      -5.85758378
Si       4.06125750       1.35375250       9.47626750       0.00000000      -0.00000000       0.00000000      -5.85758378
Si       2.70750500       2.70750500       5.41501000       0.00000000      -0.00000000      -0.00000000      -5.85758378
Si       4.06125750       4.06125750       6.76876250       0.00000000      -0.00000000       0.00000000      -5.85758378
Si       0.00000000       5.41501000      -0.00000000       0.00000000      -0.00000000       0.00000000      -5.85758378
Si       1.35375250       6.76876250       1.35375250      -0.00000000       0.00000000      -0.00000000      -5.85758378
Si       0.00000000       8.12251500       2.70750500       0.00000000      -0.00000000      -0.00000000      -5.85758378
Si       1.35375250       9.47626750       4.06125750       0.00000000       0.00000000       0.00000000      -5.85758378
Si       2.70750500       5.41501000       2.70750500       0.00000000      -0.00000000      -0.00000000      -5.85758378
Si       4.06125750       6.76876250       4.06125750       0.00000000       0.00000000       0.00000000      -5.85758378
Si       2.70750500       8.12251500       0.00000000      -0.00000000      -0.00000000       0.00000000      -5.85758378
Si       4.06125750       9.47626750       1.35375250       0.00000000       0.00000000      -0.00000000      -5.85758378
Si       0.00000000       5.41501000       5.41501000      -0.00000000      -0.00000000      -0.00000000      -5.85758378
Si       1.35375250       6.76876250       6.76876250      -0.00000000       0.00000000       0.00000000      -5.85758378
Si      -0.00000000       8.12251500       8.12251500       0.00000000      -0.00000000      -0.00000000      -5.85758378
Si       1.35375250       9.47626750       9.47626750      -0.00000000      -0.00000000      -0.00000000      -5.85758378
Si       2.70750500       5.41501000       8.12251500       0.00000000      -0.00000000      -0.00000000      -5.85758378
Si       4.06125750       6.76876250       9.47626750       0.00000000       0.00000000      -0.00000000      -5.85758378
Si       2.70750500       8.12251500       5.41501000       0.00000000      -0.00000000      -0.00000000      -5.85758378
Si       4.06125750       9.47626750       6.76876250       0.00000000      -0.00000000       0.00000000      -5.85758378
Si       5.41501000      -0.00000000      -0.00000000      -0.00000000       0.00000000       0.00000000      -5.85758378
Si       6.76876250       1.35375250       1.35375250       0.00000000      -0.00000000      -0.00000000      -5.85758378
Si       5.41501000       2.70750500       2.70750500      -0.00000000      -0.00000000      -0.00000000      -5.85758378
Si       6.76876250       4.06125750       4.06125750       0.00000000       0.00000000       0.00000000      -5.85758378
Si       8.12251500      -0.00000000       2.70750500      -0.00000000       0.00000000       0.00000000      -5.85758378
Si       9.47626750       1.35375250       4.06125750       0.00000000       0.00000000       0.00000000      -5.85758378
Si       8.12251500       2.70750500      -0.00000000      -0.00000000      -0.00000000       0.00000000      -5.85758378
Si       9.47626750       4.06125750       1.35375250       0.00000000       0.00000000      -0.00000000      -5.85758378
Si       5.41501000       0.00000000       5.41501000      -0.00000000       0.00000000      -0.00000000      -5.85758378
Si       6.76876250       1.35375250       6.76876250       0.00000000      -0.00000000       0.00000000      -5.85758378
Si       5.41501000       2.70750500       8.12251500      -0.00000000       0.00000000      -0.00000000      -5.85758378
Si       6.76876250       4.06125750       9.47626750       0.00000000       0.00000000      -0.00000000      -5.85758378
Si       8.12251500       0.00000000       8.12251500      -0.00000000       0.00000000      -0.00000000      -5.85758378
Si       9.47626750       1.35375250       9.47626750       0.00000000      -0.00000000      -0.00000000      -5.85758378
Si       8.12251500       2.70750500       5.41501000      -0.00000000       0.00000000      -0.00000000      -5.85758378
Si       9.47626750       4.06125750       6.76876250      -0.00000000       0.00000000       0.00000000      -5.85758378
Si       5.41501000       5.41501000       0.00000000      -0.00000000      -0.00000000       0.00000000      -5.85758378
Si       6.76876250       6.76876250       1.35375250       0.00000000       0.00000000      -0.00000000      -5.85758378
Si       5.41501000       8.12251500       2.70750500      -0.00000000      -0.00000000       0.00000000      -5.85758378
Si       6.76876250       9.47626750       4.06125750       0.00000000      -0.00000000       0.00000000      -5.85758378
Si       8.12251500       5.41501000       2.70750500      -0.00000000      -0.00000000       0.00000000      -5.85758378
Si       9.47626750       6.76876250       4.06125750      -0.00000000       0.00000000       0.00000000      -5.85758378
Si       8.12251500       8.12251500      -0.00000000      -0.00000000      -0.00000000       0.00000000      -5.85758378
Si       9.47626750       9.47626750       1.35375250      -0.00000000      -0.00000000      -0.00000000      -5.85758378
Si       5.41501000       5.41501000       5.41501000      -0.00000000      -0.00000000      -0.00000000      -5.85758378
Si       6.76876250       6.76876250       6.76876250       0.00000000       0.00000000       0.00000000      -5.85758378
Si       5.41501000       8.12251500       8.12251500      -0.00000000      -0.00000000      -0.00000000      -5.85758378
Si       6.76876250       9.47626750       9.47626750       0.00000000       0.00000000       0.00000000      -5.85758378
Si       8.12251500       5.41501000       8.12251500      -0.00000000      -0.00000000      -0.00000000      -5.85758378
Si       9.47626750       6.76876250       9.47626750       0.00000000       0.00000000      -0.00000000      -5.85758378
Si       8.12251500       8.12251500       5.41501000      -0.00000000      -0.00000000      -0.00000000      -5.85758378
Si       9.47626750       9.47626750       6.76876250      -0.00000000      -0.00000000       0.00000000      -5.85758378
