 vasp.6.5.0 16Dec24 (build Jan 20 2025 08:32:48) complex                         
 executed on        HPECrayEX_GCC date 2025.07.20  18:46:54
 running   64 mpi-ranks, with    1 threads/rank, on    1 nodes
 distrk:  each k-point on   64 cores,    1 groups
 distr:  one band on NCORE=  16 cores,    4 groups


--------------------------------------------------------------------------------------------------------


 INCAR:
   SYSTEM = a-Si SPC
   NCORE = 16
   ISTART = 1
   ICHARG = 1
   ISPIN = 1
   ISYM = 1
   EDIFF = 1E-6
   NELM = 150
   EDIFFG = -0.01
   NSW = 0
   ISIF = 2
   IBRION = -1
   PREC = Accurate
   ENCUT = 1200
   KSPACING = 0.23
   KGAMMA = .TRUE.
   METAGGA = SCAN
   LASPH = .TRUE.
   LDIAG = .FALSE.
   LMIXTAU = .TRUE.
   ADDGRID = .TRUE.
   ALGO = Normal
   ISMEAR = 0
   SIGMA = 0.1
   LORBIT = 11
   NEDOS = 2000
   LWAVE = .FALSE.
   LCHARG = .FALSE.

 POTCAR:    PAW_PBE Si 05Jan2001                  
 POTCAR:    PAW_PBE Si 05Jan2001                  
   SHA256 =  79d9987ad8750f624c4d6acb2a16d13abf6a777132adc04dc6c8399be72b42bb Si/POTCAR             
   COPYR  = (c) Copyright 05Jan2001 Georg Kresse                                                    
   COPYR  = This file is part of the software VASP. Any use, copying, and all other rights are regul
   COPYR  = If you do not have a valid VASP license, you may not use, copy or distribute this file. 
   VRHFIN =Si: s2p2                                                                                 
   LEXCH  = PE                                                                                      
   EATOM  =   103.0669 eV,    7.5752 Ry                                                             
                                                                                                    
   TITEL  = PAW_PBE Si 05Jan2001                                                                    
   LULTRA =        F    use ultrasoft PP ?                                                          
   IUNSCR =        1    unscreen: 0-lin 1-nonlin 2-no                                               
   RPACOR =    1.500    partial core radius                                                         
   POMASS =   28.085; ZVAL   =    4.000    mass and valenz                                          
   RCORE  =    1.900    outmost cutoff radius                                                       
   RWIGS  =    2.480; RWIGS  =    1.312    wigner-seitz radius (au A)                               
   ENMAX  =  245.345; ENMIN  =  184.009 eV                                                          
   ICORE  =        2    local potential                                                             
   LCOR   =        T    correct aug charges                                                         
   LPAW   =        T    paw PP                                                                      
   EAUG   =  322.069                                                                                
   DEXC   =    0.000                                                                                
   RMAX   =    1.950    core radius for proj-oper                                                   
   RAUG   =    1.300    factor for augmentation sphere                                              
   RDEP   =    1.993    radius for radial grids                                                     
   RDEPT  =    1.837    core radius for aug-charge                                                  
                                                                                                    
   Atomic configuration                                                                             
    6 entries                                                                                       
     n  l   j            E        occ.                                                              
     1  0  0.50     -1785.8828   2.0000                                                             
     2  0  0.50      -139.4969   2.0000                                                             
     2  1  1.50       -95.5546   6.0000                                                             
     3  0  0.50       -10.8127   2.0000                                                             
     3  1  0.50        -4.0811   2.0000                                                             
     3  2  1.50        -4.0817   0.0000                                                             
   Description                                                                                      
     l       E           TYP  RCUT    TYP  RCUT                                                     
     0    -10.8127223     23  1.900                                                                 
     0     -7.6451159     23  1.900                                                                 
     1     -4.0811372     23  1.900                                                                 
     1      2.4879257     23  1.900                                                                 
     2     -4.0817478      7  1.900                                                                 
  local pseudopotential read in
  partial core-charges read in
  partial kinetic energy density read in
  atomic valenz-charges read in
  non local Contribution for L=           0  read in
    real space projection operators read in
  non local Contribution for L=           0  read in
    real space projection operators read in
  non local Contribution for L=           1  read in
    real space projection operators read in
  non local Contribution for L=           1  read in
    real space projection operators read in
    PAW grid and wavefunctions read in

   number of l-projection  operators is LMAX  =           4
   number of lm-projection operators is LMMAX =           8

 -----------------------------------------------------------------------------
|                                                                             |
|               ----> ADVICE to this user running VASP <----                  |
|                                                                             |
|     You have a (more or less) 'large supercell' and for larger cells it     |
|     might be more efficient to use real-space projection operators.         |
|     Therefore, try LREAL= Auto in the INCAR file.                           |
|     Mind: For very accurate calculation, you might also keep the            |
|     reciprocal projection scheme (i.e. LREAL=.FALSE.).                      |
|                                                                             |
 -----------------------------------------------------------------------------

 -----------------------------------------------------------------------------
|                                                                             |
|               ----> ADVICE to this user running VASP <----                  |
|                                                                             |
|     You enforced a specific xc type in the INCAR file but a different       |
|     type was found in the POTCAR file.                                      |
|     I HOPE YOU KNOW WHAT YOU ARE DOING!                                     |
|                                                                             |
 -----------------------------------------------------------------------------

  PAW_PBE Si 05Jan2001                  :
 energy of atom  1       EATOM= -103.0669
 kinetic energy error for atom=    0.0001 (will be added to EATOM!!)


 POSCAR: Si
  positions in cartesian coordinates
  No initial velocities read in


 exchange-correlation table for SCAN
   RHO(1)=    0.500       N(1)  =     2000
   RHO(2)=  100.500       N(2)  =     4000



--------------------------------------------------------------------------------------------------------


 ion  position               nearest neighbor table
   1  0.000  0.000  0.000-   2 2.35  28 2.35  46 2.35  56 2.35
   2  0.125  0.125  0.125-   1 2.35   3 2.35   5 2.35   7 2.35
   3  0.000  0.250  0.250-   2 2.35   4 2.35  38 2.35  40 2.35
   4  0.125  0.375  0.375-   3 2.35  15 2.35  21 2.35  25 2.35
   5  0.250  0.000  0.250-   2 2.35   6 2.35  20 2.35  24 2.35
   6  0.375  0.125  0.375-   5 2.35  15 2.35  35 2.35  41 2.35
   7  0.250  0.250  0.000-   2 2.35   8 2.35  12 2.35  14 2.35
   8  0.375  0.375  0.125-   7 2.35  21 2.35  35 2.35  49 2.35
   9  0.000  0.000  0.500-  10 2.35  20 2.35  38 2.35  64 2.35
  10  0.125  0.125  0.625-   9 2.35  11 2.35  13 2.35  15 2.35
  11  0.000  0.250  0.750-  10 2.35  12 2.35  46 2.35  48 2.35
  12  0.125  0.375  0.875-   7 2.35  11 2.35  17 2.35  29 2.35
  13  0.250  0.000  0.750-  10 2.35  14 2.35  28 2.35  32 2.35
  14  0.375  0.125  0.875-   7 2.35  13 2.35  33 2.35  43 2.35
  15  0.250  0.250  0.500-   4 2.35   6 2.35  10 2.35  16 2.35
  16  0.375  0.375  0.625-  15 2.35  29 2.35  43 2.35  57 2.35
  17  0.000  0.500  0.000-  12 2.35  18 2.35  40 2.35  62 2.35
  18  0.125  0.625  0.125-  17 2.35  19 2.35  21 2.35  23 2.35
  19  0.000  0.750  0.250-  18 2.35  20 2.35  54 2.35  56 2.35
  20  0.125  0.875  0.375-   5 2.35   9 2.35  19 2.35  31 2.35
  21  0.250  0.500  0.250-   4 2.35   8 2.35  18 2.35  22 2.35
  22  0.375  0.625  0.375-  21 2.35  31 2.35  51 2.35  57 2.35
  23  0.250  0.750  0.000-  18 2.35  24 2.35  28 2.35  30 2.35
  24  0.375  0.875  0.125-   5 2.35  23 2.35  33 2.35  51 2.35
  25  0.000  0.500  0.500-   4 2.35  26 2.35  48 2.35  54 2.35
  26  0.125  0.625  0.625-  25 2.35  27 2.35  29 2.35  31 2.35
  27  0.000  0.750  0.750-  26 2.35  28 2.35  62 2.35  64 2.35
  28  0.125  0.875  0.875-   1 2.35  13 2.35  23 2.35  27 2.35
  29  0.250  0.500  0.750-  12 2.35  16 2.35  26 2.35  30 2.35
  30  0.375  0.625  0.875-  23 2.35  29 2.35  49 2.35  59 2.35
  31  0.250  0.750  0.500-  20 2.35  22 2.35  26 2.35  32 2.35
  32  0.375  0.875  0.625-  13 2.35  31 2.35  41 2.35  59 2.35
  33  0.500  0.000  0.000-  14 2.35  24 2.35  34 2.35  60 2.35
  34  0.625  0.125  0.125-  33 2.35  35 2.35  37 2.35  39 2.35
  35  0.500  0.250  0.250-   6 2.35   8 2.35  34 2.35  36 2.35
  36  0.625  0.375  0.375-  35 2.35  47 2.35  53 2.35  57 2.35
  37  0.750  0.000  0.250-  34 2.35  38 2.35  52 2.35  56 2.35
  38  0.875  0.125  0.375-   3 2.35   9 2.35  37 2.35  47 2.35
  39  0.750  0.250  0.000-  34 2.35  40 2.35  44 2.35  46 2.35
  40  0.875  0.375  0.125-   3 2.35  17 2.35  39 2.35  53 2.35
  41  0.500  0.000  0.500-   6 2.35  32 2.35  42 2.35  52 2.35
  42  0.625  0.125  0.625-  41 2.35  43 2.35  45 2.35  47 2.35
  43  0.500  0.250  0.750-  14 2.35  16 2.35  42 2.35  44 2.35
  44  0.625  0.375  0.875-  39 2.35  43 2.35  49 2.35  61 2.35
  45  0.750  0.000  0.750-  42 2.35  46 2.35  60 2.35  64 2.35
  46  0.875  0.125  0.875-   1 2.35  11 2.35  39 2.35  45 2.35
  47  0.750  0.250  0.500-  36 2.35  38 2.35  42 2.35  48 2.35
  48  0.875  0.375  0.625-  11 2.35  25 2.35  47 2.35  61 2.35
  49  0.500  0.500  0.000-   8 2.35  30 2.35  44 2.35  50 2.35
  50  0.625  0.625  0.125-  49 2.35  51 2.35  53 2.35  55 2.35
  51  0.500  0.750  0.250-  22 2.35  24 2.35  50 2.35  52 2.35
  52  0.625  0.875  0.375-  37 2.35  41 2.35  51 2.35  63 2.35
  53  0.750  0.500  0.250-  36 2.35  40 2.35  50 2.35  54 2.35
  54  0.875  0.625  0.375-  19 2.35  25 2.35  53 2.35  63 2.35
  55  0.750  0.750  0.000-  50 2.35  56 2.35  60 2.35  62 2.35
  56  0.875  0.875  0.125-   1 2.35  19 2.35  37 2.35  55 2.35
  57  0.500  0.500  0.500-  16 2.35  22 2.35  36 2.35  58 2.35
  58  0.625  0.625  0.625-  57 2.35  59 2.35  61 2.35  63 2.35
  59  0.500  0.750  0.750-  30 2.35  32 2.35  58 2.35  60 2.35
  60  0.625  0.875  0.875-  33 2.35  45 2.35  55 2.35  59 2.35
  61  0.750  0.500  0.750-  44 2.35  48 2.35  58 2.35  62 2.35
  62  0.875  0.625  0.875-  17 2.35  27 2.35  55 2.35  61 2.35
  63  0.750  0.750  0.500-  52 2.35  54 2.35  58 2.35  64 2.35
  64  0.875  0.875  0.625-   9 2.35  27 2.35  45 2.35  63 2.35

  LATTYP: Found a simple cubic cell.
 ALAT       =    10.8600000000
  
  Lattice vectors:
  
 A1 = (  10.8600000000,   0.0000000000,   0.0000000000)
 A2 = (   0.0000000000,  10.8600000000,   0.0000000000)
 A3 = (   0.0000000000,   0.0000000000,  10.8600000000)


Analysis of symmetry for initial positions (statically):
=====================================================================
 Subroutine PRICEL returns following result:
 
  LATTYP: Found a face centered cubic cell.
 ALAT       =     5.4300000000
  
  Lattice vectors:
  
 A1 = (   2.7150000000,  -2.7150000000,   0.0000000000)
 A2 = (   2.7150000000,   0.0000000000,   2.7150000000)
 A3 = (   0.0000000000,  -2.7150000000,   2.7150000000)
 
  32 primitive cells build up your supercell.
 

 Routine SETGRP: Setting up the symmetry group for a 
 simple cubic supercell.


 Subroutine GETGRP returns: Found 48 space group operations
 (whereof 24 operations were pure point group operations)
 out of a pool of 48 trial point group operations.


The static configuration has the point symmetry T_d .
 The point group associated with its full space group is O_h .


Analysis of symmetry for dynamics (positions and initial velocities):
=====================================================================
 Subroutine PRICEL returns following result:
 
  LATTYP: Found a face centered cubic cell.
 ALAT       =     5.4300000000
  
  Lattice vectors:
  
 A1 = (   2.7150000000,  -2.7150000000,   0.0000000000)
 A2 = (   2.7150000000,   0.0000000000,   2.7150000000)
 A3 = (   0.0000000000,  -2.7150000000,   2.7150000000)
 
  32 primitive cells build up your supercell.
 

 Routine SETGRP: Setting up the symmetry group for a 
 simple cubic supercell.


 Subroutine GETGRP returns: Found 48 space group operations
 (whereof 24 operations were pure point group operations)
 out of a pool of 48 trial point group operations.


The dynamic configuration has the point symmetry T_d .
 The point group associated with its full space group is O_h .


 Subroutine INISYM returns: Found 48 space group operations
 (whereof 24 operations are pure point group operations),
 and found    32 'primitive' translations


----------------------------------------------------------------------------------------

                                     Primitive cell                                     

  volume of cell :      40.0258

  direct lattice vectors                    reciprocal lattice vectors
     2.715000000 -2.715000000  0.000000000     0.184162063 -0.184162063 -0.184162063
     2.715000000  0.000000000  2.715000000     0.184162063  0.184162063  0.184162063
     0.000000000 -2.715000000  2.715000000    -0.184162063 -0.184162063  0.184162063

  length of vectors
     3.839589822  3.839589822  3.839589822     0.318978049  0.318978049  0.318978049

  position of ions in fractional coordinates (direct lattice)
     0.000000000  0.000000000  0.000000000
     0.750000000  0.750000000  0.750000000

  ion indices of the primitive-cell ions
   primitive index   ion index
                 1           1
                 2           2

----------------------------------------------------------------------------------------


 -----------------------------------------------------------------------------
|                                                                             |
|           W    W    AA    RRRRR   N    N  II  N    N   GGGG   !!!           |
|           W    W   A  A   R    R  NN   N  II  NN   N  G    G  !!!           |
|           W    W  A    A  R    R  N N  N  II  N N  N  G       !!!           |
|           W WW W  AAAAAA  RRRRR   N  N N  II  N  N N  G  GGG   !            |
|           WW  WW  A    A  R   R   N   NN  II  N   NN  G    G                |
|           W    W  A    A  R    R  N    N  II  N    N   GGGG   !!!           |
|                                                                             |
|     The requested file  could not be found or opened for reading            |
|     k-point information. Automatic k-point generation is used as a          |
|     fallback, which may lead to unwanted results.                           |
|                                                                             |
 -----------------------------------------------------------------------------



Automatic generation of k-mesh.
 Grid dimensions derived from KSPACING:
 generate k-points for:    3    3    3

 Generating k-lattice:

  Cartesian coordinates                     Fractional coordinates (reciprocal lattice)
     0.030693677  0.000000000  0.000000000     0.333333333  0.000000000  0.000000000
     0.000000000  0.030693677  0.000000000     0.000000000  0.333333333  0.000000000
     0.000000000  0.000000000  0.030693677     0.000000000  0.000000000  0.333333333

  Length of vectors
     0.030693677  0.030693677  0.030693677

  Shift w.r.t. Gamma in fractional coordinates (k-lattice)
     0.000000000  0.000000000  0.000000000

 
 Subroutine IBZKPT returns following result:
 ===========================================
 
 Found      4 irreducible k-points:
 
 Following reciprocal coordinates:
            Coordinates               Weight
  0.000000  0.000000  0.000000      1.000000
  0.333333  0.000000  0.000000      6.000000
  0.333333  0.333333  0.000000     12.000000
  0.333333  0.333333  0.333333      8.000000
 
 Following cartesian coordinates:
            Coordinates               Weight
  0.000000  0.000000  0.000000      1.000000
  0.030694  0.000000  0.000000      6.000000
  0.030694  0.030694  0.000000     12.000000
  0.030694  0.030694  0.030694      8.000000
 


--------------------------------------------------------------------------------------------------------




 Dimension of arrays:
   k-points           NKPTS =      4   k-points in BZ     NKDIM =      4   number of bands    NBANDS=    164
   number of dos      NEDOS =   2000   number of ions     NIONS =     64
   non local maximal  LDIM  =      4   non local SUM 2l+1 LMDIM =      8
   total plane-waves  NPLWV = ******
   max r-space proj   IRMAX =      1   max aug-charges    IRDMAX= 417897
   dimension x,y,z NGX =   126 NGY =  126 NGZ =  126
   dimension x,y,z NGXF=   252 NGYF=  252 NGZF=  252
   support grid    NGXF=   504 NGYF=  504 NGZF=  504
   ions per type =              64
   NGX,Y,Z   is equivalent  to a cutoff of  19.29, 19.29, 19.29 a.u.
   NGXF,Y,Z  is equivalent  to a cutoff of  38.58, 38.58, 38.58 a.u.

 SYSTEM =  a-Si SPC                                
 POSCAR =  Si                                      

 Startparameter for this run:
   NWRITE =      2    write-flag & timer
   PREC   = accura    normal or accurate (medium, high low for compatibility)
   ISTART =      1    job   : 0-new  1-cont  2-samecut
   ICHARG =      1    charge: 1-file 2-atom 10-const
   ISPIN  =      1    spin polarized calculation?
   LNONCOLLINEAR =      F non collinear calculations
   LSORBIT =      F    spin-orbit coupling
   INIWAV =      1    electr: 0-lowe 1-rand  2-diag
   LASPH  =      T    aspherical Exc in radial PAW
 Electronic Relaxation 1
   ENCUT  = 1200.0 eV  88.20 Ry    9.39 a.u.  30.67 30.67 30.67*2*pi/ulx,y,z
   ENINI  = 1200.0     initial cutoff
   ENAUG  =  322.1 eV  augmentation charge cutoff
   NELM   =    150;   NELMIN=  2; NELMDL=  0     # of ELM steps 
   EDIFF  = 0.1E-05   stopping-criterion for ELM
   LREAL  =      F    real-space projection
   NLSPLINE    = F    spline interpolate recip. space projectors
   LCOMPAT=      F    compatible to vasp.4.4
   GGA_COMPAT  = T    GGA compatible to vasp.4.4-vasp.4.6
   LMAXPAW     = -100 max onsite density
   LMAXMIX     =    2 max onsite mixed and CHGCAR
   VOSKOWN=      0    Vosko Wilk Nusair interpolation
   ROPT   =    0.00000
 Ionic relaxation
   EDIFFG = -.1E-01   stopping-criterion for IOM
   NSW    =      0    number of steps for IOM
   NBLOCK =      1;   KBLOCK =      1    inner block; outer block 
   IBRION =     -1    ionic relax: 0-MD 1-quasi-New 2-CG
   NFREE  =      0    steps in history (QN), initial steepest desc. (CG)
   ISIF   =      2    stress and relaxation
   IWAVPR =     10    prediction:  0-non 1-charg 2-wave 3-comb
   ISYM   =      1    0-nonsym 1-usesym 2-fastsym
   LCORR  =      T    Harris-Foulkes like correction to forces

   POTIM  = 0.5000    time-step for ionic-motion
   TEIN   =    0.0    initial temperature
   TEBEG  =    0.0;   TEEND  =   0.0 temperature during run
   SMASS  =  -3.00    Nose mass-parameter (am)
   estimated Nose-frequenzy (Omega)   =  0.10E-29 period in steps = 0.13E+47 mass=  -0.270E-26a.u.
   SCALEE = 1.0000    scale energy and forces
   NPACO  =    256;   APACO  = 10.0  distance and # of slots for P.C.
   PSTRESS=    0.0 pullay stress

  Mass of Ions in am
   POMASS =  28.09
  Ionic Valenz
   ZVAL   =   4.00
  Atomic Wigner-Seitz radii
   RWIGS  =  -1.00
  virtual crystal weights 
   VCA    =   1.00
   NELECT =     256.0000    total number of electrons
   NUPDOWN=      -1.0000    fix difference up-down

 DOS related values:
   EMIN   =  10.00;   EMAX   =-10.00  energy-range for DOS
   EFERMI =   0.00;   METHOD = LEGACY      
   ISMEAR =     0;   SIGMA  =   0.10  broadening in eV -4-tet -1-fermi 0-gaus
   EFERMI_NEDOS =   21; number of points for ismear=-14 and -15

 Electronic relaxation 2 (details)
   IALGO  =     38    algorithm
   LDIAG  =      F    sub-space diagonalisation (order eigenvalues)
   LSUBROT=      F    optimize rotation matrix (better conditioning)
   TURBO    =      0    0=normal 1=particle mesh
   IRESTART =      0    0=no restart 2=restart with 2 vectors
   NREBOOT  =      0    no. of reboots
   NMIN     =      0    reboot dimension
   EREF     =   0.00    reference energy to select bands
   IMIX   =      4    mixing-type and parameters
     AMIX     =   0.40;   BMIX     =  1.00
     AMIX_MAG =   1.60;   BMIX_MAG =  1.00
     AMIN     =   0.10
     WC   =   100.;   INIMIX=   1;  MIXPRE=   1;  MAXMIX= -45

 Intra band minimization:
   WEIMIN = 0.0000     energy-eigenvalue tresh-hold
   EBREAK =  0.15E-08  absolut break condition
   DEPER  =   0.30     relativ break condition  

   TIME   =   0.40     timestep for ELM

  volume/ion in A,a.u.               =      20.01       135.05
  Fermi-wavevector in a.u.,A,eV,Ry     =   0.957176  1.808800 12.465458  0.916185
  Thomas-Fermi vector in A             =   2.086170

 Write flags
   LWAVE        =      F    write WAVECAR
   LDOWNSAMPLE  =      F    k-point downsampling of WAVECAR
   LCHARG       =      F    write CHGCAR
   LVTOT        =      F    write LOCPOT, total local potential
   LVHAR        =      F    write LOCPOT, Hartree potential only
   WRT_POTENTIAL= false  ! write potential to hdf5 file
   LELF         =      F    write electronic localiz. function (ELF)
   LORBIT       =     11    0 simple, 1 ext, 2 COOP (PROOUT), +10 PAW based schemes


 Python interface
   PLUGINS active      =      F    recompile with -DPLUGINS to activate

 Dipole corrections
   LMONO      =      F    monopole corrections only (constant potential shift)
   LDIPOL     =      F    correct potential (dipole corrections)
   IDIPOL     =      0    1-x, 2-y, 3-z, 4-all directions 
   EPSILON    =  1.0000000 bulk dielectric constant
   LVACPOTAV  =      F  vacuum potentials using an averaging scheme for the charge density
   VACPOTFLAT =  0.1000000 required flatness to determine vacuum potential

Coulomb truncation method
  LTRUNCATE          =      F  Coulomb kernel truncation to be used
  IDIMENSIONALITY    =      3  Dimensionality of cutoff (0 molecules / 2 surfaces)
  ISURFACE           =     -1  Direction of surface normal
  LCOARSEN           =      F  Coarsen the charge grid before padding, preferred


 Exchange correlation treatment:
   METAGGA = SCAN    functional components
   XC_C    = 1    coefficients multiplying the functional components
   LIBXC   =     F    Libxc                    
   VOSKOWN =     0    Vosko Wilk Nusair interpolation
   LHFCALC =     F    Hartree Fock is set to
   LHFONE  =     F    Hartree Fock one center treatment
   AEXX    =    0.0000 exact exchange contribution

 Parameters of functionals:
   SCAN:
     P1 =  0.000000E+00
     P2 =  0.000000E+00
     P3 =  0.000000E+00

 Accuracy and mixing parameters for tau-dependent meta-GGA functionals:
   LMAXTAU = 6
   LMIXTAU = T

 Van der Waals corrections
   IVDW    =     0    specifies the selected vdW correction

 Linear response parameters
   LEPSILON=     F    determine dielectric tensor
   LRPA    =     F    only Hartree local field effects (RPA)
   LNABLA  =     F    use nabla operator in PAW spheres
   LVEL    =     F    velocity operator in full k-point grid
   CSHIFT  =0.1000    complex shift for real part using Kramers Kronig
   OMEGAMAX=  -1.0    maximum frequency
   DEG_THRESHOLD= 0.2000000E-02 threshold for treating states as degnerate
   RTIME   =   -0.100 relaxation time in fs
  (WPLASMAI=    0.000 imaginary part of plasma frequency in eV, 0.658/RTIME)
   DFIELD  = 0.0000000 0.0000000 0.0000000 field for delta impulse in time

  Optional k-point grid parameters
   LKPOINTS_OPT  =     F    use optional k-point grid
   KPOINTS_OPT_MODE=     1    mode for optional k-point grid

 Orbital magnetization related:
   ORBITALMAG=     F  switch on orbital magnetization
   LCHIMAG   =     F  perturbation theory with respect to B field
   DQ        =  0.001000  dq finite difference perturbation B field
   LLRAUG    =     F  two centre corrections for induced B field
   LBONE     =     F  B-component reconstruction in AE one-centre
   LVGVCALC  =     T  calculate vGv susceptibility
   LVGVAPPL  =     F  apply vGv susceptibility instead of pGv for G=0

 Random number generation:
   RANDOM_GENERATOR = DEFAULT
   PCG_SEED         = not used


--------------------------------------------------------------------------------------------------------


 Static calculation
 charge density and potential will be updated during run
 non-spin polarized calculation
 Variant of blocked Davidson
 perform Loewdin sub-space diagonalisation
    ordering is kept fixed
    before iterative eigenvector-optimisation
 modified Broyden-mixing scheme, WC =      100.0
 initial mixing is a Kerker type mixing with AMIX =  0.4000 and BMIX =      1.0000
 Hartree-type preconditioning will be used
 using additional bands           36
 reciprocal scheme for non local part
 use partial core corrections
 calculate Harris-corrections to forces   (improved forces if not selfconsistent)
 use gradient corrections 
 use of overlap-Matrix (Vanderbilt PP)
 Gauss-broadening in eV      SIGMA  =   0.10


--------------------------------------------------------------------------------------------------------


  energy-cutoff  :     1200.00
  volume of cell :     1280.82
      direct lattice vectors                 reciprocal lattice vectors
    10.860000000  0.000000000  0.000000000     0.092081031  0.000000000  0.000000000
     0.000000000 10.860000000  0.000000000     0.000000000  0.092081031  0.000000000
     0.000000000  0.000000000 10.860000000     0.000000000  0.000000000  0.092081031

  length of vectors
    10.860000000 10.860000000 10.860000000     0.092081031  0.092081031  0.092081031



 old parameters found on file WAVECAR:
  energy-cutoff  :     1200.00
  volume of cell :     1280.82
      direct lattice vectors                 reciprocal lattice vectors
    10.860000000  0.000000000  0.000000000     0.092081031  0.000000000  0.000000000
     0.000000000 10.860000000  0.000000000     0.000000000  0.092081031  0.000000000
     0.000000000  0.000000000 10.860000000     0.000000000  0.000000000  0.092081031

  length of vectors


 k-points in units of 2pi/SCALE and weight: read from INCAR                         
   0.00000000  0.00000000  0.00000000       0.037
   0.03069368  0.00000000  0.00000000       0.222
   0.03069368  0.03069368  0.00000000       0.444
   0.03069368  0.03069368  0.03069368       0.296

 k-points in reciprocal lattice and weights: read from INCAR                         
   0.00000000  0.00000000  0.00000000       0.037
   0.33333333  0.00000000  0.00000000       0.222
   0.33333333  0.33333333  0.00000000       0.444
   0.33333333  0.33333333  0.33333333       0.296

 position of ions in fractional coordinates (direct lattice) 
   0.00000000  0.00000000  0.00000000
   0.12500000  0.12500000  0.12500000
   0.00000000  0.25000000  0.25000000
   0.12500000  0.37500000  0.37500000
   0.25000000  0.00000000  0.25000000
   0.37500000  0.12500000  0.37500000
   0.25000000  0.25000000  0.00000000
   0.37500000  0.37500000  0.12500000
   0.00000000  0.00000000  0.50000000
   0.12500000  0.12500000  0.62500000
   0.00000000  0.25000000  0.75000000
   0.12500000  0.37500000  0.87500000
   0.25000000  0.00000000  0.75000000
   0.37500000  0.12500000  0.87500000
   0.25000000  0.25000000  0.50000000
   0.37500000  0.37500000  0.62500000
   0.00000000  0.50000000  0.00000000
   0.12500000  0.62500000  0.12500000
   0.00000000  0.75000000  0.25000000
   0.12500000  0.87500000  0.37500000
   0.25000000  0.50000000  0.25000000
   0.37500000  0.62500000  0.37500000
   0.25000000  0.75000000  0.00000000
   0.37500000  0.87500000  0.12500000
   0.00000000  0.50000000  0.50000000
   0.12500000  0.62500000  0.62500000
   0.00000000  0.75000000  0.75000000
   0.12500000  0.87500000  0.87500000
   0.25000000  0.50000000  0.75000000
   0.37500000  0.62500000  0.87500000
   0.25000000  0.75000000  0.50000000
   0.37500000  0.87500000  0.62500000
   0.50000000  0.00000000  0.00000000
   0.62500000  0.12500000  0.12500000
   0.50000000  0.25000000  0.25000000
   0.62500000  0.37500000  0.37500000
   0.75000000  0.00000000  0.25000000
   0.87500000  0.12500000  0.37500000
   0.75000000  0.25000000  0.00000000
   0.87500000  0.37500000  0.12500000
   0.50000000  0.00000000  0.50000000
   0.62500000  0.12500000  0.62500000
   0.50000000  0.25000000  0.75000000
   0.62500000  0.37500000  0.87500000
   0.75000000  0.00000000  0.75000000
   0.87500000  0.12500000  0.87500000
   0.75000000  0.25000000  0.50000000
   0.87500000  0.37500000  0.62500000
   0.50000000  0.50000000  0.00000000
   0.62500000  0.62500000  0.12500000
   0.50000000  0.75000000  0.25000000
   0.62500000  0.87500000  0.37500000
   0.75000000  0.50000000  0.25000000
   0.87500000  0.62500000  0.37500000
   0.75000000  0.75000000  0.00000000
   0.87500000  0.87500000  0.12500000
   0.50000000  0.50000000  0.50000000
   0.62500000  0.62500000  0.62500000
   0.50000000  0.75000000  0.75000000
   0.62500000  0.87500000  0.87500000
   0.75000000  0.50000000  0.75000000
   0.87500000  0.62500000  0.87500000
   0.75000000  0.75000000  0.50000000
   0.87500000  0.87500000  0.62500000

 position of ions in cartesian coordinates  (Angst):
   0.00000000  0.00000000  0.00000000
   1.35750000  1.35750000  1.35750000
   0.00000000  2.71500000  2.71500000
   1.35750000  4.07250000  4.07250000
   2.71500000  0.00000000  2.71500000
   4.07250000  1.35750000  4.07250000
   2.71500000  2.71500000  0.00000000
   4.07250000  4.07250000  1.35750000
   0.00000000  0.00000000  5.43000000
   1.35750000  1.35750000  6.78750000
   0.00000000  2.71500000  8.14500000
   1.35750000  4.07250000  9.50250000
   2.71500000  0.00000000  8.14500000
   4.07250000  1.35750000  9.50250000
   2.71500000  2.71500000  5.43000000
   4.07250000  4.07250000  6.78750000
   0.00000000  5.43000000  0.00000000
   1.35750000  6.78750000  1.35750000
   0.00000000  8.14500000  2.71500000
   1.35750000  9.50250000  4.07250000
   2.71500000  5.43000000  2.71500000
   4.07250000  6.78750000  4.07250000
   2.71500000  8.14500000  0.00000000
   4.07250000  9.50250000  1.35750000
   0.00000000  5.43000000  5.43000000
   1.35750000  6.78750000  6.78750000
   0.00000000  8.14500000  8.14500000
   1.35750000  9.50250000  9.50250000
   2.71500000  5.43000000  8.14500000
   4.07250000  6.78750000  9.50250000
   2.71500000  8.14500000  5.43000000
   4.07250000  9.50250000  6.78750000
   5.43000000  0.00000000  0.00000000
   6.78750000  1.35750000  1.35750000
   5.43000000  2.71500000  2.71500000
   6.78750000  4.07250000  4.07250000
   8.14500000  0.00000000  2.71500000
   9.50250000  1.35750000  4.07250000
   8.14500000  2.71500000  0.00000000
   9.50250000  4.07250000  1.35750000
   5.43000000  0.00000000  5.43000000
   6.78750000  1.35750000  6.78750000
   5.43000000  2.71500000  8.14500000
   6.78750000  4.07250000  9.50250000
   8.14500000  0.00000000  8.14500000
   9.50250000  1.35750000  9.50250000
   8.14500000  2.71500000  5.43000000
   9.50250000  4.07250000  6.78750000
   5.43000000  5.43000000  0.00000000
   6.78750000  6.78750000  1.35750000
   5.43000000  8.14500000  2.71500000
   6.78750000  9.50250000  4.07250000
   8.14500000  5.43000000  2.71500000
   9.50250000  6.78750000  4.07250000
   8.14500000  8.14500000  0.00000000
   9.50250000  9.50250000  1.35750000
   5.43000000  5.43000000  5.43000000
   6.78750000  6.78750000  6.78750000
   5.43000000  8.14500000  8.14500000
   6.78750000  9.50250000  9.50250000
   8.14500000  5.43000000  8.14500000
   9.50250000  6.78750000  9.50250000
   8.14500000  8.14500000  5.43000000
   9.50250000  9.50250000  6.78750000



--------------------------------------------------------------------------------------------------------


 k-point     1 :   0.0000 0.0000 0.0000  plane waves:  120713
 k-point     2 :   0.3333 0.0000 0.0000  plane waves:  120938
 k-point     3 :   0.3333 0.3333 0.0000  plane waves:  120876
 k-point     4 :   0.3333 0.3333 0.3333  plane waves:  120885

 maximum and minimum number of plane-waves per node :      7592     7522

 maximum number of plane-waves:    120938
 maximum index in each direction: 
   IXMAX=   30   IYMAX=   30   IZMAX=   30
   IXMIN=  -31   IYMIN=  -31   IZMIN=  -31


 parallel 3D FFT for wavefunctions:
    minimum data exchange during FFTs selected (reduces bandwidth)
 parallel 3D FFT for charge:
    minimum data exchange during FFTs selected (reduces bandwidth)


 total amount of memory used by VASP MPI-rank0   123829. kBytes
=======================================================================

   base                                    :      30000. kBytes
   nonl-proj                               :       9687. kBytes
   fftplans                                :      40723. kBytes
   grid                                    :      23465. kBytes
   one-center                              :         12. kBytes
   wavefun                                 :      19942. kBytes

     INWAV:  cpu time      1.1606: real time      1.1609
 Broyden mixing: mesh for mixing (old mesh)
   NGX = 61   NGY = 61   NGZ = 61
  (NGX  =252   NGY  =252   NGZ  =252)
  gives a total of 226981 points

 initial charge density was supplied:
 number of electron     255.9999999 magnetization 
 keeping initial charge density in first step


--------------------------------------------------------------------------------------------------------


 Maximum index for augmentation-charges         6613 (set IRDMAX)


--------------------------------------------------------------------------------------------------------


 First call to EWALD:  gamma=   0.163
 Maximum number of real-space cells   3x   3x   3
 Maximum number of reciprocal cells   3x   3x   3

    FEWALD:  cpu time      0.0071: real time      0.0072


--------------------------------------- Ionic step        1  -------------------------------------------




--------------------------------------- Iteration      1(   1)  ---------------------------------------


    POTLOK:  cpu time      0.6950: real time      0.6956
    SETDIJ:  cpu time      1.0474: real time      1.0482
    EDDIAG:  cpu time      6.8903: real time      6.8945
     EDDAV:  cpu time     31.9783: real time     31.9983
       DOS:  cpu time      0.0033: real time      0.0033
    CHARGE:  cpu time     43.4867: real time     43.5039
    MIXING:  cpu time      0.0183: real time      0.0184
    --------------------------------------------
      LOOP:  cpu time     84.1194: real time     84.1625

 eigenvalue-minimisations  :  1324
 total energy-change (2. order) :-0.6831297E+03  (-0.6982468E+00)
 number of electron     255.9999999 magnetization 
 augmentation part      -14.1451511 magnetization 

 Broyden mixing:
  rms(total) = 0.11148E+01    rms(broyden)= 0.59480E+02
  rms(prec ) = 0.12668E+01
  weight for this iteration     100.00
  WARNING: grid for Broyden might be to small

 Free energy of the ion-electron system (eV)
  ---------------------------------------------------
  alpha Z        PSCENC =       107.65271242
  Ewald energy   TEWEN  =     -7314.03401078
  -Hartree energ DENC   =      -477.37297641
  -exchange      EXHF   =         0.00000000
  -V(xc)+E(xc)   XCENC  =      -303.21084599
  PAW double counting   =     27293.31608786   -26656.34059192
  entropy T*S    EENTRO =        -0.00001410
  eigenvalues    EBANDS =        70.58242087
  atomic energy  EATOM  =      6596.27748968
  Solvation  Ediel_sol  =         0.00000000
  ---------------------------------------------------
  free energy    TOTEN  =      -683.12972837 eV

  energy without entropy =     -683.12971427  energy(sigma->0) =     -683.12972132


--------------------------------------------------------------------------------------------------------




--------------------------------------- Iteration      1(   2)  ---------------------------------------


    POTLOK:  cpu time      0.6943: real time      0.6995
    SETDIJ:  cpu time      1.0411: real time      1.0419
    EDDIAG:  cpu time      6.9314: real time      6.9356
     EDDAV:  cpu time     32.0414: real time     32.0627
       DOS:  cpu time      0.0024: real time      0.0024
    CHARGE:  cpu time     43.6094: real time     43.6285
    MIXING:  cpu time      0.0169: real time      0.0171
    --------------------------------------------
      LOOP:  cpu time     84.3369: real time     84.3877

 eigenvalue-minimisations  :  1324
 total energy-change (2. order) : 0.4563155E+02  (-0.6257982E+00)
 number of electron     255.9999999 magnetization 
 augmentation part      -14.0799213 magnetization 

 Broyden mixing:
  rms(total) = 0.72104E+00    rms(broyden)= 0.34365E+02
  rms(prec ) = 0.80155E+00
  weight for this iteration     100.00
  WARNING: grid for Broyden might be to small

 eigenvalues of (default mixing * dielectric matrix)
  average eigenvalue GAMMA=   0.6338
  0.6338

 Free energy of the ion-electron system (eV)
  ---------------------------------------------------
  alpha Z        PSCENC =       107.65271242
  Ewald energy   TEWEN  =     -7314.03401078
  -Hartree energ DENC   =      -473.67597590
  -exchange      EXHF   =         0.00000000
  -V(xc)+E(xc)   XCENC  =      -296.45541605
  PAW double counting   =     32867.82303105   -32230.65240539
  entropy T*S    EENTRO =        -0.00000000
  eigenvalues    EBANDS =       105.56639818
  atomic energy  EATOM  =      6596.27748968
  Solvation  Ediel_sol  =         0.00000000
  ---------------------------------------------------
  free energy    TOTEN  =      -637.49817681 eV

  energy without entropy =     -637.49817680  energy(sigma->0) =     -637.49817680


--------------------------------------------------------------------------------------------------------




--------------------------------------- Iteration      1(   3)  ---------------------------------------


    POTLOK:  cpu time      0.6999: real time      0.7007
    SETDIJ:  cpu time      1.0425: real time      1.0430
    EDDIAG:  cpu time      6.9380: real time      6.9424
     EDDAV:  cpu time     31.8923: real time     31.9154
       DOS:  cpu time      0.0024: real time      0.0024
    CHARGE:  cpu time     43.5350: real time     43.5548
    MIXING:  cpu time      0.0167: real time      0.0167
    --------------------------------------------
      LOOP:  cpu time     84.1268: real time     84.1755

 eigenvalue-minimisations  :  1320
 total energy-change (2. order) :-0.2842809E+01  (-0.5293908E+00)
 number of electron     255.9999999 magnetization 
 augmentation part      -14.0498542 magnetization 

 Broyden mixing:
  rms(total) = 0.45727E+00    rms(broyden)= 0.17677E+02
  rms(prec ) = 0.49481E+00
  weight for this iteration     100.00
  WARNING: grid for Broyden might be to small

 eigenvalues of (default mixing * dielectric matrix)
  average eigenvalue GAMMA=   0.7346
  0.8439  0.6254

 Free energy of the ion-electron system (eV)
  ---------------------------------------------------
  alpha Z        PSCENC =       107.65271242
  Ewald energy   TEWEN  =     -7314.03401078
  -Hartree energ DENC   =      -475.89837458
  -exchange      EXHF   =         0.00000000
  -V(xc)+E(xc)   XCENC  =      -301.23843357
  PAW double counting   =     36687.17493793   -36050.03174320
  entropy T*S    EENTRO =        -0.00000000
  eigenvalues    EBANDS =       109.75643657
  atomic energy  EATOM  =      6596.27748968
  Solvation  Ediel_sol  =         0.00000000
  ---------------------------------------------------
  free energy    TOTEN  =      -640.34098553 eV

  energy without entropy =     -640.34098553  energy(sigma->0) =     -640.34098553


--------------------------------------------------------------------------------------------------------




--------------------------------------- Iteration      1(   4)  ---------------------------------------


    POTLOK:  cpu time      0.6959: real time      0.6968
    SETDIJ:  cpu time      1.0432: real time      1.0438
    EDDIAG:  cpu time      6.9345: real time      6.9393
     EDDAV:  cpu time     32.0722: real time     32.0960
       DOS:  cpu time      0.0023: real time      0.0023
    CHARGE:  cpu time     43.5233: real time     43.5425
    MIXING:  cpu time      0.0184: real time      0.0184
    --------------------------------------------
      LOOP:  cpu time     84.2898: real time     84.3391

 eigenvalue-minimisations  :  1332
 total energy-change (2. order) :-0.2359297E+00  (-0.6230746E-01)
 number of electron     255.9999999 magnetization 
 augmentation part      -14.0407388 magnetization 

 Broyden mixing:
  rms(total) = 0.20786E-01    rms(broyden)= 0.19095E+01
  rms(prec ) = 0.31097E-01
  weight for this iteration     100.00
  WARNING: grid for Broyden might be to small

 eigenvalues of (default mixing * dielectric matrix)
  average eigenvalue GAMMA=   0.9101
  1.3970  0.7106  0.6228

 Free energy of the ion-electron system (eV)
  ---------------------------------------------------
  alpha Z        PSCENC =       107.65271242
  Ewald energy   TEWEN  =     -7314.03401078
  -Hartree energ DENC   =      -481.24555853
  -exchange      EXHF   =         0.00000000
  -V(xc)+E(xc)   XCENC  =      -300.96910176
  PAW double counting   =     43563.63384138   -42926.50803128
  entropy T*S    EENTRO =        -0.00000000
  eigenvalues    EBANDS =       114.61574364
  atomic energy  EATOM  =      6596.27748968
  Solvation  Ediel_sol  =         0.00000000
  ---------------------------------------------------
  free energy    TOTEN  =      -640.57691524 eV

  energy without entropy =     -640.57691524  energy(sigma->0) =     -640.57691524


--------------------------------------------------------------------------------------------------------




--------------------------------------- Iteration      1(   5)  ---------------------------------------


    POTLOK:  cpu time      0.7018: real time      0.7024
    SETDIJ:  cpu time      1.0452: real time      1.0458
    EDDIAG:  cpu time      6.9547: real time      6.9593
     EDDAV:  cpu time     33.7331: real time     33.7565
       DOS:  cpu time      0.0024: real time      0.0024
    CHARGE:  cpu time     43.5620: real time     43.5815
    MIXING:  cpu time      0.0173: real time      0.0173
    --------------------------------------------
      LOOP:  cpu time     86.0166: real time     86.0652

 eigenvalue-minimisations  :  1452
 total energy-change (2. order) :-0.2543532E-01  (-0.3703246E-02)
 number of electron     255.9999999 magnetization 
 augmentation part      -14.0423045 magnetization 

 Broyden mixing:
  rms(total) = 0.15742E-01    rms(broyden)= 0.73767E+00
  rms(prec ) = 0.20067E-01
  weight for this iteration     100.00
  WARNING: grid for Broyden might be to small

 eigenvalues of (default mixing * dielectric matrix)
  average eigenvalue GAMMA=   1.1112
  2.2296  0.9445  0.6322  0.6386

 Free energy of the ion-electron system (eV)
  ---------------------------------------------------
  alpha Z        PSCENC =       107.65271242
  Ewald energy   TEWEN  =     -7314.03401078
  -Hartree energ DENC   =      -481.75783552
  -exchange      EXHF   =         0.00000000
  -V(xc)+E(xc)   XCENC  =      -301.76503004
  PAW double counting   =     43563.79627319   -42926.65195654
  entropy T*S    EENTRO =        -0.00000000
  eigenvalues    EBANDS =       115.88000704
  atomic energy  EATOM  =      6596.27748968
  Solvation  Ediel_sol  =         0.00000000
  ---------------------------------------------------
  free energy    TOTEN  =      -640.60235055 eV

  energy without entropy =     -640.60235055  energy(sigma->0) =     -640.60235055


--------------------------------------------------------------------------------------------------------




--------------------------------------- Iteration      1(   6)  ---------------------------------------


    POTLOK:  cpu time      0.6968: real time      0.6972
    SETDIJ:  cpu time      1.0452: real time      1.0459
    EDDIAG:  cpu time      6.9540: real time      6.9587
     EDDAV:  cpu time     32.7663: real time     32.7891
       DOS:  cpu time      0.0023: real time      0.0023
    CHARGE:  cpu time     43.4892: real time     43.5068
    MIXING:  cpu time      0.0175: real time      0.0175
    --------------------------------------------
      LOOP:  cpu time     84.9712: real time     85.0175

 eigenvalue-minimisations  :  1380
 total energy-change (2. order) :-0.3992336E-02  (-0.4479010E-03)
 number of electron     255.9999999 magnetization 
 augmentation part      -14.0426337 magnetization 

 Broyden mixing:
  rms(total) = 0.10904E-01    rms(broyden)= 0.21413E+00
  rms(prec ) = 0.13054E-01
  weight for this iteration     100.00
  WARNING: grid for Broyden might be to small

 eigenvalues of (default mixing * dielectric matrix)
  average eigenvalue GAMMA=   1.1538
  2.4352  1.2279  0.8286  0.6462  0.6310

 Free energy of the ion-electron system (eV)
  ---------------------------------------------------
  alpha Z        PSCENC =       107.65271242
  Ewald energy   TEWEN  =     -7314.03401078
  -Hartree energ DENC   =      -482.11276775
  -exchange      EXHF   =         0.00000000
  -V(xc)+E(xc)   XCENC  =      -301.97529283
  PAW double counting   =     43529.16950106   -42892.01467264
  entropy T*S    EENTRO =        -0.00000000
  eigenvalues    EBANDS =       116.43069795
  atomic energy  EATOM  =      6596.27748968
  Solvation  Ediel_sol  =         0.00000000
  ---------------------------------------------------
  free energy    TOTEN  =      -640.60634289 eV

  energy without entropy =     -640.60634289  energy(sigma->0) =     -640.60634289


--------------------------------------------------------------------------------------------------------




--------------------------------------- Iteration      1(   7)  ---------------------------------------


    POTLOK:  cpu time      0.6993: real time      0.6996
    SETDIJ:  cpu time      1.0459: real time      1.0469
    EDDIAG:  cpu time      6.9534: real time      6.9586
     EDDAV:  cpu time     32.5069: real time     32.5312
       DOS:  cpu time      0.0023: real time      0.0023
    CHARGE:  cpu time     43.4788: real time     43.4980
    MIXING:  cpu time      0.0178: real time      0.0178
    --------------------------------------------
      LOOP:  cpu time     84.7044: real time     84.7544

 eigenvalue-minimisations  :  1360
 total energy-change (2. order) :-0.1133222E-02  (-0.2673908E-03)
 number of electron     255.9999999 magnetization 
 augmentation part      -14.0406960 magnetization 

 Broyden mixing:
  rms(total) = 0.26991E-02    rms(broyden)= 0.80949E-01
  rms(prec ) = 0.30079E-02
  weight for this iteration     100.00
  WARNING: grid for Broyden might be to small

 eigenvalues of (default mixing * dielectric matrix)
  average eigenvalue GAMMA=   1.1435
  2.4926  1.4042  0.9676  0.7371  0.6298  0.6298

 Free energy of the ion-electron system (eV)
  ---------------------------------------------------
  alpha Z        PSCENC =       107.65271242
  Ewald energy   TEWEN  =     -7314.03401078
  -Hartree energ DENC   =      -482.83067977
  -exchange      EXHF   =         0.00000000
  -V(xc)+E(xc)   XCENC  =      -301.84440219
  PAW double counting   =     43484.96427645   -42847.78881408
  entropy T*S    EENTRO =        -0.00000000
  eigenvalues    EBANDS =       116.99595217
  atomic energy  EATOM  =      6596.27748968
  Solvation  Ediel_sol  =         0.00000000
  ---------------------------------------------------
  free energy    TOTEN  =      -640.60747611 eV

  energy without entropy =     -640.60747611  energy(sigma->0) =     -640.60747611


--------------------------------------------------------------------------------------------------------




--------------------------------------- Iteration      1(   8)  ---------------------------------------


    POTLOK:  cpu time      0.6870: real time      0.6968
    SETDIJ:  cpu time      1.0458: real time      1.0464
    EDDIAG:  cpu time      6.9560: real time      6.9608
     EDDAV:  cpu time     34.2778: real time     34.3030
       DOS:  cpu time      0.0024: real time      0.0024
    CHARGE:  cpu time     43.5049: real time     43.5250
    MIXING:  cpu time      0.0181: real time      0.0181
    --------------------------------------------
      LOOP:  cpu time     86.4921: real time     86.5524

 eigenvalue-minimisations  :  1488
 total energy-change (2. order) : 0.1625637E-04  (-0.1099672E-04)
 number of electron     255.9999999 magnetization 
 augmentation part      -14.0411962 magnetization 

 Broyden mixing:
  rms(total) = 0.68896E-03    rms(broyden)= 0.24201E-01
  rms(prec ) = 0.86089E-03
  weight for this iteration     100.00
  WARNING: grid for Broyden might be to small

 eigenvalues of (default mixing * dielectric matrix)
  average eigenvalue GAMMA=   1.1235
  2.5311  1.5997  1.0320  0.7981  0.6159  0.6438  0.6438

 Free energy of the ion-electron system (eV)
  ---------------------------------------------------
  alpha Z        PSCENC =       107.65271242
  Ewald energy   TEWEN  =     -7314.03401078
  -Hartree energ DENC   =      -482.77798287
  -exchange      EXHF   =         0.00000000
  -V(xc)+E(xc)   XCENC  =      -301.91548359
  PAW double counting   =     43523.27826797   -42886.10272787
  entropy T*S    EENTRO =        -0.00000000
  eigenvalues    EBANDS =       117.01427518
  atomic energy  EATOM  =      6596.27748968
  Solvation  Ediel_sol  =         0.00000000
  ---------------------------------------------------
  free energy    TOTEN  =      -640.60745986 eV

  energy without entropy =     -640.60745985  energy(sigma->0) =     -640.60745986


--------------------------------------------------------------------------------------------------------




--------------------------------------- Iteration      1(   9)  ---------------------------------------


    POTLOK:  cpu time      0.6879: real time      0.6973
    SETDIJ:  cpu time      1.0449: real time      1.0454
    EDDIAG:  cpu time      6.9402: real time      6.9457
     EDDAV:  cpu time     33.9007: real time     33.9258
       DOS:  cpu time      0.0024: real time      0.0024
    CHARGE:  cpu time     43.5521: real time     43.5708
    MIXING:  cpu time      0.0180: real time      0.0180
    --------------------------------------------
      LOOP:  cpu time     86.1464: real time     86.2057

 eigenvalue-minimisations  :  1464
 total energy-change (2. order) :-0.7903363E-05  (-0.1151210E-05)
 number of electron     255.9999999 magnetization 
 augmentation part      -14.0414020 magnetization 

 Broyden mixing:
  rms(total) = 0.56220E-03    rms(broyden)= 0.78241E-02
  rms(prec ) = 0.59443E-03
  weight for this iteration     100.00
  WARNING: grid for Broyden might be to small

 eigenvalues of (default mixing * dielectric matrix)
  average eigenvalue GAMMA=   1.2246
  2.5318  2.1003  1.3613  1.0113  0.8333  0.7013  0.6269  0.6307

 Free energy of the ion-electron system (eV)
  ---------------------------------------------------
  alpha Z        PSCENC =       107.65271242
  Ewald energy   TEWEN  =     -7314.03401078
  -Hartree energ DENC   =      -482.73212726
  -exchange      EXHF   =         0.00000000
  -V(xc)+E(xc)   XCENC  =      -301.94106047
  PAW double counting   =     43522.94091963   -42885.76505811
  entropy T*S    EENTRO =        -0.00000000
  eigenvalues    EBANDS =       116.99366713
  atomic energy  EATOM  =      6596.27748968
  Solvation  Ediel_sol  =         0.00000000
  ---------------------------------------------------
  free energy    TOTEN  =      -640.60746776 eV

  energy without entropy =     -640.60746776  energy(sigma->0) =     -640.60746776


--------------------------------------------------------------------------------------------------------




--------------------------------------- Iteration      1(  10)  ---------------------------------------


    POTLOK:  cpu time      0.6987: real time      0.6996
    SETDIJ:  cpu time      1.0457: real time      1.0463
    EDDIAG:  cpu time      6.9522: real time      6.9569
     EDDAV:  cpu time     32.0130: real time     32.0347
       DOS:  cpu time      0.0027: real time      0.0027
    CHARGE:  cpu time     43.5564: real time     43.5768
    MIXING:  cpu time      0.0177: real time      0.0185
    --------------------------------------------
      LOOP:  cpu time     84.2863: real time     84.3353

 eigenvalue-minimisations  :  1328
 total energy-change (2. order) :-0.9247051E-05  (-0.5813739E-06)
 number of electron     255.9999999 magnetization 
 augmentation part      -14.0414775 magnetization 

 Broyden mixing:
  rms(total) = 0.17429E-03    rms(broyden)= 0.61312E-02
  rms(prec ) = 0.21498E-03
  weight for this iteration     100.00
  WARNING: grid for Broyden might be to small

 eigenvalues of (default mixing * dielectric matrix)
  average eigenvalue GAMMA=   1.2854
  2.6729  2.6729  1.5134  1.1076  0.9248  0.7538  0.6291  0.6291  0.6653

 Free energy of the ion-electron system (eV)
  ---------------------------------------------------
  alpha Z        PSCENC =       107.65271242
  Ewald energy   TEWEN  =     -7314.03401078
  -Hartree energ DENC   =      -482.71599837
  -exchange      EXHF   =         0.00000000
  -V(xc)+E(xc)   XCENC  =      -301.94986717
  PAW double counting   =     43515.77913570   -42878.60223593
  entropy T*S    EENTRO =        -0.00000000
  eigenvalues    EBANDS =       116.98529744
  atomic energy  EATOM  =      6596.27748968
  Solvation  Ediel_sol  =         0.00000000
  ---------------------------------------------------
  free energy    TOTEN  =      -640.60747701 eV

  energy without entropy =     -640.60747701  energy(sigma->0) =     -640.60747701


--------------------------------------------------------------------------------------------------------




--------------------------------------- Iteration      1(  11)  ---------------------------------------


    POTLOK:  cpu time      0.6984: real time      0.6990
    SETDIJ:  cpu time      1.0462: real time      1.0469
    EDDIAG:  cpu time      6.9474: real time      6.9524
     EDDAV:  cpu time     24.5517: real time     24.5693
       DOS:  cpu time      0.0023: real time      0.0023
    --------------------------------------------
      LOOP:  cpu time     33.2464: real time     33.2703

 eigenvalue-minimisations  :   776
 total energy-change (2. order) : 0.4563408E-06  (-0.4944955E-07)
 number of electron     255.9999999 magnetization 
 augmentation part      -14.0414775 magnetization 

 Free energy of the ion-electron system (eV)
  ---------------------------------------------------
  alpha Z        PSCENC =       107.65271242
  Ewald energy   TEWEN  =     -7314.03401078
  -Hartree energ DENC   =      -482.72638993
  -exchange      EXHF   =         0.00000000
  -V(xc)+E(xc)   XCENC  =      -301.94837960
  PAW double counting   =     43517.18087426   -42880.00404865
  entropy T*S    EENTRO =        -0.00000000
  eigenvalues    EBANDS =       116.99427605
  atomic energy  EATOM  =      6596.27748968
  Solvation  Ediel_sol  =         0.00000000
  ---------------------------------------------------
  free energy    TOTEN  =      -640.60747655 eV

  energy without entropy =     -640.60747655  energy(sigma->0) =     -640.60747655


--------------------------------------------------------------------------------------------------------




 average (electrostatic) potential at core
  the test charge radii are     0.9892
  (the norm of the test charge is              1.0000)
       1 -86.2135       2 -86.2136       3 -86.2135       4 -86.2136       5 -86.2135
       6 -86.2136       7 -86.2135       8 -86.2136       9 -86.2135      10 -86.2136
      11 -86.2135      12 -86.2136      13 -86.2135      14 -86.2136      15 -86.2135
      16 -86.2136      17 -86.2135      18 -86.2136      19 -86.2135      20 -86.2136
      21 -86.2135      22 -86.2136      23 -86.2135      24 -86.2136      25 -86.2135
      26 -86.2136      27 -86.2135      28 -86.2136      29 -86.2135      30 -86.2136
      31 -86.2135      32 -86.2136      33 -86.2135      34 -86.2136      35 -86.2135
      36 -86.2136      37 -86.2135      38 -86.2136      39 -86.2135      40 -86.2136
      41 -86.2135      42 -86.2136      43 -86.2135      44 -86.2136      45 -86.2135
      46 -86.2136      47 -86.2135      48 -86.2136      49 -86.2135      50 -86.2136
      51 -86.2135      52 -86.2136      53 -86.2135      54 -86.2136      55 -86.2135
      56 -86.2136      57 -86.2135      58 -86.2136      59 -86.2135      60 -86.2136
      61 -86.2135      62 -86.2136      63 -86.2135      64 -86.2136



 E-fermi :   6.0804     XC(G=0):  -9.8089     alpha+bet :-11.9845

 WARNING: Could not determine fundamental gap because eigenvalues are not
     sorted.

 Fermi energy:         6.0803983317

 k-point     1 :       0.0000    0.0000    0.0000
  band No.  band energies     occupation 
      1      -6.7307      2.00000
      2      -5.5989      2.00000
      3      -5.5989      2.00000
      4      -5.5989      2.00000
      5      -5.5989      2.00000
      6      -5.5989      2.00000
      7      -5.5989      2.00000
      8      -4.5935      2.00000
      9      -4.5935      2.00000
     10      -4.5935      2.00000
     11      -4.5935      2.00000
     12      -4.5935      2.00000
     13      -4.5935      2.00000
     14      -4.5935      2.00000
     15      -4.5934      2.00000
     16      -4.5934      2.00000
     17      -4.5935      2.00000
     18      -4.5935      2.00000
     19      -4.5935      2.00000
     20      -4.2946      2.00000
     21      -4.2946      2.00000
     22      -4.2946      2.00000
     23      -4.2946      2.00000
     24      -2.3929      2.00000
     25      -2.3931      2.00000
     26      -2.3931      2.00000
     27      -2.3930      2.00000
     28      -2.3929      2.00000
     29      -2.3929      2.00000
     30      -2.2227      2.00000
     31      -2.2227      2.00000
     32      -2.2227      2.00000
     33      -2.2228      2.00000
     34      -2.2228      2.00000
     35      -2.2228      2.00000
     36      -2.2228      2.00000
     37      -2.2228      2.00000
     38      -2.2227      2.00000
     39      -2.2227      2.00000
     40      -2.2227      2.00000
     41      -2.2228      2.00000
     42      -1.5050      2.00000
     43      -1.5050      2.00000
     44      -1.5050      2.00000
     45      -1.5050      2.00000
     46       0.0506      2.00000
     47       0.0506      2.00000
     48       0.0506      2.00000
     49       0.0506      2.00000
     50       0.0506      2.00000
     51       0.0506      2.00000
     52       0.0506      2.00000
     53       0.0506      2.00000
     54       0.0506      2.00000
     55       0.0506      2.00000
     56       0.0506      2.00000
     57       0.0506      2.00000
     58       1.7238      2.00000
     59       1.7238      2.00000
     60       1.7238      2.00000
     61       1.7238      2.00000
     62       1.7238      2.00000
     63       1.7238      2.00000
     64       1.7239      2.00000
     65       1.7239      2.00000
     66       1.7239      2.00000
     67       1.7239      2.00000
     68       1.7239      2.00000
     69       1.7239      2.00000
     70       1.8348      2.00000
     71       1.8348      2.00000
     72       1.8348      2.00000
     73       1.8348      2.00000
     74       1.8348      2.00000
     75       1.8348      2.00000
     76       1.8348      2.00000
     77       1.8348      2.00000
     78       1.8348      2.00000
     79       1.8348      2.00000
     80       1.8348      2.00000
     81       1.8348      2.00000
     82       2.1083      2.00000
     83       2.1083      2.00000
     84       2.1083      2.00000
     85       2.1083      2.00000
     86       2.1083      2.00000
     87       2.1083      2.00000
     88       2.7295      2.00000
     89       2.7295      2.00000
     90       2.7295      2.00000
     91       2.7295      2.00000
     92       2.7295      2.00000
     93       2.7295      2.00000
     94       3.7333      2.00000
     95       3.7333      2.00000
     96       3.7333      2.00000
     97       3.7333      2.00000
     98       3.7333      2.00000
     99       3.7333      2.00000
    100       3.7333      2.00000
    101       3.7333      2.00000
    102       3.7333      2.00000
    103       3.7333      2.00000
    104       3.7333      2.00000
    105       3.7333      2.00000
    106       4.3077      2.00000
    107       4.3077      2.00000
    108       4.3077      2.00000
    109       4.3077      2.00000
    110       4.3077      2.00000
    111       4.3077      2.00000
    112       4.3077      2.00000
    113       4.3077      2.00000
    114       4.3077      2.00000
    115       4.3077      2.00000
    116       4.3077      2.00000
    117       4.3077      2.00000
    118       4.4363      2.00000
    119       4.4363      2.00000
    120       4.4363      2.00000
    121       4.4363      2.00000
    122       4.4363      2.00000
    123       4.4363      2.00000
    124       4.4363      2.00000
    125       4.4363      2.00000
    126       5.6694      2.00000
    127       5.6694      2.00000
    128       5.6694      2.00000
    129       6.6443      0.00000
    130       6.6443      0.00000
    131       6.6443      0.00000
    132       6.6444      0.00000
    133       6.6444      0.00000
    134       6.6444      0.00000
    135       7.0709      0.00000
    136       7.0709      0.00000
    137       7.0709      0.00000
    138       7.0709      0.00000
    139       7.0709      0.00000
    140       7.0709      0.00000
    141       7.6022      0.00000
    142       7.6022      0.00000
    143       7.6022      0.00000
    144       7.6022      0.00000
    145       8.4724      0.00000
    146       8.4724      0.00000
    147       8.4724      0.00000
    148       8.4724      0.00000
    149       8.4724      0.00000
    150       8.4724      0.00000
    151       8.4724      0.00000
    152       8.4724      0.00000
    153       8.4724      0.00000
    154       8.4724      0.00000
    155       8.4724      0.00000
    156       8.4724      0.00000
    157       8.5381      0.00000
    158       8.5381      0.00000
    159       8.5381      0.00000
    160       9.1806      0.00000
    161       9.1806      0.00000
    162       9.1806      0.00000
    163       9.1807      0.00000
    164       9.1807      0.00000

 k-point     2 :       0.3333    0.0000    0.0000
  band No.  band energies     occupation 
      1      -6.6036      2.00000
      2      -6.2243      2.00000
      3      -5.4834      2.00000
      4      -5.4834      2.00000
      5      -5.4834      2.00000
      6      -5.4834      2.00000
      7      -5.1423      2.00000
      8      -5.1423      2.00000
      9      -5.1423      2.00000
     10      -5.1423      2.00000
     11      -4.7385      2.00000
     12      -4.5289      2.00000
     13      -4.5289      2.00000
     14      -4.5289      2.00000
     15      -4.5289      2.00000
     16      -4.3812      2.00000
     17      -4.3812      2.00000
     18      -4.3812      2.00000
     19      -4.3812      2.00000
     20      -3.8742      2.00000
     21      -3.8742      2.00000
     22      -3.8742      2.00000
     23      -3.8742      2.00000
     24      -3.6609      2.00000
     25      -3.0520      2.00000
     26      -3.0520      2.00000
     27      -3.0520      2.00000
     28      -3.0520      2.00000
     29      -2.3534      2.00000
     30      -2.3534      2.00000
     31      -2.3533      2.00000
     32      -2.3533      2.00000
     33      -2.2685      2.00000
     34      -2.2685      2.00000
     35      -2.2684      2.00000
     36      -2.2684      2.00000
     37      -1.4542      2.00000
     38      -1.4542      2.00000
     39      -1.4542      2.00000
     40      -1.4542      2.00000
     41      -1.2120      2.00000
     42      -1.2120      2.00000
     43      -1.2120      2.00000
     44      -1.2120      2.00000
     45      -0.9735      2.00000
     46      -0.7194      2.00000
     47      -0.7194      2.00000
     48      -0.7194      2.00000
     49      -0.7194      2.00000
     50      -0.4999      2.00000
     51      -0.4999      2.00000
     52      -0.4999      2.00000
     53      -0.4999      2.00000
     54       0.5468      2.00000
     55       0.8780      2.00000
     56       0.8780      2.00000
     57       0.8780      2.00000
     58       0.8780      2.00000
     59       1.3584      2.00000
     60       1.3584      2.00000
     61       1.3584      2.00000
     62       1.3584      2.00000
     63       1.4212      2.00000
     64       1.4212      2.00000
     65       1.4212      2.00000
     66       1.4212      2.00000
     67       1.6821      2.00000
     68       1.6821      2.00000
     69       1.6821      2.00000
     70       1.6821      2.00000
     71       1.9356      2.00000
     72       1.9356      2.00000
     73       1.9356      2.00000
     74       1.9356      2.00000
     75       2.4259      2.00000
     76       2.4259      2.00000
     77       2.4259      2.00000
     78       2.4259      2.00000
     79       2.5100      2.00000
     80       2.5100      2.00000
     81       2.5100      2.00000
     82       2.5100      2.00000
     83       2.5198      2.00000
     84       2.5198      2.00000
     85       2.5198      2.00000
     86       2.5198      2.00000
     87       2.5668      2.00000
     88       2.5668      2.00000
     89       2.5668      2.00000
     90       2.5668      2.00000
     91       2.8439      2.00000
     92       2.8439      2.00000
     93       3.1833      2.00000
     94       3.1833      2.00000
     95       3.2945      2.00000
     96       3.2945      2.00000
     97       3.2945      2.00000
     98       3.2945      2.00000
     99       3.5452      2.00000
    100       3.5452      2.00000
    101       3.5452      2.00000
    102       3.5452      2.00000
    103       3.6415      2.00000
    104       3.7650      2.00000
    105       3.7650      2.00000
    106       3.7650      2.00000
    107       3.7650      2.00000
    108       4.0111      2.00000
    109       4.0111      2.00000
    110       4.0111      2.00000
    111       4.0111      2.00000
    112       4.3382      2.00000
    113       4.3382      2.00000
    114       4.3382      2.00000
    115       4.3382      2.00000
    116       4.3734      2.00000
    117       4.3734      2.00000
    118       4.3734      2.00000
    119       4.3734      2.00000
    120       4.4025      2.00000
    121       4.4025      2.00000
    122       4.4025      2.00000
    123       4.4025      2.00000
    124       4.4564      2.00000
    125       4.4564      2.00000
    126       5.0021      2.00000
    127       5.2389      2.00000
    128       5.2389      2.00000
    129       6.4985      0.00000
    130       6.6567      0.00000
    131       7.1306      0.00000
    132       7.2690      0.00000
    133       7.2690      0.00000
    134       7.2691      0.00000
    135       7.2691      0.00000
    136       7.6611      0.00000
    137       7.7416      0.00000
    138       7.7416      0.00000
    139       7.7416      0.00000
    140       7.7416      0.00000
    141       7.9819      0.00000
    142       8.1302      0.00000
    143       8.1302      0.00000
    144       8.1302      0.00000
    145       8.1303      0.00000
    146       8.2590      0.00000
    147       8.4844      0.00000
    148       8.4844      0.00000
    149       8.4844      0.00000
    150       8.4844      0.00000
    151       8.5310      0.00000
    152       8.5310      0.00000
    153       8.5310      0.00000
    154       8.5310      0.00000
    155       8.7369      0.00000
    156       8.7369      0.00000
    157       8.7369      0.00000
    158       8.7369      0.00000
    159       9.1274      0.00000
    160       9.1274      0.00000
    161       9.2142      0.00000
    162       9.2142      0.00000
    163       9.2143      0.00000
    164       9.2152      0.00000

 k-point     3 :       0.3333    0.3333    0.0000
  band No.  band energies     occupation 
      1      -6.4777      2.00000
      2      -6.1019      2.00000
      3      -6.1019      2.00000
      4      -5.7378      2.00000
      5      -5.3717      2.00000
      6      -5.3717      2.00000
      7      -5.0441      2.00000
      8      -5.0441      2.00000
      9      -5.0441      2.00000
     10      -5.0441      2.00000
     11      -4.7674      2.00000
     12      -4.7674      2.00000
     13      -4.6354      2.00000
     14      -4.6354      2.00000
     15      -4.3361      2.00000
     16      -4.3361      2.00000
     17      -4.0412      2.00000
     18      -4.0412      2.00000
     19      -3.8952      2.00000
     20      -3.8952      2.00000
     21      -3.8952      2.00000
     22      -3.8952      2.00000
     23      -3.5801      2.00000
     24      -3.5801      2.00000
     25      -3.3568      2.00000
     26      -3.3568      2.00000
     27      -3.3169      2.00000
     28      -3.3065      2.00000
     29      -3.3065      2.00000
     30      -2.7607      2.00000
     31      -2.7607      2.00000
     32      -2.5418      2.00000
     33      -2.1180      2.00000
     34      -1.8052      2.00000
     35      -1.8052      2.00000
     36      -1.3898      2.00000
     37      -1.3898      2.00000
     38      -1.3743      2.00000
     39      -1.3743      2.00000
     40      -1.2980      2.00000
     41      -1.1640      2.00000
     42      -1.1640      2.00000
     43      -1.0624      2.00000
     44      -1.0624      2.00000
     45      -1.0624      2.00000
     46      -1.0624      2.00000
     47      -1.0121      2.00000
     48      -1.0121      2.00000
     49      -0.5942      2.00000
     50      -0.5942      2.00000
     51      -0.1192      2.00000
     52      -0.1192      2.00000
     53       0.2682      2.00000
     54       0.2682      2.00000
     55       0.2682      2.00000
     56       0.2682      2.00000
     57       0.3617      2.00000
     58       0.3617      2.00000
     59       1.1396      2.00000
     60       1.1396      2.00000
     61       1.1489      2.00000
     62       1.3141      2.00000
     63       1.3141      2.00000
     64       1.5679      2.00000
     65       1.5679      2.00000
     66       1.7279      2.00000
     67       1.8111      2.00000
     68       1.8111      2.00000
     69       1.8883      2.00000
     70       2.0079      2.00000
     71       2.0079      2.00000
     72       2.0079      2.00000
     73       2.0079      2.00000
     74       2.0202      2.00000
     75       2.0202      2.00000
     76       2.4449      2.00000
     77       2.4449      2.00000
     78       2.4657      2.00000
     79       2.4657      2.00000
     80       2.6638      2.00000
     81       2.6638      2.00000
     82       2.7633      2.00000
     83       2.7633      2.00000
     84       2.8251      2.00000
     85       2.8251      2.00000
     86       2.8446      2.00000
     87       2.8446      2.00000
     88       2.9177      2.00000
     89       2.9177      2.00000
     90       2.9300      2.00000
     91       3.0316      2.00000
     92       3.0316      2.00000
     93       3.1965      2.00000
     94       3.1965      2.00000
     95       3.1965      2.00000
     96       3.1965      2.00000
     97       3.1971      2.00000
     98       3.1971      2.00000
     99       3.2196      2.00000
    100       3.3258      2.00000
    101       3.3258      2.00000
    102       3.4979      2.00000
    103       3.6567      2.00000
    104       3.6567      2.00000
    105       3.6518      2.00000
    106       3.6518      2.00000
    107       3.6518      2.00000
    108       3.6518      2.00000
    109       3.8807      2.00000
    110       3.8807      2.00000
    111       3.9807      2.00000
    112       3.9807      2.00000
    113       4.0154      2.00000
    114       4.0154      2.00000
    115       4.0768      2.00000
    116       4.0768      2.00000
    117       4.0862      2.00000
    118       4.2262      2.00000
    119       4.2262      2.00000
    120       4.3344      2.00000
    121       4.3344      2.00000
    122       4.3344      2.00000
    123       4.3344      2.00000
    124       4.8045      2.00000
    125       4.9576      2.00000
    126       4.9576      2.00000
    127       5.0908      2.00000
    128       5.5481      2.00000
    129       6.8770      0.00000
    130       7.1588      0.00000
    131       7.1588      0.00000
    132       7.3324      0.00000
    133       7.3324      0.00000
    134       7.5406      0.00000
    135       7.7006      0.00000
    136       7.7006      0.00000
    137       7.7155      0.00000
    138       7.7155      0.00000
    139       7.9306      0.00000
    140       7.9306      0.00000
    141       8.1700      0.00000
    142       8.1700      0.00000
    143       8.3057      0.00000
    144       8.3057      0.00000
    145       8.4826      0.00000
    146       8.4826      0.00000
    147       8.5236      0.00000
    148       8.6320      0.00000
    149       8.6320      0.00000
    150       8.6320      0.00000
    151       8.6324      0.00000
    152       8.6324      0.00000
    153       8.6320      0.00000
    154       8.6655      0.00000
    155       8.6655      0.00000
    156       8.6799      0.00000
    157       8.6799      0.00000
    158       8.6799      0.00000
    159       8.6799      0.00000
    160       8.8018      0.00000
    161       8.8413      0.00000
    162       8.8413      0.00000
    163       8.9394      0.00000
    164       9.0009      0.00000

 k-point     4 :       0.3333    0.3333    0.3333
  band No.  band energies     occupation 
      1      -6.3530      2.00000
      2      -5.9815      2.00000
      3      -5.9815      2.00000
      4      -5.9815      2.00000
      5      -5.6242      2.00000
      6      -5.6242      2.00000
      7      -5.6242      2.00000
      8      -5.2912      2.00000
      9      -4.5404      2.00000
     10      -4.5404      2.00000
     11      -4.5404      2.00000
     12      -4.2725      2.00000
     13      -4.2725      2.00000
     14      -4.2725      2.00000
     15      -4.2725      2.00000
     16      -4.2725      2.00000
     17      -4.2725      2.00000
     18      -4.1267      2.00000
     19      -4.1267      2.00000
     20      -4.1267      2.00000
     21      -3.5500      2.00000
     22      -3.5500      2.00000
     23      -3.5500      2.00000
     24      -3.5208      2.00000
     25      -3.5208      2.00000
     26      -3.5208      2.00000
     27      -3.3856      2.00000
     28      -3.3856      2.00000
     29      -3.3856      2.00000
     30      -3.3856      2.00000
     31      -3.3856      2.00000
     32      -3.3856      2.00000
     33      -1.3259      2.00000
     34      -1.3259      2.00000
     35      -1.3259      2.00000
     36      -1.2627      2.00000
     37      -1.2627      2.00000
     38      -1.2627      2.00000
     39      -1.2627      2.00000
     40      -1.2627      2.00000
     41      -1.2627      2.00000
     42      -1.1255      2.00000
     43      -1.1255      2.00000
     44      -1.1255      2.00000
     45      -1.0827      2.00000
     46      -1.0827      2.00000
     47      -1.0827      2.00000
     48      -0.5194      2.00000
     49      -0.5194      2.00000
     50      -0.5194      2.00000
     51      -0.5194      2.00000
     52      -0.5194      2.00000
     53      -0.5194      2.00000
     54       0.0771      2.00000
     55       0.0771      2.00000
     56       0.0771      2.00000
     57       0.2009      2.00000
     58       1.1732      2.00000
     59       1.1732      2.00000
     60       1.1732      2.00000
     61       1.6291      2.00000
     62       1.6291      2.00000
     63       1.6291      2.00000
     64       1.6291      2.00000
     65       1.6291      2.00000
     66       1.6291      2.00000
     67       1.6862      2.00000
     68       1.6862      2.00000
     69       1.6862      2.00000
     70       1.9504      2.00000
     71       1.9504      2.00000
     72       1.9504      2.00000
     73       2.1848      2.00000
     74       2.1848      2.00000
     75       2.1848      2.00000
     76       2.3840      2.00000
     77       2.3840      2.00000
     78       2.3840      2.00000
     79       2.3840      2.00000
     80       2.3840      2.00000
     81       2.3840      2.00000
     82       2.6224      2.00000
     83       2.6224      2.00000
     84       2.6224      2.00000
     85       2.8490      2.00000
     86       2.8490      2.00000
     87       2.8490      2.00000
     88       2.9824      2.00000
     89       2.9824      2.00000
     90       2.9824      2.00000
     91       2.9824      2.00000
     92       2.9824      2.00000
     93       2.9824      2.00000
     94       3.0397      2.00000
     95       3.0397      2.00000
     96       3.0397      2.00000
     97       3.2699      2.00000
     98       3.3633      2.00000
     99       3.3633      2.00000
    100       3.3633      2.00000
    101       3.4925      2.00000
    102       3.4925      2.00000
    103       3.4925      2.00000
    104       3.4925      2.00000
    105       3.4925      2.00000
    106       3.4925      2.00000
    107       3.5878      2.00000
    108       3.5878      2.00000
    109       3.5878      2.00000
    110       3.8451      2.00000
    111       3.8451      2.00000
    112       3.8451      2.00000
    113       3.9593      2.00000
    114       3.9593      2.00000
    115       3.9593      2.00000
    116       4.5419      2.00000
    117       4.5419      2.00000
    118       4.5419      2.00000
    119       4.6441      2.00000
    120       4.6441      2.00000
    121       4.7460      2.00000
    122       4.7460      2.00000
    123       4.7460      2.00000
    124       4.9697      2.00000
    125       4.9697      2.00000
    126       4.9697      2.00000
    127       5.2141      2.00000
    128       5.2141      2.00000
    129       7.0099      0.00000
    130       7.0099      0.00000
    131       7.0099      0.00000
    132       7.3859      0.00000
    133       7.3859      0.00000
[...]


 VOLUME and BASIS-vectors are now :
 -----------------------------------------------------------------------------
  energy-cutoff  :     1200.00
  volume of cell :     1280.82
      direct lattice vectors                 reciprocal lattice vectors
    10.860000000  0.000000000  0.000000000     0.092081031  0.000000000  0.000000000
     0.000000000 10.860000000  0.000000000     0.000000000  0.092081031  0.000000000
     0.000000000  0.000000000 10.860000000     0.000000000  0.000000000  0.092081031

  length of vectors
    10.860000000 10.860000000 10.860000000     0.092081031  0.092081031  0.092081031


 FORCES acting on ions
    electron-ion (+dipol)            ewald-force                    non-local-force                 convergence-correction
 -----------------------------------------------------------------------------------------------
   -.350E-10 -.350E-10 0.144E-12   0.532E-14 0.136E-13 -.278E-14   0.126E-16 0.901E-17 -.998E-17   -.913E-14 -.257E-14 0.431E-14
   0.127E-08 0.127E-08 0.227E-10   0.680E-14 -.973E-14 -.133E-13   0.284E-17 -.580E-17 0.798E-17   0.958E-14 0.143E-15 0.930E-14
   -.350E-10 -.350E-10 0.135E-12   0.269E-13 -.778E-14 0.538E-15   -.867E-17 0.470E-17 -.816E-17   -.936E-14 0.557E-14 0.428E-14
   0.127E-08 0.127E-08 0.225E-10   -.129E-13 0.125E-13 -.582E-14   0.496E-17 -.279E-17 0.142E-16   0.101E-13 -.151E-14 0.936E-15
   -.350E-10 -.350E-10 0.140E-12   0.568E-14 0.126E-14 -.102E-13   0.149E-16 0.278E-18 -.117E-16   0.101E-13 -.310E-14 0.411E-14
   0.127E-08 0.127E-08 0.232E-10   -.219E-13 0.782E-14 -.137E-13   -.259E-18 -.923E-17 0.658E-17   0.694E-14 0.134E-14 0.122E-14
   -.350E-10 -.351E-10 0.270E-12   0.144E-13 0.474E-14 -.207E-13   -.324E-17 0.142E-18 -.765E-17   0.102E-13 0.540E-14 0.361E-14
   0.127E-08 0.127E-08 0.224E-10   -.257E-13 0.222E-13 0.226E-14   -.154E-16 0.603E-17 0.965E-17   0.802E-14 -.107E-14 0.106E-13
   -.350E-10 -.350E-10 0.129E-12   0.192E-13 -.578E-14 0.773E-14   0.998E-17 -.536E-17 0.246E-17   -.855E-14 -.242E-14 -.102E-14
   0.127E-08 0.127E-08 0.228E-10   0.993E-14 0.220E-14 0.121E-14   0.499E-18 0.218E-17 -.597E-17   0.924E-14 -.979E-17 0.547E-14
   -.351E-10 -.350E-10 0.132E-12   0.307E-13 0.305E-16 -.194E-14   0.663E-17 -.726E-17 -.791E-17   -.105E-13 0.510E-14 0.332E-14
   0.127E-08 0.127E-08 0.229E-10   -.976E-14 -.168E-13 -.105E-13   -.124E-16 0.419E-17 0.111E-16   0.913E-14 -.178E-14 0.459E-14
   -.350E-10 -.350E-10 -.363E-12   0.153E-13 0.110E-13 0.297E-14   0.481E-17 -.867E-17 -.318E-17   0.101E-13 -.307E-14 0.254E-14
   0.127E-08 0.127E-08 0.228E-10   -.188E-13 -.292E-14 0.116E-13   -.118E-18 -.282E-17 -.399E-17   0.754E-14 0.113E-14 0.428E-14
   -.350E-10 -.353E-10 -.235E-12   -.820E-14 -.103E-13 -.567E-14   0.145E-17 0.885E-17 -.173E-16   0.103E-13 0.532E-14 -.309E-14
   0.127E-08 0.127E-08 0.223E-10   -.606E-15 -.119E-13 -.146E-14   0.680E-18 -.199E-18 0.762E-17   0.854E-14 -.139E-14 0.603E-14
   -.350E-10 -.350E-10 0.140E-12   -.203E-13 0.140E-13 0.286E-14   0.260E-17 0.927E-17 -.115E-16   -.983E-14 0.164E-14 0.382E-14
   0.127E-08 0.127E-08 0.228E-10   0.130E-13 -.184E-14 -.618E-14   -.662E-17 0.410E-17 0.190E-16   0.988E-14 -.605E-15 0.974E-14
   -.351E-10 -.350E-10 0.134E-12   -.249E-13 -.826E-14 0.145E-14   0.742E-17 0.168E-17 -.139E-17   -.855E-14 -.692E-15 0.430E-14
   0.127E-08 0.127E-08 0.229E-10   -.369E-14 -.493E-15 0.242E-14   -.592E-17 -.103E-17 0.223E-17   0.105E-13 -.940E-14 0.672E-15
   -.350E-10 -.355E-10 -.125E-14   -.839E-14 -.330E-14 -.109E-13   0.814E-17 0.863E-17 -.812E-17   0.107E-13 0.120E-14 0.366E-14
   0.127E-08 0.127E-08 0.215E-10   0.436E-13 -.536E-14 -.132E-13   -.171E-16 0.589E-17 0.160E-16   0.857E-14 -.141E-15 0.127E-14
   -.350E-10 -.356E-10 0.240E-12   0.854E-14 -.120E-13 -.837E-14   -.110E-16 0.306E-17 0.236E-17   0.106E-13 -.723E-16 0.398E-14
   0.127E-08 0.127E-08 0.227E-10   -.229E-13 -.171E-13 -.112E-14   0.561E-17 -.192E-16 0.767E-18   0.704E-14 -.930E-14 0.952E-14
   -.350E-10 -.350E-10 0.136E-12   -.829E-14 -.570E-14 0.362E-14   -.115E-16 0.141E-16 0.251E-17   -.953E-14 0.145E-14 -.233E-14
   0.127E-08 0.127E-08 0.227E-10   0.879E-14 0.611E-15 0.189E-14   0.893E-17 -.152E-17 0.672E-17   0.975E-14 -.395E-15 0.547E-14
   -.350E-10 -.350E-10 0.130E-12   -.550E-13 -.949E-15 0.973E-14   0.100E-17 0.516E-17 0.198E-17   -.920E-14 -.287E-15 0.367E-14
   0.127E-08 0.127E-08 0.225E-10   -.199E-13 0.384E-14 0.798E-14   0.395E-17 -.177E-16 -.176E-17   0.980E-14 -.931E-14 0.395E-14
   -.350E-10 -.346E-10 0.420E-12   0.257E-14 0.166E-14 -.339E-14   -.167E-16 0.100E-16 0.173E-18   0.107E-13 0.120E-14 0.240E-14
   0.127E-08 0.127E-08 0.226E-10   0.292E-13 0.475E-14 0.130E-13   0.322E-17 -.772E-17 0.529E-17   0.917E-14 0.136E-15 0.498E-14
   -.350E-10 -.348E-10 0.700E-12   0.139E-14 0.559E-14 -.596E-14   0.102E-16 -.488E-17 -.625E-17   0.108E-13 0.160E-15 -.268E-14
   0.127E-08 0.127E-08 0.222E-10   0.236E-13 0.227E-13 0.484E-14   -.788E-17 0.365E-17 0.181E-17   0.707E-14 -.901E-14 0.546E-14
   -.350E-10 -.350E-10 -.635E-12   0.124E-13 0.797E-14 -.507E-14   0.311E-17 -.640E-17 -.224E-17   -.966E-15 -.212E-14 0.399E-14
   0.127E-08 0.127E-08 0.236E-10   0.804E-14 0.548E-14 -.116E-13   0.209E-17 0.396E-17 -.465E-17   0.310E-14 0.274E-14 0.883E-14
   -.351E-10 -.345E-10 -.747E-12   -.516E-13 -.744E-14 0.272E-14   0.950E-17 -.857E-17 -.946E-17   -.843E-15 0.707E-14 0.389E-14
   0.127E-08 0.127E-08 0.224E-10   0.113E-13 0.128E-13 -.456E-14   0.240E-17 -.228E-17 0.138E-16   0.343E-14 -.223E-15 0.134E-14
   -.350E-10 -.350E-10 -.139E-14   0.484E-14 0.104E-13 -.820E-14   0.357E-17 -.992E-17 -.429E-17   -.605E-14 -.222E-14 0.435E-14
   0.127E-08 0.127E-08 0.217E-10   -.467E-15 0.119E-13 -.128E-13   0.304E-17 -.579E-17 -.585E-17   -.975E-14 0.137E-14 0.884E-15
   -.351E-10 -.349E-10 -.266E-12   -.509E-14 0.289E-14 -.655E-14   -.331E-17 0.136E-16 -.439E-17   -.656E-14 0.711E-14 0.339E-14
   0.127E-08 0.127E-08 0.212E-10   0.444E-14 0.123E-13 -.219E-14   0.310E-17 0.811E-17 0.105E-16   -.111E-13 -.136E-14 0.851E-14
   -.350E-10 -.350E-10 0.934E-13   0.807E-14 -.165E-13 0.353E-14   0.951E-17 -.178E-17 -.924E-17   -.159E-14 -.198E-14 -.161E-14
   0.127E-08 0.127E-08 0.217E-10   0.194E-14 0.373E-14 0.325E-14   0.141E-18 -.748E-17 -.767E-17   0.333E-14 0.303E-14 0.615E-14
   -.350E-10 -.345E-10 0.501E-12   -.308E-13 -.449E-14 -.180E-14   -.253E-17 0.582E-17 -.989E-17   0.269E-15 0.676E-14 0.264E-14
   0.127E-08 0.127E-08 0.221E-10   -.483E-14 -.855E-14 -.793E-14   -.312E-17 0.818E-18 0.962E-17   0.427E-14 -.525E-15 0.402E-14
   -.350E-10 -.350E-10 0.101E-11   0.745E-14 0.160E-13 0.439E-14   0.153E-16 -.129E-17 -.894E-17   -.585E-14 -.167E-14 0.398E-14
   0.127E-08 0.127E-08 0.232E-10   0.325E-13 -.525E-14 0.139E-13   -.759E-17 -.884E-17 -.219E-17   -.103E-13 0.147E-14 0.338E-14
   -.350E-10 -.347E-10 0.803E-12   -.148E-13 -.531E-14 0.149E-13   0.491E-17 0.450E-18 -.141E-16   -.672E-14 0.730E-14 -.939E-15
   0.127E-08 0.127E-08 0.226E-10   -.226E-13 -.178E-15 0.759E-14   -.839E-17 0.172E-17 0.557E-17   -.115E-13 -.189E-14 0.578E-14
   -.350E-10 -.352E-10 0.382E-12   -.182E-13 0.174E-13 -.548E-14   -.165E-16 0.126E-16 -.143E-17   0.812E-15 0.207E-14 0.369E-14
   0.127E-08 0.127E-08 0.219E-10   0.634E-14 0.145E-13 -.270E-14   -.639E-17 -.121E-16 0.329E-17   0.370E-14 -.262E-15 0.918E-14
   -.350E-10 -.349E-10 0.103E-11   0.320E-14 -.511E-14 0.381E-14   0.301E-18 0.394E-18 0.764E-18   -.541E-15 -.937E-15 0.410E-14
   0.127E-08 0.127E-08 0.224E-10   -.707E-14 0.329E-14 0.520E-14   0.461E-17 -.781E-17 -.416E-17   0.316E-14 -.972E-14 0.911E-15
   -.350E-10 -.335E-10 -.186E-13   -.862E-14 0.755E-14 -.940E-14   -.196E-16 0.832E-17 0.414E-17   -.706E-14 0.151E-14 0.424E-14
   0.127E-08 0.127E-08 0.217E-10   -.215E-13 -.467E-14 -.906E-14   0.452E-17 -.568E-17 0.788E-17   -.996E-14 -.834E-15 0.711E-15
   -.350E-10 -.336E-10 -.226E-12   -.129E-14 -.668E-14 -.323E-14   0.547E-17 0.273E-17 -.288E-17   -.642E-14 -.944E-15 0.406E-14
   0.127E-08 0.127E-08 0.247E-10   -.353E-14 -.108E-13 0.926E-14   -.635E-17 0.315E-17 0.511E-17   -.953E-14 -.968E-14 0.800E-14
   -.350E-10 -.339E-10 -.105E-12   0.220E-13 -.443E-14 0.716E-14   0.119E-16 0.776E-17 -.156E-16   0.522E-15 0.191E-14 -.241E-14
   0.127E-08 0.127E-08 0.230E-10   0.182E-13 0.748E-14 0.145E-13   -.995E-17 0.417E-18 0.174E-16   0.376E-14 -.516E-15 0.602E-14
   -.351E-10 -.347E-10 -.827E-12   0.197E-13 -.569E-14 0.581E-14   0.673E-17 -.494E-17 -.603E-17   0.637E-16 -.709E-15 0.318E-14
   0.127E-08 0.127E-08 0.222E-10   0.520E-14 0.121E-14 0.695E-14   0.182E-18 -.246E-18 0.168E-17   0.382E-14 -.954E-14 0.412E-14
   -.350E-10 -.339E-10 0.166E-11   -.459E-14 0.565E-14 0.510E-14   -.213E-17 0.896E-17 -.147E-16   -.708E-14 0.106E-14 0.358E-14
   0.127E-08 0.127E-08 0.229E-10   -.293E-13 0.645E-14 0.126E-13   -.101E-16 0.594E-18 0.154E-16   -.105E-13 -.774E-15 0.419E-14
   -.350E-10 -.331E-10 0.836E-12   -.234E-14 0.651E-14 0.190E-13   0.343E-17 0.742E-17 0.633E-17   -.654E-14 -.106E-14 -.132E-14
   0.127E-08 0.127E-08 0.225E-10   -.305E-13 0.651E-14 0.926E-14   0.145E-17 -.108E-16 -.509E-17   -.956E-14 -.919E-14 0.526E-14
 -----------------------------------------------------------------------------------------------
   -.213E-06 -.213E-06 -.253E-08   -.877E-13 0.833E-13 -.271E-14   -.710E-17 -.187E-18 -.177E-16   0.414E-13 -.391E-13 0.234E-12


 POSITION                                       TOTAL-FORCE (eV/Angst)
 -----------------------------------------------------------------------------------
      0.00000      0.00000      0.00000         0.000000      0.000000     -0.000000
      1.35750      1.35750      1.35750         0.000000     -0.000000      0.000000
      0.00000      2.71500      2.71500         0.000000     -0.000000     -0.000000
      1.35750      4.07250      4.07250        -0.000000      0.000000      0.000000
      2.71500      0.00000      2.71500         0.000000     -0.000000     -0.000000
      4.07250      1.35750      4.07250         0.000000      0.000000      0.000000
      2.71500      2.71500      0.00000         0.000000      0.000000     -0.000000
      4.07250      4.07250      1.35750        -0.000000     -0.000000      0.000000
      0.00000      0.00000      5.43000         0.000000      0.000000      0.000000
      1.35750      1.35750      6.78750        -0.000000     -0.000000      0.000000
      0.00000      2.71500      8.14500         0.000000      0.000000     -0.000000
      1.35750      4.07250      9.50250        -0.000000     -0.000000      0.000000
      2.71500      0.00000      8.14500         0.000000      0.000000     -0.000000
      4.07250      1.35750      9.50250        -0.000000     -0.000000      0.000000
      2.71500      2.71500      5.43000         0.000000     -0.000000     -0.000000
      4.07250      4.07250      6.78750        -0.000000      0.000000      0.000000
      0.00000      5.43000      0.00000        -0.000000      0.000000     -0.000000
      1.35750      6.78750      1.35750        -0.000000     -0.000000      0.000000
      0.00000      8.14500      2.71500         0.000000      0.000000     -0.000000
      1.35750      9.50250      4.07250         0.000000     -0.000000      0.000000
      2.71500      5.43000      2.71500        -0.000000      0.000000     -0.000000
      4.07250      6.78750      4.07250        -0.000000     -0.000000      0.000000
      2.71500      8.14500      0.00000         0.000000     -0.000000     -0.000000
      4.07250      9.50250      1.35750         0.000000      0.000000      0.000000
      0.00000      5.43000      5.43000         0.000000     -0.000000     -0.000000
      1.35750      6.78750      6.78750        -0.000000      0.000000      0.000000
      0.00000      8.14500      8.14500        -0.000000     -0.000000     -0.000000
      1.35750      9.50250      9.50250         0.000000      0.000000      0.000000
      2.71500      5.43000      8.14500        -0.000000     -0.000000     -0.000000
      4.07250      6.78750      9.50250        -0.000000      0.000000      0.000000
      2.71500      8.14500      5.43000         0.000000     -0.000000     -0.000000
      4.07250      9.50250      6.78750         0.000000     -0.000000      0.000000
      5.43000      0.00000      0.00000         0.000000     -0.000000     -0.000000
      6.78750      1.35750      1.35750        -0.000000     -0.000000      0.000000
      5.43000      2.71500      2.71500        -0.000000      0.000000      0.000000
      6.78750      4.07250      4.07250        -0.000000     -0.000000      0.000000
      8.14500      0.00000      2.71500         0.000000     -0.000000     -0.000000
      9.50250      1.35750      4.07250        -0.000000      0.000000      0.000000
      8.14500      2.71500      0.00000        -0.000000      0.000000     -0.000000
      9.50250      4.07250      1.35750        -0.000000     -0.000000      0.000000
      5.43000      0.00000      5.43000         0.000000      0.000000     -0.000000
      6.78750      1.35750      6.78750         0.000000     -0.000000      0.000000
      5.43000      2.71500      8.14500        -0.000000     -0.000000     -0.000000
      6.78750      4.07250      9.50250        -0.000000     -0.000000      0.000000
      8.14500      0.00000      8.14500         0.000000      0.000000     -0.000000
      9.50250      1.35750      9.50250         0.000000     -0.000000      0.000000
      8.14500      2.71500      5.43000         0.000000      0.000000     -0.000000
      9.50250      4.07250      6.78750        -0.000000     -0.000000      0.000000
      5.43000      5.43000      0.00000        -0.000000      0.000000     -0.000000
      6.78750      6.78750      1.35750        -0.000000     -0.000000      0.000000
      5.43000      8.14500      2.71500         0.000000      0.000000     -0.000000
      6.78750      9.50250      4.07250         0.000000      0.000000      0.000000
      8.14500      5.43000      2.71500        -0.000000      0.000000      0.000000
      9.50250      6.78750      4.07250        -0.000000      0.000000      0.000000
      8.14500      8.14500      0.00000        -0.000000      0.000000     -0.000000
      9.50250      9.50250      1.35750         0.000000     -0.000000      0.000000
      5.43000      5.43000      5.43000        -0.000000      0.000000     -0.000000
      6.78750      6.78750      6.78750         0.000000     -0.000000      0.000000
      5.43000      8.14500      8.14500        -0.000000     -0.000000     -0.000000
      6.78750      9.50250      9.50250        -0.000000     -0.000000      0.000000
      8.14500      5.43000      8.14500        -0.000000      0.000000     -0.000000
      9.50250      6.78750      9.50250        -0.000000      0.000000      0.000000
      8.14500      8.14500      5.43000        -0.000000      0.000000     -0.000000
      9.50250      9.50250      6.78750         0.000000      0.000000      0.000000
 -----------------------------------------------------------------------------------
    total drift:                               -0.000000     -0.000000     -0.000000


--------------------------------------------------------------------------------------------------------



  FREE ENERGIE OF THE ION-ELECTRON SYSTEM (eV)
  ---------------------------------------------------
  free  energy   TOTEN  =      -640.60747655 eV

  energy  without entropy=     -640.60747655  energy(sigma->0) =     -640.60747655



--------------------------------------------------------------------------------------------------------


    POTLOK:  cpu time      1.7330: real time      1.7340


--------------------------------------------------------------------------------------------------------


     LOOP+:  cpu time    991.6977: real time    992.2965
    4ORBIT:  cpu time      0.0000: real time      0.0000



 total charge

# of ion       s       p       d       tot
------------------------------------------
    1        0.743   0.964   0.000   1.707
    2        0.743   0.964   0.000   1.707
    3        0.743   0.964   0.000   1.707
    4        0.743   0.964   0.000   1.707
    5        0.743   0.964   0.000   1.707
    6        0.743   0.964   0.000   1.707
    7        0.743   0.964   0.000   1.707
    8        0.743   0.964   0.000   1.707
    9        0.743   0.964   0.000   1.707
   10        0.743   0.964   0.000   1.707
   11        0.743   0.964   0.000   1.707
   12        0.743   0.964   0.000   1.707
   13        0.743   0.964   0.000   1.707
   14        0.743   0.964   0.000   1.707
   15        0.743   0.964   0.000   1.707
   16        0.743   0.964   0.000   1.707
   17        0.743   0.964   0.000   1.707
   18        0.743   0.964   0.000   1.707
   19        0.743   0.964   0.000   1.707
   20        0.743   0.964   0.000   1.707
   21        0.743   0.964   0.000   1.707
   22        0.743   0.964   0.000   1.707
   23        0.743   0.964   0.000   1.707
   24        0.743   0.964   0.000   1.707
   25        0.743   0.964   0.000   1.707
   26        0.743   0.964   0.000   1.707
   27        0.743   0.964   0.000   1.707
   28        0.743   0.964   0.000   1.707
   29        0.743   0.964   0.000   1.707
   30        0.743   0.964   0.000   1.707
   31        0.743   0.964   0.000   1.707
   32        0.743   0.964   0.000   1.707
   33        0.743   0.964   0.000   1.707
   34        0.743   0.964   0.000   1.707
   35        0.743   0.964   0.000   1.707
   36        0.743   0.964   0.000   1.707
   37        0.743   0.964   0.000   1.707
   38        0.743   0.964   0.000   1.707
   39        0.743   0.964   0.000   1.707
   40        0.743   0.964   0.000   1.707
   41        0.743   0.964   0.000   1.707
   42        0.743   0.964   0.000   1.707
   43        0.743   0.964   0.000   1.707
   44        0.743   0.964   0.000   1.707
   45        0.743   0.964   0.000   1.707
   46        0.743   0.964   0.000   1.707
   47        0.743   0.964   0.000   1.707
   48        0.743   0.964   0.000   1.707
   49        0.743   0.964   0.000   1.707
   50        0.743   0.964   0.000   1.707
   51        0.743   0.964   0.000   1.707
   52        0.743   0.964   0.000   1.707
   53        0.743   0.964   0.000   1.707
   54        0.743   0.964   0.000   1.707
   55        0.743   0.964   0.000   1.707
   56        0.743   0.964   0.000   1.707
   57        0.743   0.964   0.000   1.707
   58        0.743   0.964   0.000   1.707
   59        0.743   0.964   0.000   1.707
   60        0.743   0.964   0.000   1.707
   61        0.743   0.964   0.000   1.707
   62        0.743   0.964   0.000   1.707
   63        0.743   0.964   0.000   1.707
   64        0.743   0.964   0.000   1.707
--------------------------------------------------
tot         47.579  61.666   0.000 109.245


 total amount of memory used by VASP MPI-rank0   123829. kBytes
=======================================================================

   base                                    :      30000. kBytes
   nonl-proj                               :       9687. kBytes
   fftplans                                :      40723. kBytes
   grid                                    :      23465. kBytes
   one-center                              :         12. kBytes
   wavefun                                 :      19942. kBytes

  
  
 General timing and accounting informations for this job:
 ========================================================
  
                  Total CPU time used (sec):     1024.951
                            User time (sec):     1007.713
                          System time (sec):       17.238
                         Elapsed time (sec):     1025.645
  
                   Maximum memory used (kb):      618124.
                   Average memory used (kb):          N/A
  
                          Minor page faults:      1586662
                          Major page faults:         1146
                 Voluntary context switches:         1069
