 vasp.6.5.0 16Dec24 (build Jan 20 2025 08:32:48) complex                         
 executed on        HPECrayEX_GCC date 2025.07.22  11:55:56
 running  128 mpi-ranks, with    1 threads/rank, on    1 nodes
 distrk:  each k-point on  128 cores,    1 groups
 distr:  one band on NCORE=  16 cores,    8 groups


--------------------------------------------------------------------------------------------------------


 INCAR:
   SYSTEM = a-Si SPC
   NCORE = 16
   ISTART = 1
   ICHARG = 1
   ISPIN = 1
   ISYM = 1
   EDIFF = 1E-6
   NELM = 150
   EDIFFG = -0.01
   NSW = 0
   ISIF = 2
   IBRION = -1
   PREC = Accurate
   ENCUT = 1200
   KSPACING = 0.23
   KGAMMA = .TRUE.
   METAGGA = SCAN
   LASPH = .TRUE.
   LDIAG = .FALSE.
   LMIXTAU = .TRUE.
   ADDGRID = .TRUE.
   ALGO = Normal
   ISMEAR = 0
   SIGMA = 0.1
   LORBIT = 11
   NEDOS = 2000
   LWAVE = .FALSE.
   LCHARG = .FALSE.

 POTCAR:    PAW_PBE H 15Jun2001                   
 POTCAR:    PAW_PBE Si 05Jan2001                  
 POTCAR:    PAW_PBE H 15Jun2001                   
   SHA256 =  030f79b5d3ab3cf0e668861823c8fb652ff669f3e15e46930bd03bfd63a607b6 H/POTCAR              
   COPYR  = (c) Copyright 15Jun2001 Georg Kresse                                                    
   COPYR  = This file is part of the software VASP. Any use, copying, and all other rights are regul
   COPYR  = If you do not have a valid VASP license, you may not use, copy or distribute this file. 
   VRHFIN =H: ultrasoft test                                                                        
   LEXCH  = PE                                                                                      
   EATOM  =    12.4884 eV,    0.9179 Ry                                                             
                                                                                                    
   TITEL  = PAW_PBE H 15Jun2001                                                                     
   LULTRA =        F    use ultrasoft PP ?                                                          
   IUNSCR =        0    unscreen: 0-lin 1-nonlin 2-no                                               
   RPACOR =    0.000    partial core radius                                                         
   POMASS =    1.000; ZVAL   =    1.000    mass and valenz                                          
   RCORE  =    1.100    outmost cutoff radius                                                       
   RWIGS  =    0.700; RWIGS  =    0.370    wigner-seitz radius (au A)                               
   ENMAX  =  250.000; ENMIN  =  200.000 eV                                                          
   RCLOC  =    0.701    cutoff for local pot                                                        
   LCOR   =        T    correct aug charges                                                         
   LPAW   =        T    paw PP                                                                      
   EAUG   =  400.000                                                                                
   RMAX   =    1.123    core radius for proj-oper                                                   
   RAUG   =    1.200    factor for augmentation sphere                                              
   RDEP   =    1.112    radius for radial grids                                                     
   RDEPT  =    0.926    core radius for aug-charge                                                  
                                                                                                    
   Atomic configuration                                                                             
    2 entries                                                                                       
     n  l   j            E        occ.                                                              
     1  0  0.50        -6.4927   1.0000                                                             
     2  1  0.50        -3.4015   0.0000                                                             
   Description                                                                                      
     l       E           TYP  RCUT    TYP  RCUT                                                     
     0     -6.4927494     23  1.100                                                                 
     0      6.8029130     23  1.100                                                                 
     1     -4.0817478     23  1.100                                                                 
  local pseudopotential read in
  atomic valenz-charges read in
  non local Contribution for L=           0  read in
    real space projection operators read in
  non local Contribution for L=           0  read in
    real space projection operators read in
  non local Contribution for L=           1  read in
    real space projection operators read in
    PAW grid and wavefunctions read in

   number of l-projection  operators is LMAX  =           3
   number of lm-projection operators is LMMAX =           5

 POTCAR:    PAW_PBE Si 05Jan2001                  
   SHA256 =  79d9987ad8750f624c4d6acb2a16d13abf6a777132adc04dc6c8399be72b42bb Si/POTCAR             
   COPYR  = (c) Copyright 05Jan2001 Georg Kresse                                                    
   COPYR  = This file is part of the software VASP. Any use, copying, and all other rights are regul
   COPYR  = If you do not have a valid VASP license, you may not use, copy or distribute this file. 
   VRHFIN =Si: s2p2                                                                                 
   LEXCH  = PE                                                                                      
   EATOM  =   103.0669 eV,    7.5752 Ry                                                             
                                                                                                    
   TITEL  = PAW_PBE Si 05Jan2001                                                                    
   LULTRA =        F    use ultrasoft PP ?                                                          
   IUNSCR =        1    unscreen: 0-lin 1-nonlin 2-no                                               
   RPACOR =    1.500    partial core radius                                                         
   POMASS =   28.085; ZVAL   =    4.000    mass and valenz                                          
   RCORE  =    1.900    outmost cutoff radius                                                       
   RWIGS  =    2.480; RWIGS  =    1.312    wigner-seitz radius (au A)                               
   ENMAX  =  245.345; ENMIN  =  184.009 eV                                                          
   ICORE  =        2    local potential                                                             
   LCOR   =        T    correct aug charges                                                         
   LPAW   =        T    paw PP                                                                      
   EAUG   =  322.069                                                                                
   DEXC   =    0.000                                                                                
   RMAX   =    1.950    core radius for proj-oper                                                   
   RAUG   =    1.300    factor for augmentation sphere                                              
   RDEP   =    1.993    radius for radial grids                                                     
   RDEPT  =    1.837    core radius for aug-charge                                                  
                                                                                                    
   Atomic configuration                                                                             
    6 entries                                                                                       
     n  l   j            E        occ.                                                              
     1  0  0.50     -1785.8828   2.0000                                                             
     2  0  0.50      -139.4969   2.0000                                                             
     2  1  1.50       -95.5546   6.0000                                                             
     3  0  0.50       -10.8127   2.0000                                                             
     3  1  0.50        -4.0811   2.0000                                                             
     3  2  1.50        -4.0817   0.0000                                                             
   Description                                                                                      
     l       E           TYP  RCUT    TYP  RCUT                                                     
     0    -10.8127223     23  1.900                                                                 
     0     -7.6451159     23  1.900                                                                 
     1     -4.0811372     23  1.900                                                                 
     1      2.4879257     23  1.900                                                                 
     2     -4.0817478      7  1.900                                                                 
  local pseudopotential read in
  partial core-charges read in
  partial kinetic energy density read in
  atomic valenz-charges read in
  non local Contribution for L=           0  read in
    real space projection operators read in
  non local Contribution for L=           0  read in
    real space projection operators read in
  non local Contribution for L=           1  read in
    real space projection operators read in
  non local Contribution for L=           1  read in
    real space projection operators read in
    PAW grid and wavefunctions read in

   number of l-projection  operators is LMAX  =           4
   number of lm-projection operators is LMMAX =           8

 -----------------------------------------------------------------------------
|                                                                             |
|               ----> ADVICE to this user running VASP <----                  |
|                                                                             |
|     You have a (more or less) 'large supercell' and for larger cells it     |
|     might be more efficient to use real-space projection operators.         |
|     Therefore, try LREAL= Auto in the INCAR file.                           |
|     Mind: For very accurate calculation, you might also keep the            |
|     reciprocal projection scheme (i.e. LREAL=.FALSE.).                      |
|                                                                             |
 -----------------------------------------------------------------------------

 -----------------------------------------------------------------------------
|                                                                             |
|               ----> ADVICE to this user running VASP <----                  |
|                                                                             |
|     You enforced a specific xc type in the INCAR file but a different       |
|     type was found in the POTCAR file.                                      |
|     I HOPE YOU KNOW WHAT YOU ARE DOING!                                     |
|                                                                             |
 -----------------------------------------------------------------------------

  PAW_PBE H 15Jun2001                   :
 energy of atom  1       EATOM=  -12.4884
 kinetic energy error for atom=    0.0000 (will be added to EATOM!!)
  PAW_PBE Si 05Jan2001                  :
 energy of atom  2       EATOM= -103.0669
 kinetic energy error for atom=    0.0001 (will be added to EATOM!!)


 POSCAR:  H Si
  positions in cartesian coordinates
  No initial velocities read in


 exchange-correlation table for SCAN
   RHO(1)=    0.500       N(1)  =     2000
   RHO(2)=  100.500       N(2)  =     4000



--------------------------------------------------------------------------------------------------------


 ion  position               nearest neighbor table
   1  0.360  0.519  0.473-  23 0.76
   2  0.471  0.331  0.523-   4 0.81
   3  0.617  0.703  0.204-  44 1.48
   4  0.499  0.315  0.583-   2 0.81
   5  0.571  0.405  0.106-  27 0.78
   6  0.545  0.379  0.776-  30 0.74
   7  0.405  0.307  0.908-  50 1.52
   8  0.636  0.575  0.180-  28 0.73
   9  0.507  0.252  0.015-  52 1.46
  10  0.420  0.540  0.911-  98 1.48
  11  0.786  0.660  0.423-  73 1.66
  12  0.524  0.462  0.385-  17 0.76
  13  0.633  0.690  0.827-  81 1.50
  14  0.540  0.255  0.384-  85 1.51
  15  0.491  0.718  0.446-  45 1.50
  16  0.556  0.504  0.634-  18 0.73
  17  0.502  0.432  0.433-  12 0.76
  18  0.532  0.471  0.596-  16 0.73
  19  0.456  0.512  0.066-  20 0.71
  20  0.423  0.495  0.109-  19 0.71
  21  0.424  0.338  0.280-  85 1.47
  22  0.286  0.392  0.565- 103 1.46
  23  0.375  0.558  0.514-   1 0.76
  24  0.613  0.135  0.607- 118 1.46
  25  0.313  0.528  0.161-  48 1.49
  26  0.542  0.632  0.981-  98 1.53
  27  0.588  0.383  0.166-   5 0.78
  28  0.668  0.568  0.131-   8 0.73
  29  0.698  0.314  0.948- 102 1.46
  30  0.522  0.412  0.816-   6 0.74
  31  0.247  0.498  0.862-  66 1.44
  32  0.740  0.462  0.304-  96 1.50
  33  0.526  0.599  0.748-  98 1.48
  34  0.424  0.704  0.150-  70 1.44
  35  0.715  0.317  0.298-  96 1.48
  36  0.405  0.167  0.661-  47 1.52
  37  0.100  0.409  0.465- 103 2.26 100 2.36  76 2.40  65 2.41
  38  0.508  0.978  0.953- 125 2.30  69 2.46 115 2.46 123 2.47
  39  0.715  0.880  0.745- 123 2.36  77 2.36 117 2.39  81 2.43
  40  0.913  0.383  0.238-  96 2.24 100 2.35  41 2.36  79 2.50
  41  0.984  0.529  0.243-  56 2.27  76 2.33  40 2.36  92 2.42
  42  0.209  0.880  0.561-  67 2.26 124 2.29  68 2.32  97 2.40
  43  0.776  0.940  0.018-  59 2.33 117 2.36  69 2.40 121 2.40
  44  0.678  0.783  0.220-   3 1.48  59 2.30  73 2.34  54 2.37
  45  0.417  0.789  0.466-  15 1.50  97 2.35  46 2.36 111 2.36
  46  0.418  0.871  0.282-  74 2.29  70 2.31  45 2.36  54 2.40
  47  0.404  0.096  0.560-  36 1.52  90 2.27  67 2.38 118 2.44
  48  0.214  0.505  0.148-  25 1.49  76 2.25 122 2.29  72 2.36
  49  0.976  0.163  0.385- 100 2.20 108 2.29 109 2.34  93 2.49
  50  0.305  0.282  0.932-   7 1.52  84 2.33  53 2.40 122 2.51
  51  0.201  0.731  0.165-  63 2.32  72 2.33  70 2.44  55 2.52
  52  0.519  0.195  0.122-   9 1.46  85 2.29  99 2.33 125 2.52
  53  0.191  0.293  0.777-  71 2.34  86 2.40  50 2.40 103 2.46
  54  0.578  0.908  0.255-  44 2.37  69 2.38  46 2.40 105 2.41
  55  0.160  0.678  0.374-  76 2.33  97 2.36 104 2.51  51 2.52
  56  0.898  0.579  0.401-  41 2.27 104 2.33 114 2.42
  57  0.951  0.980  0.719-  87 2.23 107 2.37 126 2.41 117 2.63
  58  0.005  0.873  0.013-  83 2.25  63 2.33 107 2.45 121 2.47
  59  0.774  0.783  0.055-  44 2.30  83 2.31  43 2.33  81 2.52
  60  0.745  0.082  0.321- 105 2.26  93 2.36  99 2.47 108 2.47
  61  0.238  0.898  0.906- 106 2.26 124 2.33  63 2.33 115 2.34
  62  0.251  0.700  0.727- 124 2.41 112 2.44  97 2.45  66 2.47
  63  0.156  0.870  0.082-  51 2.32  61 2.33  58 2.33  95 2.37
  64  0.976  0.710  0.689- 107 2.30 110 2.34 113 2.43 104 2.66
  65  0.995  0.456  0.620- 113 2.28 114 2.34  37 2.41  75 2.43
  66  0.184  0.572  0.843-  31 1.44  72 2.23 113 2.27  62 2.47  71 2.81
  67  0.322  0.968  0.640-  42 2.26  47 2.38 106 2.42 111 2.49
  68  0.132  0.961  0.413- 109 2.29  42 2.32  95 2.35  82 2.41
  69  0.635  0.001  0.096-  99 2.28  54 2.38  43 2.40  38 2.46
  70  0.359  0.777  0.133-  34 1.44  46 2.31 115 2.31  51 2.44
  71  0.102  0.400  0.884- 119 2.29  53 2.34 122 2.40  66 2.81 113 2.96  86 3.05  75 3.11
  72  0.149  0.621  0.028-  66 2.23  92 2.28  51 2.33  48 2.36
  73  0.765  0.770  0.397-  11 1.66  77 2.31  44 2.34  88 2.35
  74  0.340  0.003  0.242-  95 2.28  46 2.29  90 2.33 125 2.40
  75  0.951  0.315  0.721- 119 2.37  65 2.43 120 2.45  86 2.46  71 3.11
  76  0.133  0.526  0.319-  48 2.25  55 2.33  41 2.33  37 2.40
  77  0.748  0.887  0.536-  73 2.31  39 2.36 105 2.43  87 2.48
  78  0.995  0.165  0.008-  79 2.36  86 2.42 121 2.45  80 2.49
  79  0.890  0.282  0.059- 102 2.28  78 2.36  40 2.50 119 2.52
  80  0.144  0.129  0.109- 116 2.25  95 2.41  78 2.49  84 2.59
  81  0.725  0.733  0.848-  13 1.50  39 2.43 110 2.44  59 2.52
  82  0.972  0.941  0.367-  88 2.29  93 2.34  87 2.34  68 2.41
  83  0.925  0.767  0.115-  58 2.25  59 2.31  92 2.34  88 2.45
  84  0.285  0.125  0.967- 125 2.29  50 2.33 106 2.37  80 2.59
  85  0.459  0.245  0.301-  21 1.47  14 1.51  52 2.29  90 2.42
  86  0.056  0.203  0.812- 126 2.27  53 2.40  78 2.42  75 2.46  71 3.05
  87  0.887  0.985  0.536-  57 2.23  82 2.34  77 2.48 108 2.51
  88  0.916  0.796  0.332-  82 2.29 104 2.32  73 2.35  83 2.45
  89  0.219  0.210  0.418-  90 2.34 103 2.34 109 2.43 116 2.47
  90  0.353  0.129  0.372-  47 2.27  74 2.33  89 2.34  85 2.42
  91  0.726  0.157  0.809- 102 2.31 117 2.37 120 2.49
  92  0.996  0.628  0.069-  72 2.28  83 2.34 101 2.35  41 2.42
  93  0.895  0.051  0.252-  82 2.34  60 2.36 121 2.38  49 2.49 108 3.03
  94  0.777  0.376  0.551-  96 2.22 120 2.25 114 2.36
  95  0.186  0.992  0.218-  74 2.28  68 2.35  63 2.37  80 2.41
  96  0.787  0.377  0.351-  35 1.48  32 1.50  94 2.22  40 2.24
  97  0.271  0.731  0.512-  45 2.35  55 2.36  42 2.40  62 2.45
  98  0.484  0.612  0.868-  33 1.48  10 1.48  26 1.53 112 2.43
  99  0.672  0.149  0.140-  69 2.28  52 2.33 102 2.41  60 2.47
 100  0.028  0.300  0.339-  49 2.20  40 2.35 116 2.35  37 2.36
 101  0.928  0.551  0.906- 119 2.27  92 2.35 110 2.43 113 2.44
 102  0.751  0.234  0.987-  29 1.46  79 2.28  91 2.31  99 2.41
 103  0.210  0.328  0.561-  22 1.46  37 2.26  89 2.34  53 2.46
 104  1.000  0.696  0.452-  88 2.32  56 2.33  55 2.51  64 2.66
 105  0.648  0.988  0.421-  60 2.26  54 2.41 118 2.41  77 2.43
 106  0.234  0.032  0.805-  61 2.26  84 2.37  67 2.42 126 2.49
 107  0.010  0.840  0.796- 124 2.21  64 2.30  57 2.37  58 2.45
 108  0.840  0.146  0.485-  49 2.29 120 2.37  60 2.47  87 2.51  93 3.03
 109  0.103  0.104  0.490-  68 2.29  49 2.34  89 2.43 126 2.44
 110  0.842  0.636  0.754-  64 2.34 101 2.43  81 2.44 114 2.48 113 3.13
 111  0.448  0.854  0.656-  45 2.36 112 2.40 123 2.40  67 2.49
 112  0.399  0.747  0.807- 115 2.34 111 2.40  98 2.43  62 2.44
 113  0.045  0.566  0.750-  66 2.27  65 2.28  64 2.43 101 2.44  71 2.96 110 3.13
 114  0.848  0.518  0.593-  65 2.34  94 2.36  56 2.42 110 2.48
 115  0.388  0.859  0.958-  70 2.31 112 2.34  61 2.34  38 2.46
 116  0.156  0.256  0.222-  80 2.25 100 2.35 122 2.44  89 2.47
 117  0.793  0.010  0.827-  43 2.36  91 2.37  39 2.39  57 2.63 121 3.03
 118  0.564  0.050  0.589-  24 1.46 123 2.36 105 2.41  47 2.44
 119  0.946  0.397  0.906- 101 2.27  71 2.29  75 2.37  79 2.52
 120  0.808  0.245  0.650-  94 2.25 108 2.37  75 2.45  91 2.49
 121  0.919  0.018  0.044-  93 2.38  43 2.40  78 2.45  58 2.47 117 3.03
 122  0.191  0.365  0.061-  48 2.29  71 2.40 116 2.44  50 2.51
 123  0.567  0.944  0.749- 118 2.36  39 2.36 111 2.40  38 2.47
 124  0.156  0.835  0.746- 107 2.21  42 2.29  61 2.33  62 2.41
 125  0.411  0.068  0.066-  84 2.29  38 2.30  74 2.40  52 2.52
 126  0.087  0.074  0.705-  86 2.27  57 2.41 109 2.44 106 2.49

  LATTYP: Found a simple tetragonal cell.
 ALAT       =    14.5825907058
 C/A-ratio  =     0.7605989922
  
  Lattice vectors:
  
 A1 = (  14.5825907058,   0.0000000000,   0.0000000000)
 A2 = (   0.0000000000,  14.5825907058,   0.0000000000)
 A3 = (   0.0000000000,   0.0000000000,  11.0915037947)


Analysis of symmetry for initial positions (statically):
=====================================================================
 Subroutine PRICEL returns:
 Original cell was already a primitive cell.
 

 Routine SETGRP: Setting up the symmetry group for a 
 simple tetragonal supercell.


 Subroutine GETGRP returns: Found  1 space group operations
 (whereof  1 operations were pure point group operations)
 out of a pool of 16 trial point group operations.


The static configuration has the point symmetry C_1 .


Analysis of symmetry for dynamics (positions and initial velocities):
=====================================================================
 Subroutine PRICEL returns:
 Original cell was already a primitive cell.
 

 Routine SETGRP: Setting up the symmetry group for a 
 simple tetragonal supercell.


 Subroutine GETGRP returns: Found  1 space group operations
 (whereof  1 operations were pure point group operations)
 out of a pool of 16 trial point group operations.


The dynamic configuration has the point symmetry C_1 .


 Subroutine INISYM returns: Found  1 space group operations
 (whereof  1 operations are pure point group operations),
 and found     1 'primitive' translations


----------------------------------------------------------------------------------------

                                     Primitive cell                                     

  volume of cell :    2358.6299

  direct lattice vectors                    reciprocal lattice vectors
    14.582590706  0.000000000  0.000000000     0.068574921  0.000000000  0.000000000
     0.000000000 14.582590706  0.000000000     0.000000000  0.068574921  0.000000000
     0.000000000  0.000000000 11.091503795     0.000000000  0.000000000  0.090159100

  length of vectors
    14.582590706 14.582590706 11.091503795     0.068574921  0.068574921  0.090159100

  position of ions in fractional coordinates (direct lattice)
     0.360069764  0.519209525  0.472914232
     0.470986956  0.331172293  0.522804672
     0.617196230  0.703359246  0.204369042
     0.498665851  0.314657395  0.582780308
     0.571029536  0.404692837  0.106329135
     0.545180219  0.379303658  0.775668490
     0.405083028  0.306726705  0.908190646
     0.635659341  0.575387472  0.180257793
     0.507336464  0.252413311  0.015424239
     0.419989844  0.540396433  0.911165897
     0.785539431  0.659536443  0.423034612
     0.524338244  0.461594249  0.385429251
     0.633403226  0.689507112  0.827115076
     0.540438264  0.254574107  0.383773930
     0.490784535  0.718288006  0.445898058
     0.555613208  0.504433002  0.634372050
     0.501684519  0.431840276  0.432569838
     0.531816339  0.471264684  0.595882229
     0.455501367  0.511719773  0.066439052
     0.422654666  0.495281678  0.108573195
     0.423872556  0.338273226  0.279720411
     0.286405213  0.392095624  0.564840450
     0.375462777  0.558342490  0.513557053
     0.613430781  0.135395009  0.606990731
     0.313265324  0.527505034  0.161398313
     0.542144408  0.632328657  0.980624467
     0.587918853  0.382515707  0.165999132
     0.667910812  0.567563759  0.130983141
     0.698236699  0.314121139  0.947527062
     0.521851717  0.412350598  0.815617086
     0.247239333  0.497858038  0.861570277
     0.740307413  0.461646366  0.303596344
     0.526194567  0.598504078  0.748364708
     0.424402640  0.703647260  0.150013923
     0.714996410  0.317479253  0.297774771
     0.405456076  0.166608941  0.660556957
     0.099939032  0.408864935  0.464755735
     0.508113418  0.977844081  0.953125942
     0.715366714  0.879644794  0.744972923
     0.913431658  0.383295404  0.237812658
     0.983666091  0.529200206  0.243199664
     0.209481982  0.879733942  0.560994263
     0.775582352  0.940059299  0.017569664
     0.678424719  0.783262743  0.220274008
     0.417236561  0.789023037  0.465925099
     0.418376962  0.870716340  0.282448625
     0.404304017  0.095600297  0.560004316
     0.213822774  0.504980915  0.148185497
     0.976150280  0.162826349  0.385169593
     0.305358636  0.281745547  0.931550869
     0.200642674  0.730706924  0.164753133
     0.519286329  0.195176568  0.122121403
     0.190968125  0.293427971  0.776619668
     0.577527009  0.907973094  0.254670607
     0.160118325  0.677586048  0.373933966
     0.898180595  0.578533689  0.401290040
     0.950900994  0.980244203  0.718541881
     0.004631303  0.873287899  0.012938101
     0.773669112  0.782638711  0.055435405
     0.744764783  0.082405796  0.320667068
     0.237874056  0.897892581  0.906171082
     0.251287996  0.700239087  0.726946512
     0.155728159  0.869962015  0.082433998
     0.975923983  0.709860148  0.689113951
     0.994583219  0.455954647  0.620102569
     0.183837704  0.571955983  0.843026354
     0.321753528  0.968346454  0.639823971
     0.132158273  0.961406672  0.413218089
     0.635093598  0.001108651  0.096043784
     0.359388130  0.777036140  0.133096470
     0.102480419  0.399780129  0.883797200
     0.148962557  0.621187976  0.027830852
     0.765021814  0.770110073  0.397121083
     0.340153550  0.003369861  0.241739087
     0.950702127  0.314913865  0.720831021
     0.132948942  0.525674769  0.318750285
     0.747795794  0.886858876  0.536269032
     0.995179820  0.165026918  0.008481726
     0.889773310  0.282069221  0.058703401
     0.143870183  0.129018913  0.108956371
     0.725159213  0.732558447  0.847795770
     0.972248367  0.940882198  0.366697796
     0.924513365  0.767031060  0.115270213
     0.285200352  0.125352898  0.966947332
     0.458528264  0.244668459  0.300897882
     0.056332103  0.203074341  0.811529272
     0.886721726  0.984770147  0.536133793
     0.916195227  0.796415413  0.332131699
     0.219443860  0.209727480  0.418185855
     0.353019577  0.128516944  0.371918910
     0.726201552  0.156522942  0.808800156
     0.995659845  0.627874030  0.068832776
     0.894710704  0.051481250  0.252284997
     0.777118430  0.376145097  0.551219214
     0.185561678  0.992320246  0.217684639
     0.786568054  0.376839076  0.351280590
     0.271062260  0.731468106  0.511709693
     0.484431754  0.611598459  0.868430483
     0.671750322  0.149217656  0.140485008
     0.028228180  0.300089339  0.338612335
     0.927942111  0.551046804  0.905729303
     0.751450838  0.234358906  0.986620047
     0.209868744  0.327570052  0.560992460
     0.999602903  0.696186309  0.451597014
     0.648088545  0.987568004  0.420542614
     0.234348619  0.032291656  0.804893562
     0.009613930  0.840337650  0.796071494
     0.840063350  0.145985720  0.484876541
     0.102697801  0.104268167  0.490061591
     0.842456615  0.636241542  0.754317913
     0.448212539  0.854347506  0.656173422
     0.399395424  0.747480350  0.807422525
     0.045197799  0.565762296  0.750415828
     0.847928893  0.518250848  0.593079182
     0.388420008  0.858660868  0.958346154
     0.155612953  0.256374884  0.221667868
     0.793329542  0.009517513  0.826883367
     0.563602872  0.049501698  0.588577538
     0.946039032  0.396752547  0.905828478
     0.808251444  0.244632115  0.649625167
     0.919116518  0.017691575  0.044442125
     0.191212937  0.364564165  0.060577629
     0.566815607  0.943748630  0.749241956
     0.156455053  0.834577356  0.746264001
     0.410828921  0.067941563  0.065519249
     0.086860423  0.073580890  0.704953101

  ion indices of the primitive-cell ions
   primitive index   ion index
                 1           1
                 2           2
                 3           3
                 4           4
                 5           5
                 6           6
                 7           7
                 8           8
                 9           9
                10          10
                11          11
                12          12
                13          13
                14          14
                15          15
                16          16
                17          17
                18          18
                19          19
                20          20
                21          21
                22          22
                23          23
                24          24
                25          25
                26          26
                27          27
                28          28
                29          29
                30          30
                31          31
                32          32
                33          33
                34          34
                35          35
                36          36
                37          37
                38          38
                39          39
                40          40
                41          41
                42          42
                43          43
                44          44
                45          45
                46          46
                47          47
                48          48
                49          49
                50          50
                51          51
                52          52
                53          53
                54          54
                55          55
                56          56
                57          57
                58          58
                59          59
                60          60
                61          61
                62          62
                63          63
                64          64
                65          65
                66          66
                67          67
                68          68
                69          69
                70          70
                71          71
                72          72
                73          73
                74          74
                75          75
                76          76
                77          77
                78          78
                79          79
                80          80
                81          81
                82          82
                83          83
                84          84
                85          85
                86          86
                87          87
                88          88
                89          89
                90          90
                91          91
                92          92
                93          93
                94          94
                95          95
                96          96
                97          97
                98          98
                99          99
               100         100
               101         101
               102         102
               103         103
               104         104
               105         105
               106         106
               107         107
               108         108
               109         109
               110         110
               111         111
               112         112
               113         113
               114         114
               115         115
               116         116
               117         117
               118         118
               119         119
               120         120
               121         121
               122         122
               123         123
               124         124
               125         125
               126         126

----------------------------------------------------------------------------------------


 -----------------------------------------------------------------------------
|                                                                             |
|           W    W    AA    RRRRR   N    N  II  N    N   GGGG   !!!           |
|           W    W   A  A   R    R  NN   N  II  NN   N  G    G  !!!           |
|           W    W  A    A  R    R  N N  N  II  N N  N  G       !!!           |
|           W WW W  AAAAAA  RRRRR   N  N N  II  N  N N  G  GGG   !            |
|           WW  WW  A    A  R   R   N   NN  II  N   NN  G    G                |
|           W    W  A    A  R    R  N    N  II  N    N   GGGG   !!!           |
|                                                                             |
|     The requested file  could not be found or opened for reading            |
|     k-point information. Automatic k-point generation is used as a          |
|     fallback, which may lead to unwanted results.                           |
|                                                                             |
 -----------------------------------------------------------------------------



Automatic generation of k-mesh.
 Grid dimensions derived from KSPACING:
 generate k-points for:    2    2    3

 Generating k-lattice:

  Cartesian coordinates                     Fractional coordinates (reciprocal lattice)
     0.034287460  0.000000000  0.000000000     0.500000000  0.000000000  0.000000000
     0.000000000  0.034287460  0.000000000     0.000000000  0.500000000  0.000000000
     0.000000000  0.000000000  0.030053033     0.000000000  0.000000000  0.333333333

  Length of vectors
     0.034287460  0.034287460  0.030053033

  Shift w.r.t. Gamma in fractional coordinates (k-lattice)
     0.000000000  0.000000000  0.000000000

 
 Subroutine IBZKPT returns following result:
 ===========================================
 
 Found      8 irreducible k-points:
 
 Following reciprocal coordinates:
            Coordinates               Weight
  0.000000  0.000000  0.000000      1.000000
  0.500000  0.000000  0.000000      1.000000
  0.000000  0.500000  0.000000      1.000000
  0.500000  0.500000  0.000000      1.000000
  0.000000  0.000000  0.333333      2.000000
  0.500000  0.000000  0.333333      2.000000
  0.000000  0.500000  0.333333      2.000000
  0.500000  0.500000  0.333333      2.000000
 
 Following cartesian coordinates:
            Coordinates               Weight
  0.000000  0.000000  0.000000      1.000000
  0.034287  0.000000  0.000000      1.000000
  0.000000  0.034287  0.000000      1.000000
  0.034287  0.034287  0.000000      1.000000
  0.000000  0.000000  0.030053      2.000000
  0.034287  0.000000  0.030053      2.000000
  0.000000  0.034287  0.030053      2.000000
  0.034287  0.034287  0.030053      2.000000
 


--------------------------------------------------------------------------------------------------------




 Dimension of arrays:
   k-points           NKPTS =      8   k-points in BZ     NKDIM =      8   number of bands    NBANDS=    264
   number of dos      NEDOS =   2000   number of ions     NIONS =    126
   non local maximal  LDIM  =      4   non local SUM 2l+1 LMDIM =      8
   total plane-waves  NPLWV = ******
   max r-space proj   IRMAX =      1   max aug-charges    IRDMAX= 403444
   dimension x,y,z NGX =   168 NGY =  168 NGZ =  126
   dimension x,y,z NGXF=   336 NGYF=  336 NGZF=  252
   support grid    NGXF=   672 NGYF=  672 NGZF=  504
   ions per type =              36  90
   NGX,Y,Z   is equivalent  to a cutoff of  19.15, 19.15, 18.89 a.u.
   NGXF,Y,Z  is equivalent  to a cutoff of  38.31, 38.31, 37.77 a.u.

 SYSTEM =  a-Si SPC                                
 POSCAR =   H Si                                   

 Startparameter for this run:
   NWRITE =      2    write-flag & timer
   PREC   = accura    normal or accurate (medium, high low for compatibility)
   ISTART =      1    job   : 0-new  1-cont  2-samecut
   ICHARG =      1    charge: 1-file 2-atom 10-const
   ISPIN  =      1    spin polarized calculation?
   LNONCOLLINEAR =      F non collinear calculations
   LSORBIT =      F    spin-orbit coupling
   INIWAV =      1    electr: 0-lowe 1-rand  2-diag
   LASPH  =      T    aspherical Exc in radial PAW
 Electronic Relaxation 1
   ENCUT  = 1200.0 eV  88.20 Ry    9.39 a.u.  41.19 41.19 31.33*2*pi/ulx,y,z
   ENINI  = 1200.0     initial cutoff
   ENAUG  =  400.0 eV  augmentation charge cutoff
   NELM   =    150;   NELMIN=  2; NELMDL=  0     # of ELM steps 
   EDIFF  = 0.1E-05   stopping-criterion for ELM
   LREAL  =      F    real-space projection
   NLSPLINE    = F    spline interpolate recip. space projectors
   LCOMPAT=      F    compatible to vasp.4.4
   GGA_COMPAT  = T    GGA compatible to vasp.4.4-vasp.4.6
   LMAXPAW     = -100 max onsite density
   LMAXMIX     =    2 max onsite mixed and CHGCAR
   VOSKOWN=      0    Vosko Wilk Nusair interpolation
   ROPT   =    0.00000   0.00000
 Ionic relaxation
   EDIFFG = -.1E-01   stopping-criterion for IOM
   NSW    =      0    number of steps for IOM
   NBLOCK =      1;   KBLOCK =      1    inner block; outer block 
   IBRION =     -1    ionic relax: 0-MD 1-quasi-New 2-CG
   NFREE  =      0    steps in history (QN), initial steepest desc. (CG)
   ISIF   =      2    stress and relaxation
   IWAVPR =     10    prediction:  0-non 1-charg 2-wave 3-comb
   ISYM   =      1    0-nonsym 1-usesym 2-fastsym
   LCORR  =      T    Harris-Foulkes like correction to forces

   POTIM  = 0.5000    time-step for ionic-motion
   TEIN   =    0.0    initial temperature
   TEBEG  =    0.0;   TEEND  =   0.0 temperature during run
   SMASS  =  -3.00    Nose mass-parameter (am)
   estimated Nose-frequenzy (Omega)   =  0.10E-29 period in steps = 0.13E+47 mass=  -0.486E-26a.u.
   SCALEE = 1.0000    scale energy and forces
   NPACO  =    256;   APACO  = 10.0  distance and # of slots for P.C.
   PSTRESS=    0.0 pullay stress

  Mass of Ions in am
   POMASS =   1.00 28.09
  Ionic Valenz
   ZVAL   =   1.00  4.00
  Atomic Wigner-Seitz radii
   RWIGS  =  -1.00 -1.00
  virtual crystal weights 
   VCA    =   1.00  1.00
   NELECT =     396.0000    total number of electrons
   NUPDOWN=      -1.0000    fix difference up-down

 DOS related values:
   EMIN   =  10.00;   EMAX   =-10.00  energy-range for DOS
   EFERMI =   0.00;   METHOD = LEGACY      
   ISMEAR =     0;   SIGMA  =   0.10  broadening in eV -4-tet -1-fermi 0-gaus
   EFERMI_NEDOS =   21; number of points for ismear=-14 and -15

 Electronic relaxation 2 (details)
   IALGO  =     38    algorithm
   LDIAG  =      F    sub-space diagonalisation (order eigenvalues)
   LSUBROT=      F    optimize rotation matrix (better conditioning)
   TURBO    =      0    0=normal 1=particle mesh
   IRESTART =      0    0=no restart 2=restart with 2 vectors
   NREBOOT  =      0    no. of reboots
   NMIN     =      0    reboot dimension
   EREF     =   0.00    reference energy to select bands
   IMIX   =      4    mixing-type and parameters
     AMIX     =   0.40;   BMIX     =  1.00
     AMIX_MAG =   1.60;   BMIX_MAG =  1.00
     AMIN     =   0.10
     WC   =   100.;   INIMIX=   1;  MIXPRE=   1;  MAXMIX= -45

 Intra band minimization:
   WEIMIN = 0.0000     energy-eigenvalue tresh-hold
   EBREAK =  0.95E-09  absolut break condition
   DEPER  =   0.30     relativ break condition  

   TIME   =   0.40     timestep for ELM

  volume/ion in A,a.u.               =      18.72       126.32
  Fermi-wavevector in a.u.,A,eV,Ry     =   0.903136  1.706680 11.097662  0.815655
  Thomas-Fermi vector in A             =   2.026425

 Write flags
   LWAVE        =      F    write WAVECAR
   LDOWNSAMPLE  =      F    k-point downsampling of WAVECAR
   LCHARG       =      F    write CHGCAR
   LVTOT        =      F    write LOCPOT, total local potential
   LVHAR        =      F    write LOCPOT, Hartree potential only
   WRT_POTENTIAL= false  ! write potential to hdf5 file
   LELF         =      F    write electronic localiz. function (ELF)
   LORBIT       =     11    0 simple, 1 ext, 2 COOP (PROOUT), +10 PAW based schemes


 Python interface
   PLUGINS active      =      F    recompile with -DPLUGINS to activate

 Dipole corrections
   LMONO      =      F    monopole corrections only (constant potential shift)
   LDIPOL     =      F    correct potential (dipole corrections)
   IDIPOL     =      0    1-x, 2-y, 3-z, 4-all directions 
   EPSILON    =  1.0000000 bulk dielectric constant
   LVACPOTAV  =      F  vacuum potentials using an averaging scheme for the charge density
   VACPOTFLAT =  0.1000000 required flatness to determine vacuum potential

Coulomb truncation method
  LTRUNCATE          =      F  Coulomb kernel truncation to be used
  IDIMENSIONALITY    =      3  Dimensionality of cutoff (0 molecules / 2 surfaces)
  ISURFACE           =     -1  Direction of surface normal
  LCOARSEN           =      F  Coarsen the charge grid before padding, preferred


 Exchange correlation treatment:
   METAGGA = SCAN    functional components
   XC_C    = 1    coefficients multiplying the functional components
   LIBXC   =     F    Libxc                    
   VOSKOWN =     0    Vosko Wilk Nusair interpolation
   LHFCALC =     F    Hartree Fock is set to
   LHFONE  =     F    Hartree Fock one center treatment
   AEXX    =    0.0000 exact exchange contribution

 Parameters of functionals:
   SCAN:
     P1 =  0.000000E+00
     P2 =  0.000000E+00
     P3 =  0.000000E+00

 Accuracy and mixing parameters for tau-dependent meta-GGA functionals:
   LMAXTAU = 6
   LMIXTAU = T

 Van der Waals corrections
   IVDW    =     0    specifies the selected vdW correction

 Linear response parameters
   LEPSILON=     F    determine dielectric tensor
   LRPA    =     F    only Hartree local field effects (RPA)
   LNABLA  =     F    use nabla operator in PAW spheres
   LVEL    =     F    velocity operator in full k-point grid
   CSHIFT  =0.1000    complex shift for real part using Kramers Kronig
   OMEGAMAX=  -1.0    maximum frequency
   DEG_THRESHOLD= 0.2000000E-02 threshold for treating states as degnerate
   RTIME   =   -0.100 relaxation time in fs
  (WPLASMAI=    0.000 imaginary part of plasma frequency in eV, 0.658/RTIME)
   DFIELD  = 0.0000000 0.0000000 0.0000000 field for delta impulse in time

  Optional k-point grid parameters
   LKPOINTS_OPT  =     F    use optional k-point grid
   KPOINTS_OPT_MODE=     1    mode for optional k-point grid

 Orbital magnetization related:
   ORBITALMAG=     F  switch on orbital magnetization
   LCHIMAG   =     F  perturbation theory with respect to B field
   DQ        =  0.001000  dq finite difference perturbation B field
   LLRAUG    =     F  two centre corrections for induced B field
   LBONE     =     F  B-component reconstruction in AE one-centre
   LVGVCALC  =     T  calculate vGv susceptibility
   LVGVAPPL  =     F  apply vGv susceptibility instead of pGv for G=0

 Random number generation:
   RANDOM_GENERATOR = DEFAULT
   PCG_SEED         = not used


--------------------------------------------------------------------------------------------------------


 Static calculation
 charge density and potential will be updated during run
 non-spin polarized calculation
 Variant of blocked Davidson
 perform Loewdin sub-space diagonalisation
    ordering is kept fixed
    before iterative eigenvector-optimisation
 modified Broyden-mixing scheme, WC =      100.0
 initial mixing is a Kerker type mixing with AMIX =  0.4000 and BMIX =      1.0000
 Hartree-type preconditioning will be used
 using additional bands           66
 reciprocal scheme for non local part
 use partial core corrections
 calculate Harris-corrections to forces   (improved forces if not selfconsistent)
 use gradient corrections 
 use of overlap-Matrix (Vanderbilt PP)
 Gauss-broadening in eV      SIGMA  =   0.10


--------------------------------------------------------------------------------------------------------


  energy-cutoff  :     1200.00
  volume of cell :     2358.63
      direct lattice vectors                 reciprocal lattice vectors
    14.582590706  0.000000000  0.000000000     0.068574921  0.000000000  0.000000000
     0.000000000 14.582590706  0.000000000     0.000000000  0.068574921  0.000000000
     0.000000000  0.000000000 11.091503795     0.000000000  0.000000000  0.090159100

  length of vectors
    14.582590706 14.582590706 11.091503795     0.068574921  0.068574921  0.090159100



 old parameters found on file WAVECAR:
  energy-cutoff  :     1200.00
  volume of cell :     2358.63
      direct lattice vectors                 reciprocal lattice vectors
    14.582590706  0.000000000  0.000000000     0.068574921  0.000000000  0.000000000
     0.000000000 14.582590706  0.000000000     0.000000000  0.068574921  0.000000000
     0.000000000  0.000000000 11.091503795     0.000000000  0.000000000  0.090159100

  length of vectors


 k-points in units of 2pi/SCALE and weight: read from INCAR                         
   0.00000000  0.00000000  0.00000000       0.083
   0.03428746  0.00000000  0.00000000       0.083
   0.00000000  0.03428746  0.00000000       0.083
   0.03428746  0.03428746  0.00000000       0.083
   0.00000000  0.00000000  0.03005303       0.167
   0.03428746  0.00000000  0.03005303       0.167
   0.00000000  0.03428746  0.03005303       0.167
   0.03428746  0.03428746  0.03005303       0.167

 k-points in reciprocal lattice and weights: read from INCAR                         
   0.00000000  0.00000000  0.00000000       0.083
   0.50000000  0.00000000  0.00000000       0.083
   0.00000000  0.50000000  0.00000000       0.083
   0.50000000  0.50000000  0.00000000       0.083
   0.00000000  0.00000000  0.33333333       0.167
   0.50000000  0.00000000  0.33333333       0.167
   0.00000000  0.50000000  0.33333333       0.167
   0.50000000  0.50000000  0.33333333       0.167

 position of ions in fractional coordinates (direct lattice) 
   0.36006976  0.51920953  0.47291423
   0.47098696  0.33117229  0.52280467
   0.61719623  0.70335925  0.20436904
   0.49866585  0.31465739  0.58278031
   0.57102954  0.40469284  0.10632913
   0.54518022  0.37930366  0.77566849
   0.40508303  0.30672671  0.90819065
   0.63565934  0.57538747  0.18025779
   0.50733646  0.25241331  0.01542424
   0.41998984  0.54039643  0.91116590
   0.78553943  0.65953644  0.42303461
   0.52433824  0.46159425  0.38542925
   0.63340323  0.68950711  0.82711508
   0.54043826  0.25457411  0.38377393
   0.49078454  0.71828801  0.44589806
   0.55561321  0.50443300  0.63437205
   0.50168452  0.43184028  0.43256984
   0.53181634  0.47126468  0.59588223
   0.45550137  0.51171977  0.06643905
   0.42265467  0.49528168  0.10857319
   0.42387256  0.33827323  0.27972041
   0.28640521  0.39209562  0.56484045
   0.37546278  0.55834249  0.51355705
   0.61343078  0.13539501  0.60699073
   0.31326532  0.52750503  0.16139831
   0.54214441  0.63232866  0.98062447
   0.58791885  0.38251571  0.16599913
   0.66791081  0.56756376  0.13098314
   0.69823670  0.31412114  0.94752706
   0.52185172  0.41235060  0.81561709
   0.24723933  0.49785804  0.86157028
   0.74030741  0.46164637  0.30359634
   0.52619457  0.59850408  0.74836471
   0.42440264  0.70364726  0.15001392
   0.71499641  0.31747925  0.29777477
   0.40545608  0.16660894  0.66055696
   0.09993903  0.40886493  0.46475574
   0.50811342  0.97784408  0.95312594
   0.71536671  0.87964479  0.74497292
   0.91343166  0.38329540  0.23781266
   0.98366609  0.52920021  0.24319966
   0.20948198  0.87973394  0.56099426
   0.77558235  0.94005930  0.01756966
   0.67842472  0.78326274  0.22027401
   0.41723656  0.78902304  0.46592510
   0.41837696  0.87071634  0.28244863
   0.40430402  0.09560030  0.56000432
   0.21382277  0.50498092  0.14818550
   0.97615028  0.16282635  0.38516959
   0.30535864  0.28174555  0.93155087
   0.20064267  0.73070692  0.16475313
   0.51928633  0.19517657  0.12212140
   0.19096812  0.29342797  0.77661967
   0.57752701  0.90797309  0.25467061
   0.16011833  0.67758605  0.37393397
   0.89818060  0.57853369  0.40129004
   0.95090099  0.98024420  0.71854188
   0.00463130  0.87328790  0.01293810
   0.77366911  0.78263871  0.05543540
   0.74476478  0.08240580  0.32066707
   0.23787406  0.89789258  0.90617108
   0.25128800  0.70023909  0.72694651
   0.15572816  0.86996202  0.08243400
   0.97592398  0.70986015  0.68911395
   0.99458322  0.45595465  0.62010257
   0.18383770  0.57195598  0.84302635
   0.32175353  0.96834645  0.63982397
   0.13215827  0.96140667  0.41321809
   0.63509360  0.00110865  0.09604378
   0.35938813  0.77703614  0.13309647
   0.10248042  0.39978013  0.88379720
   0.14896256  0.62118798  0.02783085
   0.76502181  0.77011007  0.39712108
   0.34015355  0.00336986  0.24173909
   0.95070213  0.31491386  0.72083102
   0.13294894  0.52567477  0.31875029
   0.74779579  0.88685888  0.53626903
   0.99517982  0.16502692  0.00848173
   0.88977331  0.28206922  0.05870340
   0.14387018  0.12901891  0.10895637
   0.72515921  0.73255845  0.84779577
   0.97224837  0.94088220  0.36669780
   0.92451336  0.76703106  0.11527021
   0.28520035  0.12535290  0.96694733
   0.45852826  0.24466846  0.30089788
   0.05633210  0.20307434  0.81152927
   0.88672173  0.98477015  0.53613379
   0.91619523  0.79641541  0.33213170
   0.21944386  0.20972748  0.41818586
   0.35301958  0.12851694  0.37191891
   0.72620155  0.15652294  0.80880016
   0.99565984  0.62787403  0.06883278
   0.89471070  0.05148125  0.25228500
   0.77711843  0.37614510  0.55121921
   0.18556168  0.99232025  0.21768464
   0.78656805  0.37683908  0.35128059
   0.27106226  0.73146811  0.51170969
   0.48443175  0.61159846  0.86843048
   0.67175032  0.14921766  0.14048501
   0.02822818  0.30008934  0.33861234
   0.92794211  0.55104680  0.90572930
   0.75145084  0.23435891  0.98662005
   0.20986874  0.32757005  0.56099246
   0.99960290  0.69618631  0.45159701
   0.64808855  0.98756800  0.42054261
   0.23434862  0.03229166  0.80489356
   0.00961393  0.84033765  0.79607149
   0.84006335  0.14598572  0.48487654
   0.10269780  0.10426817  0.49006159
   0.84245661  0.63624154  0.75431791
   0.44821254  0.85434751  0.65617342
   0.39939542  0.74748035  0.80742253
   0.04519780  0.56576230  0.75041583
   0.84792889  0.51825085  0.59307918
   0.38842001  0.85866087  0.95834615
   0.15561295  0.25637488  0.22166787
   0.79332954  0.00951751  0.82688337
   0.56360287  0.04950170  0.58857754
   0.94603903  0.39675255  0.90582848
   0.80825144  0.24463211  0.64962517
   0.91911652  0.01769158  0.04444213
   0.19121294  0.36456416  0.06057763
   0.56681561  0.94374863  0.74924196
   0.15645505  0.83457736  0.74626400
   0.41082892  0.06794156  0.06551925
   0.08686042  0.07358089  0.70495310

 position of ions in cartesian coordinates  (Angst):
   5.25075000  7.57142000  5.24533000
   6.86821000  4.82935000  5.79869000
   9.00032000 10.25680000  2.26676000
   7.27184000  4.58852000  6.46391000
   8.32709000  5.90147000  1.17935000
   7.95014000  5.53123000  8.60333000
   5.90716000  4.47287000 10.07320000
   9.26956000  8.39064000  1.99933000
   7.39828000  3.68084000  0.17107800
   6.12454000  7.88038000 10.10620000
  11.45520000  9.61775000  4.69209000
   7.64621000  6.73124000  4.27499000
   9.23666000 10.05480000  9.17395000
   7.88099000  3.71235000  4.25663000
   7.15691000 10.47450000  4.94568000
   8.10228000  7.35594000  7.03614000
   7.31586000  6.29735000  4.79785000
   7.75526000  6.87226000  6.60923000
   6.64239000  7.46220000  0.73690900
   6.16340000  7.22249000  1.20424000
   6.18116000  4.93290000  3.10252000
   4.17653000  5.71777000  6.26493000
   5.47522000  8.14208000  5.69612000
   8.94541000  1.97441000  6.73244000
   4.56822000  7.69239000  1.79015000
   7.90587000  9.22099000 10.87660000
   8.57338000  5.57807000  1.84118000
   9.73987000  8.27655000  1.45280000
  10.18210000  4.58070000 10.50950000
   7.60995000  6.01314000  9.04642000
   3.60539000  7.26006000  9.55611000
  10.79560000  6.73200000  3.36734000
   7.67328000  8.72774000  8.30049000
   6.18889000 10.26100000  1.66388000
  10.42650000  4.62967000  3.30277000
   5.91260000  2.42959000  7.32657000
   1.45737000  5.96231000  5.15484000
   7.40961000 14.25950000 10.57160000
  10.43190000 12.82750000  8.26287000
  13.32020000  5.58944000  2.63770000
  14.34440000  7.71711000  2.69745000
   3.05479000 12.82880000  6.22227000
  11.31000000 13.70850000  0.19487400
   9.89319000 11.42200000  2.44317000
   6.08439000 11.50600000  5.16781000
   6.10102000 12.69730000  3.13278000
   5.89580000  1.39410000  6.21129000
   3.11809000  7.36393000  1.64360000
  14.23480000  2.37443000  4.27211000
   4.45292000  4.10858000 10.33230000
   2.92589000 10.65560000  1.82736000
   7.57254000  2.84618000  1.35451000
   2.78481000  4.27894000  8.61388000
   8.42184000 13.24060000  2.82468000
   2.33494000  9.88096000  4.14749000
  13.09780000  8.43652000  4.45091000
  13.86660000 14.29450000  7.96971000
   0.06753640 12.73480000  0.14350300
  11.28210000 11.41290000  0.61486200
  10.86060000  1.20169000  3.55668000
   3.46882000 13.09360000 10.05080000
   3.66443000 10.21130000  8.06293000
   2.27092000 12.68630000  0.91431700
  14.23150000 10.35160000  7.64331000
  14.50360000  6.64900000  6.87787000
   2.68083000  8.34060000  9.35043000
   4.69200000 14.12100000  7.09661000
   1.92721000 14.01980000  4.58321000
   9.26131000  0.01616700  1.06527000
   5.24081000 11.33120000  1.47624000
   1.49443000  5.82983000  9.80264000
   2.17226000  9.05853000  0.30868600
  11.15600000 11.23020000  4.40467000
   4.96032000  0.04914130  2.68125000
  13.86370000  4.59226000  7.99510000
   1.93874000  7.66570000  3.53542000
  10.90480000 12.93270000  5.94803000
  14.51230000  2.40652000  0.09407510
  12.97520000  4.11330000  0.65110900
   2.09800000  1.88143000  1.20849000
  10.57470000 10.68260000  9.40333000
  14.17790000 13.72050000  4.06723000
  13.48180000 11.18530000  1.27852000
   4.15896000  1.82797000 10.72490000
   6.68653000  3.56790000  3.33741000
   0.82146800  2.96135000  9.00108000
  12.93070000 14.36050000  5.94653000
  13.36050000 11.61380000  3.68384000
   3.20006000  3.05837000  4.63831000
   5.14794000  1.87411000  4.12514000
  10.58990000  2.28251000  8.97081000
  14.51930000  9.15603000  0.76345900
  13.04720000  0.75073000  2.79822000
  11.33240000  5.48517000  6.11385000
   2.70597000 14.47060000  2.41445000
  11.47020000  5.49529000  3.89623000
   3.95279000 10.66670000  5.67563000
   7.06427000  8.91869000  9.63220000
   9.79586000  2.17598000  1.55819000
   0.41164000  4.37608000  3.75572000
  13.53180000  8.03569000 10.04590000
  10.95810000  3.41756000 10.94310000
   3.06043000  4.77682000  6.22225000
  14.57680000 10.15220000  5.00889000
   9.45081000 14.40130000  4.66445000
   3.41741000  0.47089600  8.92748000
   0.14019600 12.25430000  8.82963000
  12.25030000  2.12885000  5.37801000
   1.49760000  1.52050000  5.43552000
  12.28520000  9.27805000  8.36652000
   6.53610000 12.45860000  7.27795000
   5.82422000 10.90020000  8.95553000
   0.65910100  8.25028000  8.32324000
  12.36500000  7.55744000  6.57814000
   5.66417000 12.52150000 10.62950000
   2.26924000  3.73861000  2.45863000
  11.56880000  0.13879000  9.17138000
   8.21879000  0.72186300  6.52821000
  13.79570000  5.78568000 10.04700000
  11.78640000  3.56737000  7.20532000
  13.40310000  0.25798900  0.49293000
   2.78838000  5.31629000  0.67189700
   8.26564000 13.76230000  8.31022000
   2.28152000 12.17030000  8.27719000
   5.99095000  0.99076400  0.72670700
   1.26665000  1.07300000  7.81899000



--------------------------------------------------------------------------------------------------------


 k-point     1 :   0.0000 0.0000 0.0000  plane waves:  222503
 k-point     2 :   0.5000 0.0000 0.0000  plane waves:  222642
 k-point     3 :   0.0000 0.5000 0.0000  plane waves:  222642
 k-point     4 :   0.5000 0.5000 0.0000  plane waves:  222652
 k-point     5 :   0.0000 0.0000 0.3333  plane waves:  222682
 k-point     6 :   0.5000 0.0000 0.3333  plane waves:  222580
 k-point     7 :   0.0000 0.5000 0.3333  plane waves:  222580
 k-point     8 :   0.5000 0.5000 0.3333  plane waves:  222644

 maximum and minimum number of plane-waves per node :     13964    13824

 maximum number of plane-waves:    222682
 maximum index in each direction: 
   IXMAX=   41   IYMAX=   41   IZMAX=   31
   IXMIN=  -41   IYMIN=  -41   IZMIN=  -31


 parallel 3D FFT for wavefunctions:
    minimum data exchange during FFTs selected (reduces bandwidth)
 parallel 3D FFT for charge:
    minimum data exchange during FFTs selected (reduces bandwidth)


 total amount of memory used by VASP MPI-rank0   207719. kBytes
=======================================================================

   base                                    :      30000. kBytes
   nonl-proj                               :      42389. kBytes
   fftplans                                :      42989. kBytes
   grid                                    :      33148. kBytes
   one-center                              :         24. kBytes
   wavefun                                 :      59169. kBytes

     INWAV:  cpu time     11.6312: real time     11.6375
 Broyden mixing: mesh for mixing (old mesh)
   NGX = 83   NGY = 83   NGZ = 63
  (NGX  =336   NGY  =336   NGZ  =252)
  gives a total of 434007 points

 initial charge density was supplied:
 number of electron     395.9999999 magnetization 
 keeping initial charge density in first step


--------------------------------------------------------------------------------------------------------


 Maximum index for augmentation-charges        11296 (set IRDMAX)


--------------------------------------------------------------------------------------------------------


 First call to EWALD:  gamma=   0.133
 Maximum number of real-space cells   3x   3x   3
 Maximum number of reciprocal cells   3x   3x   2

    FEWALD:  cpu time      0.0218: real time      0.0219


--------------------------------------- Ionic step        1  -------------------------------------------




--------------------------------------- Iteration      1(   1)  ---------------------------------------


    POTLOK:  cpu time      0.7613: real time      0.7620
    SETDIJ:  cpu time      1.5243: real time      1.5254
    EDDIAG:  cpu time     23.7532: real time     23.7729
     EDDAV:  cpu time    119.4539: real time    119.5575
       DOS:  cpu time      0.0099: real time      0.0101
    CHARGE:  cpu time     10.7971: real time     10.8072
    MIXING:  cpu time      0.0248: real time      0.0251
    --------------------------------------------
      LOOP:  cpu time    156.3245: real time    156.4602

 eigenvalue-minimisations  :  4568
 total energy-change (2. order) :-0.1063291E+04  (-0.1144609E+01)
 number of electron     395.9999999 magnetization 
 augmentation part      -19.3221544 magnetization 

 Broyden mixing:
  rms(total) = 0.12448E+01    rms(broyden)= 0.47909E+02
  rms(prec ) = 0.13403E+01
  weight for this iteration     100.00
  WARNING: grid for Broyden might be to small

 Free energy of the ion-electron system (eV)
  ---------------------------------------------------
  alpha Z        PSCENC =       141.89105937
  Ewald energy   TEWEN  =     -7531.68192625
  -Hartree energ DENC   =     -3216.75737165
  -exchange      EXHF   =         0.00000000
  -V(xc)+E(xc)   XCENC  =      -320.82308787
  PAW double counting   =     36738.20393381   -35842.19907924
  entropy T*S    EENTRO =        -0.07914700
  eigenvalues    EBANDS =      -757.44138071
  atomic energy  EATOM  =      9725.59625505
  Solvation  Ediel_sol  =         0.00000000
  ---------------------------------------------------
  free energy    TOTEN  =     -1063.29074449 eV

  energy without entropy =    -1063.21159749  energy(sigma->0) =    -1063.25117099


--------------------------------------------------------------------------------------------------------




--------------------------------------- Iteration      1(   2)  ---------------------------------------


    POTLOK:  cpu time      0.7492: real time      0.7717
    SETDIJ:  cpu time      1.5157: real time      1.5163
    EDDIAG:  cpu time     23.8675: real time     23.8872
     EDDAV:  cpu time    115.6150: real time    115.7156
       DOS:  cpu time      0.0038: real time      0.0038
    CHARGE:  cpu time     10.7433: real time     10.7528
    MIXING:  cpu time      0.0174: real time      0.0175
    --------------------------------------------
      LOOP:  cpu time    152.5120: real time    152.6649

 eigenvalue-minimisations  :  4304
 total energy-change (2. order) : 0.7077846E+02  (-0.1124114E+01)
 number of electron     395.9999999 magnetization 
 augmentation part      -19.2472962 magnetization 

 Broyden mixing:
  rms(total) = 0.83013E+00    rms(broyden)= 0.27545E+02
  rms(prec ) = 0.87833E+00
  weight for this iteration     100.00
  WARNING: grid for Broyden might be to small

 eigenvalues of (default mixing * dielectric matrix)
  average eigenvalue GAMMA=   0.6350
  0.6350

 Free energy of the ion-electron system (eV)
  ---------------------------------------------------
  alpha Z        PSCENC =       141.89105937
  Ewald energy   TEWEN  =     -7531.68192625
  -Hartree energ DENC   =     -3205.16464689
  -exchange      EXHF   =         0.00000000
  -V(xc)+E(xc)   XCENC  =      -313.33802025
  PAW double counting   =     43979.55624267   -43083.25907723
  entropy T*S    EENTRO =        -0.07377617
  eigenvalues    EBANDS =      -706.03839021
  atomic energy  EATOM  =      9725.59625505
  Solvation  Ediel_sol  =         0.00000000
  ---------------------------------------------------
  free energy    TOTEN  =      -992.51227991 eV

  energy without entropy =     -992.43850374  energy(sigma->0) =     -992.47539183


--------------------------------------------------------------------------------------------------------




--------------------------------------- Iteration      1(   3)  ---------------------------------------


    POTLOK:  cpu time      0.7497: real time      0.7731
    SETDIJ:  cpu time      1.5120: real time      1.5126
    EDDIAG:  cpu time     24.0197: real time     24.0400
     EDDAV:  cpu time    114.1418: real time    114.2475
       DOS:  cpu time      0.0043: real time      0.0043
    CHARGE:  cpu time     10.7288: real time     10.7389
    MIXING:  cpu time      0.0147: real time      0.0147
    --------------------------------------------
      LOOP:  cpu time    151.1710: real time    151.3311

 eigenvalue-minimisations  :  4224
 total energy-change (2. order) :-0.2879650E+01  (-0.7903942E+00)
 number of electron     395.9999999 magnetization 
 augmentation part      -19.1952612 magnetization 

 Broyden mixing:
  rms(total) = 0.47266E+00    rms(broyden)= 0.22336E+02
  rms(prec ) = 0.52626E+00
  weight for this iteration     100.00
  WARNING: grid for Broyden might be to small

 eigenvalues of (default mixing * dielectric matrix)
  average eigenvalue GAMMA=   0.7085
  0.7930  0.6240

 Free energy of the ion-electron system (eV)
  ---------------------------------------------------
  alpha Z        PSCENC =       141.89105937
  Ewald energy   TEWEN  =     -7531.68192625
  -Hartree energ DENC   =     -3209.73068982
  -exchange      EXHF   =         0.00000000
  -V(xc)+E(xc)   XCENC  =      -317.30887857
  PAW double counting   =     50083.36024426   -49187.14836091
  entropy T*S    EENTRO =        -0.07835353
  eigenvalues    EBANDS =      -700.29127962
  atomic energy  EATOM  =      9725.59625505
  Solvation  Ediel_sol  =         0.00000000
  ---------------------------------------------------
  free energy    TOTEN  =      -995.39193001 eV

  energy without entropy =     -995.31357649  energy(sigma->0) =     -995.35275325


--------------------------------------------------------------------------------------------------------




--------------------------------------- Iteration      1(   4)  ---------------------------------------


    POTLOK:  cpu time      0.7472: real time      0.7696
    SETDIJ:  cpu time      1.5121: real time      1.5127
    EDDIAG:  cpu time     23.8824: real time     23.9042
     EDDAV:  cpu time    118.7858: real time    118.8961
       DOS:  cpu time      0.0059: real time      0.0059
    CHARGE:  cpu time     10.6971: real time     10.7073
    MIXING:  cpu time      0.0147: real time      0.0147
    --------------------------------------------
      LOOP:  cpu time    155.6452: real time    155.8106

 eigenvalue-minimisations  :  4512
 total energy-change (2. order) :-0.2683301E+00  (-0.8097494E-01)
 number of electron     395.9999999 magnetization 
 augmentation part      -19.1843191 magnetization 

 Broyden mixing:
  rms(total) = 0.34690E-01    rms(broyden)= 0.26584E+01
  rms(prec ) = 0.48315E-01
  weight for this iteration     100.00
  WARNING: grid for Broyden might be to small

 eigenvalues of (default mixing * dielectric matrix)
  average eigenvalue GAMMA=   1.0378
  1.7904  0.7024  0.6207

 Free energy of the ion-electron system (eV)
  ---------------------------------------------------
  alpha Z        PSCENC =       141.89105937
  Ewald energy   TEWEN  =     -7531.68192625
  -Hartree energ DENC   =     -3216.98890841
  -exchange      EXHF   =         0.00000000
  -V(xc)+E(xc)   XCENC  =      -317.13377325
  PAW double counting   =     58620.60175879   -57724.45384051
  entropy T*S    EENTRO =        -0.07705579
  eigenvalues    EBANDS =      -693.41382915
  atomic energy  EATOM  =      9725.59625505
  Solvation  Ediel_sol  =         0.00000000
  ---------------------------------------------------
  free energy    TOTEN  =      -995.66026015 eV

  energy without entropy =     -995.58320436  energy(sigma->0) =     -995.62173225


--------------------------------------------------------------------------------------------------------




--------------------------------------- Iteration      1(   5)  ---------------------------------------


    POTLOK:  cpu time      0.7502: real time      0.7727
    SETDIJ:  cpu time      1.5130: real time      1.5136
    EDDIAG:  cpu time     23.9263: real time     23.9462
     EDDAV:  cpu time    130.6025: real time    130.7225
       DOS:  cpu time      0.0046: real time      0.0046
    CHARGE:  cpu time     10.6526: real time     10.6617
    MIXING:  cpu time      0.0149: real time      0.0149
    --------------------------------------------
      LOOP:  cpu time    167.4641: real time    167.6360

 eigenvalue-minimisations  :  5248
 total energy-change (2. order) :-0.3333186E-01  (-0.5144511E-02)
 number of electron     395.9999999 magnetization 
 augmentation part      -19.1860984 magnetization 

 Broyden mixing:
  rms(total) = 0.24682E-01    rms(broyden)= 0.53623E+00
  rms(prec ) = 0.28548E-01
  weight for this iteration     100.00
  WARNING: grid for Broyden might be to small

 eigenvalues of (default mixing * dielectric matrix)
  average eigenvalue GAMMA=   1.1779
  2.5365  0.9054  0.6348  0.6348

 Free energy of the ion-electron system (eV)
  ---------------------------------------------------
  alpha Z        PSCENC =       141.89105937
  Ewald energy   TEWEN  =     -7531.68192625
  -Hartree energ DENC   =     -3217.25487669
  -exchange      EXHF   =         0.00000000
  -V(xc)+E(xc)   XCENC  =      -318.23140551
  PAW double counting   =     58293.23547533   -57397.05980134
  entropy T*S    EENTRO =        -0.07605309
  eigenvalues    EBANDS =      -692.11231888
  atomic energy  EATOM  =      9725.59625505
  Solvation  Ediel_sol  =         0.00000000
  ---------------------------------------------------
  free energy    TOTEN  =      -995.69359201 eV

  energy without entropy =     -995.61753892  energy(sigma->0) =     -995.65556547


--------------------------------------------------------------------------------------------------------




--------------------------------------- Iteration      1(   6)  ---------------------------------------


    POTLOK:  cpu time      0.7433: real time      0.7693
    SETDIJ:  cpu time      1.5121: real time      1.5132
    EDDIAG:  cpu time     23.9065: real time     23.9271
     EDDAV:  cpu time    123.3970: real time    123.5068
       DOS:  cpu time      0.0039: real time      0.0039
    CHARGE:  cpu time     10.6825: real time     10.6927
    MIXING:  cpu time      0.0165: real time      0.0165
    --------------------------------------------
      LOOP:  cpu time    160.2618: real time    160.4295

 eigenvalue-minimisations  :  4800
 total energy-change (2. order) :-0.5359395E-02  (-0.9060630E-03)
 number of electron     395.9999999 magnetization 
 augmentation part      -19.1848130 magnetization 

 Broyden mixing:
  rms(total) = 0.14467E-01    rms(broyden)= 0.33726E+00
  rms(prec ) = 0.17092E-01
  weight for this iteration     100.00
  WARNING: grid for Broyden might be to small

 eigenvalues of (default mixing * dielectric matrix)
  average eigenvalue GAMMA=   1.1339
  2.5615  1.0651  0.7775  0.6327  0.6327

 Free energy of the ion-electron system (eV)
  ---------------------------------------------------
  alpha Z        PSCENC =       141.89105937
  Ewald energy   TEWEN  =     -7531.68192625
  -Hartree energ DENC   =     -3217.90559235
  -exchange      EXHF   =         0.00000000
  -V(xc)+E(xc)   XCENC  =      -318.39294774
  PAW double counting   =     58245.43434659   -57349.24180965
  entropy T*S    EENTRO =        -0.07711275
  eigenvalues    EBANDS =      -691.32122367
  atomic energy  EATOM  =      9725.59625505
  Solvation  Ediel_sol  =         0.00000000
  ---------------------------------------------------
  free energy    TOTEN  =      -995.69895141 eV

  energy without entropy =     -995.62183866  energy(sigma->0) =     -995.66039503


--------------------------------------------------------------------------------------------------------




--------------------------------------- Iteration      1(   7)  ---------------------------------------


    POTLOK:  cpu time      0.7684: real time      0.7708
    SETDIJ:  cpu time      1.5122: real time      1.5129
    EDDIAG:  cpu time     24.0456: real time     24.0667
     EDDAV:  cpu time    123.1940: real time    123.3026
       DOS:  cpu time      0.0056: real time      0.0056
    CHARGE:  cpu time     10.6372: real time     10.6463
    MIXING:  cpu time      0.0155: real time      0.0155
    --------------------------------------------
      LOOP:  cpu time    160.1785: real time    160.3204

 eigenvalue-minimisations  :  4760
 total energy-change (2. order) :-0.1212182E-02  (-0.3214443E-03)
 number of electron     395.9999999 magnetization 
 augmentation part      -19.1833622 magnetization 

 Broyden mixing:
  rms(total) = 0.51135E-02    rms(broyden)= 0.11112E+00
  rms(prec ) = 0.67179E-02
  weight for this iteration     100.00
  WARNING: grid for Broyden might be to small

 eigenvalues of (default mixing * dielectric matrix)
  average eigenvalue GAMMA=   1.1425
  2.5687  1.4046  0.9110  0.7168  0.6185  0.6356

 Free energy of the ion-electron system (eV)
  ---------------------------------------------------
  alpha Z        PSCENC =       141.89105937
  Ewald energy   TEWEN  =     -7531.68192625
  -Hartree energ DENC   =     -3218.49233962
  -exchange      EXHF   =         0.00000000
  -V(xc)+E(xc)   XCENC  =      -318.33600597
  PAW double counting   =     58235.88747746   -57339.67905119
  entropy T*S    EENTRO =        -0.07622739
  eigenvalues    EBANDS =      -690.80940505
  atomic energy  EATOM  =      9725.59625505
  Solvation  Ediel_sol  =         0.00000000
  ---------------------------------------------------
  free energy    TOTEN  =      -995.70016359 eV

  energy without entropy =     -995.62393620  energy(sigma->0) =     -995.66204990


--------------------------------------------------------------------------------------------------------




--------------------------------------- Iteration      1(   8)  ---------------------------------------


    POTLOK:  cpu time      0.7572: real time      0.7827
    SETDIJ:  cpu time      1.5140: real time      1.5148
    EDDIAG:  cpu time     23.8684: real time     23.8876
     EDDAV:  cpu time    128.3500: real time    128.4695
       DOS:  cpu time      0.0039: real time      0.0039
    CHARGE:  cpu time     10.7091: real time     10.7189
    MIXING:  cpu time      0.0155: real time      0.0155
    --------------------------------------------
      LOOP:  cpu time    165.2180: real time    165.3928

 eigenvalue-minimisations  :  5088
 total energy-change (2. order) :-0.1457445E-03  (-0.4465482E-04)
 number of electron     395.9999999 magnetization 
 augmentation part      -19.1832462 magnetization 

 Broyden mixing:
  rms(total) = 0.19143E-02    rms(broyden)= 0.81122E-01
  rms(prec ) = 0.24609E-02
  weight for this iteration     100.00
  WARNING: grid for Broyden might be to small

 eigenvalues of (default mixing * dielectric matrix)
  average eigenvalue GAMMA=   1.2228
  2.5902  2.2036  1.0275  0.8620  0.6504  0.6344  0.5916

 Free energy of the ion-electron system (eV)
  ---------------------------------------------------
  alpha Z        PSCENC =       141.89105937
  Ewald energy   TEWEN  =     -7531.68192625
  -Hartree energ DENC   =     -3218.67486918
  -exchange      EXHF   =         0.00000000
  -V(xc)+E(xc)   XCENC  =      -318.34183795
  PAW double counting   =     58264.19610975   -57367.98235511
  entropy T*S    EENTRO =        -0.07665154
  eigenvalues    EBANDS =      -690.62609348
  atomic energy  EATOM  =      9725.59625505
  Solvation  Ediel_sol  =         0.00000000
  ---------------------------------------------------
  free energy    TOTEN  =      -995.70030933 eV

  energy without entropy =     -995.62365780  energy(sigma->0) =     -995.66198356


--------------------------------------------------------------------------------------------------------




--------------------------------------- Iteration      1(   9)  ---------------------------------------


    POTLOK:  cpu time      0.7473: real time      0.7698
    SETDIJ:  cpu time      1.5099: real time      1.5107
    EDDIAG:  cpu time     23.9928: real time     24.0139
     EDDAV:  cpu time    123.0142: real time    123.1287
       DOS:  cpu time      0.0052: real time      0.0052
    CHARGE:  cpu time     10.7214: real time     10.7313
    MIXING:  cpu time      0.0157: real time      0.0157
    --------------------------------------------
      LOOP:  cpu time    160.0067: real time    160.1756

 eigenvalue-minimisations  :  4760
 total energy-change (2. order) :-0.4715654E-04  (-0.9598376E-05)
 number of electron     395.9999999 magnetization 
 augmentation part      -19.1834061 magnetization 

 Broyden mixing:
  rms(total) = 0.11057E-02    rms(broyden)= 0.46465E-01
  rms(prec ) = 0.13498E-02
  weight for this iteration     100.00
  WARNING: grid for Broyden might be to small

 eigenvalues of (default mixing * dielectric matrix)
  average eigenvalue GAMMA=   1.2217
  2.5869  2.5869  1.0013  1.0013  0.7637  0.6359  0.6291  0.5690

 Free energy of the ion-electron system (eV)
  ---------------------------------------------------
  alpha Z        PSCENC =       141.89105937
  Ewald energy   TEWEN  =     -7531.68192625
  -Hartree energ DENC   =     -3218.68277042
  -exchange      EXHF   =         0.00000000
  -V(xc)+E(xc)   XCENC  =      -318.36498658
  PAW double counting   =     58261.07872118   -57364.86292394
  entropy T*S    EENTRO =        -0.07658354
  eigenvalues    EBANDS =      -690.59720136
  atomic energy  EATOM  =      9725.59625505
  Solvation  Ediel_sol  =         0.00000000
  ---------------------------------------------------
  free energy    TOTEN  =      -995.70035649 eV

  energy without entropy =     -995.62377295  energy(sigma->0) =     -995.66206472


--------------------------------------------------------------------------------------------------------




--------------------------------------- Iteration      1(  10)  ---------------------------------------


    POTLOK:  cpu time      0.7410: real time      0.7681
    SETDIJ:  cpu time      1.5075: real time      1.5081
    EDDIAG:  cpu time     23.9071: real time     23.9284
     EDDAV:  cpu time    121.6504: real time    121.7636
       DOS:  cpu time      0.0059: real time      0.0059
    CHARGE:  cpu time     10.7203: real time     10.7295
    MIXING:  cpu time      0.0161: real time      0.0161
    --------------------------------------------
      LOOP:  cpu time    158.5481: real time    158.7195

 eigenvalue-minimisations  :  4672
 total energy-change (2. order) :-0.1851762E-04  (-0.3286747E-05)
 number of electron     395.9999999 magnetization 
 augmentation part      -19.1834145 magnetization 

 Broyden mixing:
  rms(total) = 0.47484E-03    rms(broyden)= 0.79476E-02
  rms(prec ) = 0.56346E-03
  weight for this iteration     100.00
  WARNING: grid for Broyden might be to small

 eigenvalues of (default mixing * dielectric matrix)
  average eigenvalue GAMMA=   1.2819
  3.0870  2.5967  1.4102  1.0417  0.8909  0.6942  0.6319  0.6180  0.5663

 Free energy of the ion-electron system (eV)
  ---------------------------------------------------
  alpha Z        PSCENC =       141.89105937
  Ewald energy   TEWEN  =     -7531.68192625
  -Hartree energ DENC   =     -3218.69873090
  -exchange      EXHF   =         0.00000000
  -V(xc)+E(xc)   XCENC  =      -318.36929975
  PAW double counting   =     58256.20951714   -57359.99220056
  entropy T*S    EENTRO =        -0.07657905
  eigenvalues    EBANDS =      -690.57847004
  atomic energy  EATOM  =      9725.59625505
  Solvation  Ediel_sol  =         0.00000000
  ---------------------------------------------------
  free energy    TOTEN  =      -995.70037501 eV

  energy without entropy =     -995.62379595  energy(sigma->0) =     -995.66208548


--------------------------------------------------------------------------------------------------------




--------------------------------------- Iteration      1(  11)  ---------------------------------------


    POTLOK:  cpu time      0.7454: real time      0.7719
    SETDIJ:  cpu time      1.5121: real time      1.5137
    EDDIAG:  cpu time     23.9150: real time     23.9376
     EDDAV:  cpu time    128.1543: real time    128.2711
       DOS:  cpu time      0.0049: real time      0.0049
    CHARGE:  cpu time     10.6296: real time     10.6400
    MIXING:  cpu time      0.0161: real time      0.0161
    --------------------------------------------
      LOOP:  cpu time    164.9774: real time    165.1554

 eigenvalue-minimisations  :  5112
 total energy-change (2. order) :-0.4898247E-05  (-0.8281552E-06)
 number of electron     395.9999999 magnetization 
 augmentation part      -19.1834639 magnetization 

 Broyden mixing:
  rms(total) = 0.23701E-03    rms(broyden)= 0.69528E-02
  rms(prec ) = 0.31805E-03
  weight for this iteration     100.00
  WARNING: grid for Broyden might be to small

 eigenvalues of (default mixing * dielectric matrix)
  average eigenvalue GAMMA=   1.2893
  3.2881  2.6161  1.6935  1.0188  1.0188  0.7849  0.5572  0.6651  0.6307  0.6199

 Free energy of the ion-electron system (eV)
  ---------------------------------------------------
  alpha Z        PSCENC =       141.89105937
  Ewald energy   TEWEN  =     -7531.68192625
  -Hartree energ DENC   =     -3218.69536774
  -exchange      EXHF   =         0.00000000
  -V(xc)+E(xc)   XCENC  =      -318.37598299
  PAW double counting   =     58255.43729145   -57359.21961378
  entropy T*S    EENTRO =        -0.07660972
  eigenvalues    EBANDS =      -690.57548530
  atomic energy  EATOM  =      9725.59625505
  Solvation  Ediel_sol  =         0.00000000
  ---------------------------------------------------
  free energy    TOTEN  =      -995.70037990 eV

  energy without entropy =     -995.62377018  energy(sigma->0) =     -995.66207504


--------------------------------------------------------------------------------------------------------




--------------------------------------- Iteration      1(  12)  ---------------------------------------


    POTLOK:  cpu time      0.7412: real time      0.7696
    SETDIJ:  cpu time      1.5104: real time      1.5110
    EDDIAG:  cpu time     23.9057: real time     23.9261
     EDDAV:  cpu time     93.5092: real time     93.5950
       DOS:  cpu time      0.0074: real time      0.0074
    --------------------------------------------
      LOOP:  cpu time    119.6742: real time    119.8094

 eigenvalue-minimisations  :  2888
 total energy-change (2. order) :-0.4163958E-06  (-0.1392169E-06)
 number of electron     395.9999999 magnetization 
 augmentation part      -19.1834639 magnetization 

 Free energy of the ion-electron system (eV)
  ---------------------------------------------------
  alpha Z        PSCENC =       141.89105937
  Ewald energy   TEWEN  =     -7531.68192625
  -Hartree energ DENC   =     -3218.69133363
  -exchange      EXHF   =         0.00000000
[...]
   0.735E+01 -.407E+02 -.321E+01   -.663E+01 0.437E+02 0.418E+01   -.131E+01 -.282E+01 -.164E+01   -.154E-03 -.201E-03 -.206E-03
   0.807E+02 -.106E+02 -.240E+02   -.792E+02 0.101E+02 0.225E+02   -.255E+01 -.126E+01 0.185E+01   -.307E-05 0.110E-03 0.294E-03
   0.767E+02 -.287E+02 -.189E+02   -.755E+02 0.288E+02 0.179E+02   -.977E+00 -.981E+00 0.189E+01   0.160E-03 -.438E-03 0.159E-03
   0.105E+02 -.154E+02 0.153E+02   -.110E+02 0.147E+02 -.128E+02   0.783E+00 0.360E+00 -.198E+01   0.799E-04 -.882E-04 -.788E-05
   -.612E+02 -.119E+02 -.123E+02   0.608E+02 0.137E+02 0.121E+02   0.111E+01 -.269E+01 0.148E+00   0.219E-03 0.248E-03 0.146E-03
   0.630E+00 0.281E+01 -.958E+01   0.461E+00 -.294E+01 0.705E+01   -.150E+01 0.315E+00 0.213E+01   -.139E-03 -.249E-03 -.187E-04
   -.227E+01 0.302E+02 0.664E+01   0.231E+01 -.303E+02 -.555E+01   0.130E+01 -.806E+00 -.736E+00   -.972E-04 -.126E-03 -.836E-04
   -.336E+02 -.391E+02 0.100E+02   0.338E+02 0.403E+02 -.106E+02   0.480E+00 -.140E+00 0.104E+01   -.690E-04 -.726E-04 0.920E-04
   -.101E+02 -.107E+02 0.310E+00   0.838E+01 0.131E+02 0.742E+00   0.178E+01 -.253E+01 -.122E+01   0.183E-03 -.162E-03 0.122E-04
 -----------------------------------------------------------------------------------------------
   0.134E+02 0.776E+01 -.494E+01   -.147E-12 -.384E-12 0.156E-12   -.134E+02 -.776E+01 0.493E+01   0.269E-02 -.216E-02 -.335E-03


 POSITION                                       TOTAL-FORCE (eV/Angst)
 -----------------------------------------------------------------------------------
      5.25075      7.57142      5.24533         0.157382      0.451107      0.355783
      6.86821      4.82935      5.79869         0.973839     -0.669493      1.918130
      9.00032     10.25680      2.26676        -0.093536      0.021026      0.176729
      7.27184      4.58852      6.46391        -1.098242      0.618270     -1.553647
      8.32709      5.90147      1.17935         0.395870     -0.466846      0.975167
      7.95014      5.53123      8.60333         0.113772     -0.150435     -0.007452
      5.90716      4.47287     10.07320        -0.747736      0.109727      0.006839
      9.26956      8.39064      1.99933        -0.209806     -0.097801      0.244252
      7.39828      3.68084      0.17108         0.173787      0.419811     -0.252052
      6.12454      7.88038     10.10620        -0.048950     -0.048816     -0.593902
     11.45520      9.61775      4.69209        -0.237641      0.965797     -0.207501
      7.64621      6.73124      4.27499        -0.183834     -0.247366      0.247745
      9.23666     10.05480      9.17395         0.290436      0.183524      0.223359
      7.88099      3.71235      4.25663        -0.442327     -0.152579     -0.263710
      7.15691     10.47450      4.94568        -0.181876      0.008710     -0.054315
      8.10228      7.35594      7.03614         0.168667      0.188716      0.093004
      7.31586      6.29735      4.79785         0.313695      0.409376     -0.559925
      7.75526      6.87226      6.60923        -0.046289     -0.114060     -0.179595
      6.64239      7.46220      0.73691         0.939957      0.292944     -0.583413
      6.16340      7.22249      1.20424        -0.675864     -0.515719      0.948429
      6.18116      4.93290      3.10252        -0.410278      0.120809      0.197517
      4.17653      5.71777      6.26493         0.632471      0.156519      0.001271
      5.47522      8.14208      5.69612        -0.179640     -0.441071     -0.357219
      8.94541      1.97441      6.73244         0.237124      0.470790      0.167474
      4.56822      7.69239      1.79015        -0.301329      0.080805      0.153428
      7.90587      9.22099     10.87660        -0.198948     -0.218825     -0.924666
      8.57338      5.57807      1.84118        -0.276039      0.506056     -0.927552
      9.73987      8.27655      1.45280         0.308376     -0.254234     -0.373674
     10.18210      4.58070     10.50950        -0.274931      0.627895      0.376421
      7.60995      6.01314      9.04642        -0.062666      0.027774      0.164341
      3.60539      7.26006      9.55611         0.877615     -0.631331     -0.151384
     10.79560      6.73200      3.36734         0.124667      0.347248      0.442217
      7.67328      8.72774      8.30049         0.398667     -0.562438      0.397853
      6.18889     10.26100      1.66388         0.530513     -0.948249     -0.174265
     10.42650      4.62967      3.30277         0.167065     -0.685785     -0.061304
      5.91260      2.42959      7.32657        -0.371275     -0.074885     -0.540462
      1.45737      5.96231      5.15484        -1.183761      0.540119     -0.041700
      7.40961     14.25950     10.57160         0.361589     -1.008420     -0.406440
     10.43190     12.82750      8.26287        -0.204084      0.049045     -0.292143
     13.32020      5.58944      2.63770         1.399216     -1.279448     -1.127744
     14.34440      7.71711      2.69745        -0.442553     -0.417452     -1.097215
      3.05479     12.82880      6.22227        -0.122786     -0.591421     -1.076656
     11.31000     13.70850      0.19487        -0.259682      0.970040      0.257681
      9.89319     11.42200      2.44317        -1.027093     -0.269504      0.562908
      6.08439     11.50600      5.16781         0.544239     -0.265976     -0.101242
      6.10102     12.69730      3.13278         0.480018      0.069038      0.481050
      5.89580      1.39410      6.21129         0.981543     -0.944865      1.062876
      3.11809      7.36393      1.64360         0.622915     -0.060340     -0.588855
     14.23480      2.37443      4.27211        -0.623883     -1.199768      0.189579
      4.45292      4.10858     10.33230        -0.660327      0.418125     -0.050655
      2.92589     10.65560      1.82736         0.687784      0.673644      0.121630
      7.57254      2.84618      1.35451        -0.939018     -1.056592      0.181387
      2.78481      4.27894      8.61388        -0.143396      0.223502     -0.409931
      8.42184     13.24060      2.82468         0.495993      0.373147      0.278761
      2.33494      9.88096      4.14749        -0.596902      0.264838     -0.248849
     13.09780      8.43652      4.45091        -0.251776      0.631043      1.694552
     13.86660     14.29450      7.96971        -0.134151     -0.123491      1.467810
      0.06754     12.73480      0.14350         0.124648      1.015218     -0.529829
     11.28210     11.41290      0.61486        -0.125499      0.032815     -1.456947
     10.86060      1.20169      3.55668         0.657135      1.683331      0.100600
      3.46882     13.09360     10.05080        -0.057681     -0.023826      0.517728
      3.66443     10.21130      8.06293         0.131018      0.037277      0.086473
      2.27092     12.68630      0.91432        -0.519845      0.635207      0.243173
     14.23150     10.35160      7.64331         0.068132     -0.724448     -1.247926
     14.50360      6.64900      6.87787         0.383809     -1.023168     -0.715548
      2.68083      8.34060      9.35043         0.566041      1.095200     -1.345186
      4.69200     14.12100      7.09661         1.408731      0.706421      0.686486
      1.92721     14.01980      4.58321        -1.128156      0.077412     -0.773167
      9.26131      0.01617      1.06527        -0.175835     -1.275960     -1.200533
      5.24081     11.33120      1.47624        -0.496150     -0.010602      0.517514
      1.49443      5.82983      9.80264         0.562610     -0.174913      0.633854
      2.17226      9.05853      0.30869         0.416726      0.146042      1.508612
     11.15600     11.23020      4.40467         0.703870     -1.043887     -0.364621
      4.96032      0.04914      2.68125         0.715538      0.661133     -0.190539
     13.86370      4.59226      7.99510        -0.087447     -0.084490      0.271768
      1.93874      7.66570      3.53542        -0.135325     -0.617792      1.149676
     10.90480     12.93270      5.94803         0.239085      0.836279     -0.005636
     14.51230      2.40652      0.09408         0.566917     -0.917372     -0.318688
     12.97520      4.11330      0.65111         1.466248      1.749688      0.065530
      2.09800      1.88143      1.20849         0.167645     -0.863996     -0.729471
     10.57470     10.68260      9.40333         0.681705      0.542042     -0.264252
     14.17790     13.72050      4.06723        -0.085998     -0.022619      0.502939
     13.48180     11.18530      1.27852        -0.019633     -0.718979      0.974271
      4.15896      1.82797     10.72490        -1.326784      0.700451     -0.003482
      6.68653      3.56790      3.33741         0.264851     -0.259021      0.280802
      0.82147      2.96135      9.00108        -0.337570      1.004639     -0.042681
     12.93070     14.36050      5.94653        -1.254523     -0.066070     -0.917714
     13.36050     11.61380      3.68384         0.176536      0.001101     -0.739523
      3.20006      3.05837      4.63831        -0.050863     -0.302731     -0.441445
      5.14794      1.87411      4.12514         0.559334      1.385339      0.061548
     10.58990      2.28251      8.97081         0.223197     -0.031337     -0.524382
     14.51930      9.15603      0.76346        -1.046593     -0.642868      0.328673
     13.04720      0.75073      2.79822         1.319514      0.059071     -0.221400
     11.33240      5.48517      6.11385        -0.299944      0.923902      0.852349
      2.70597     14.47060      2.41445        -0.650617     -0.396361     -0.547165
     11.47020      5.49529      3.89623        -1.625991      0.548820     -0.959562
      3.95279     10.66670      5.67563        -0.367153      0.228797      0.537124
      7.06427      8.91869      9.63220        -0.534028      1.469081      0.242193
      9.79586      2.17598      1.55819         0.038727      0.348188      0.250276
      0.41164      4.37608      3.75572        -0.042142      1.539242     -1.166715
     13.53180      8.03569     10.04590         0.037448      0.854672     -1.119317
     10.95810      3.41756     10.94310        -0.329784     -0.902655      0.169707
      3.06043      4.77682      6.22225         0.601226     -0.487758      0.877455
     14.57680     10.15220      5.00889         0.449522      0.400766      1.055092
      9.45081     14.40130      4.66445        -0.767390     -1.381104      0.690190
      3.41741      0.47090      8.92748        -0.236697      0.535870     -0.401596
      0.14020     12.25430      8.82963        -1.158683      0.602340      0.722666
     12.25030      2.12885      5.37801        -0.522924     -0.801890      0.359328
      1.49760      1.52050      5.43552         0.449949      0.522723      0.349446
     12.28520      9.27805      8.36652        -0.310121     -0.410791      0.185810
      6.53610     12.45860      7.27795        -0.725127      0.238468      0.792544
      5.82422     10.90020      8.95553        -0.168568     -0.434808     -0.151173
      0.65910      8.25028      8.32324        -0.854725      0.414838      0.611887
     12.36500      7.55744      6.57814        -0.144706     -0.195056     -0.342658
      5.66417     12.52150     10.62950         0.227274     -0.433100     -0.411675
      2.26924      3.73861      2.45863         0.097913      1.063089      0.684630
     11.56880      0.13879      9.17138         0.950778     -0.608663     -0.720413
      8.21879      0.72186      6.52821        -0.617521      0.061528     -0.759048
     13.79570      5.78568     10.04700        -1.063084     -1.799171      0.480552
     11.78640      3.56737      7.20532         0.257714     -0.867135      0.865678
     13.40310      0.25799      0.49293         0.320679     -0.263299      0.527153
      2.78838      5.31629      0.67190         0.842826     -1.026984     -0.004220
      8.26564     13.76230      8.31022        -0.520820      0.197083     -0.325684
      2.28152     12.17030      8.27719         1.445719     -1.045702      0.307562
      5.99095      0.99076      0.72671         0.735071      1.019710      0.487326
      1.26665      1.07300      7.81899         0.183209     -0.201463     -0.217141
 -----------------------------------------------------------------------------------
    total drift:                               -0.005905      0.003520     -0.008027


--------------------------------------------------------------------------------------------------------



  FREE ENERGIE OF THE ION-ELECTRON SYSTEM (eV)
  ---------------------------------------------------
  free  energy   TOTEN  =      -995.70038032 eV

  energy  without entropy=     -995.62379869  energy(sigma->0) =     -995.66208950



--------------------------------------------------------------------------------------------------------


    POTLOK:  cpu time      2.2369: real time      2.2380


--------------------------------------------------------------------------------------------------------


     LOOP+:  cpu time   2133.3296: real time   2135.4830
    4ORBIT:  cpu time      0.0000: real time      0.0000



 total charge

# of ion       s       p       d       tot
------------------------------------------
    1        0.598   0.030   0.000   0.628
    2        0.568   0.024   0.000   0.592
    3        0.575   0.017   0.000   0.591
    4        0.565   0.023   0.000   0.588
    5        0.589   0.028   0.000   0.616
    6        0.615   0.033   0.000   0.649
    7        0.545   0.015   0.000   0.560
    8        0.621   0.036   0.000   0.656
    9        0.578   0.017   0.000   0.596
   10        0.577   0.016   0.000   0.594
   11        0.509   0.014   0.000   0.523
   12        0.607   0.030   0.000   0.637
   13        0.564   0.016   0.000   0.580
   14        0.561   0.014   0.000   0.575
   15        0.562   0.015   0.000   0.577
   16        0.627   0.035   0.000   0.661
   17        0.607   0.031   0.000   0.639
   18        0.623   0.035   0.000   0.658
   19        0.643   0.039   0.000   0.682
   20        0.641   0.039   0.000   0.680
   21        0.575   0.016   0.000   0.590
   22        0.582   0.017   0.000   0.599
   23        0.600   0.030   0.000   0.630
   24        0.578   0.018   0.000   0.596
   25        0.565   0.016   0.000   0.581
   26        0.551   0.014   0.000   0.564
   27        0.591   0.028   0.000   0.618
   28        0.627   0.034   0.000   0.661
   29        0.578   0.017   0.000   0.595
   30        0.619   0.033   0.000   0.652
   31        0.585   0.020   0.000   0.605
   32        0.566   0.014   0.000   0.580
   33        0.574   0.017   0.000   0.591
   34        0.590   0.018   0.000   0.607
   35        0.574   0.016   0.000   0.589
   36        0.551   0.014   0.000   0.565
   37        0.753   0.942   0.000   1.695
   38        0.751   0.889   0.000   1.639
   39        0.752   0.919   0.000   1.670
   40        0.752   0.953   0.000   1.705
   41        0.756   0.943   0.000   1.699
   42        0.754   0.975   0.000   1.729
   43        0.755   0.941   0.000   1.696
   44        0.743   0.993   0.000   1.736
   45        0.740   0.958   0.000   1.697
   46        0.746   0.965   0.000   1.711
   47        0.739   0.966   0.000   1.705
   48        0.748   1.012   0.000   1.760
   49        0.756   0.973   0.000   1.729
   50        0.741   0.930   0.000   1.672
   51        0.747   0.915   0.000   1.662
   52        0.744   0.986   0.000   1.730
   53        0.759   0.900   0.000   1.659
   54        0.748   0.927   0.000   1.674
   55        0.747   0.883   0.000   1.630
   56        0.788   0.866   0.000   1.655
   57        0.759   0.916   0.000   1.675
   58        0.753   0.937   0.000   1.690
   59        0.751   0.949   0.000   1.700
   60        0.752   0.906   0.000   1.658
   61        0.755   0.981   0.000   1.737
   62        0.766   0.872   0.000   1.637
   63        0.749   0.969   0.000   1.718
   64        0.761   0.886   0.000   1.647
   65        0.756   0.920   0.000   1.675
   66        0.744   1.000   0.000   1.744
   67        0.751   0.934   0.000   1.685
   68        0.749   0.960   0.000   1.709
   69        0.754   0.922   0.000   1.676
   70        0.744   0.994   0.000   1.738
   71        0.801   0.859   0.000   1.660
   72        0.751   1.010   0.000   1.761
   73        0.756   0.932   0.000   1.688
   74        0.750   0.973   0.000   1.723
   75        0.768   0.868   0.000   1.636
   76        0.753   0.970   0.000   1.723
   77        0.752   0.917   0.000   1.669
   78        0.756   0.862   0.000   1.618
   79        0.753   0.905   0.000   1.658
   80        0.752   0.898   0.000   1.651
   81        0.742   0.900   0.000   1.642
   82        0.752   0.955   0.000   1.707
   83        0.750   0.968   0.000   1.718
   84        0.753   0.920   0.000   1.673
   85        0.735   1.008   0.000   1.743
   86        0.752   0.919   0.000   1.672
   87        0.759   0.929   0.000   1.688
   88        0.755   0.957   0.000   1.712
   89        0.751   0.918   0.000   1.670
   90        0.744   0.977   0.000   1.721
   91        0.808   0.838   0.000   1.645
   92        0.749   0.954   0.000   1.703
   93        0.764   0.899   0.000   1.663
   94        0.776   0.929   0.000   1.705
   95        0.749   0.951   0.000   1.700
   96        0.742   1.046   0.000   1.787
   97        0.751   0.919   0.000   1.670
   98        0.728   1.003   0.000   1.731
   99        0.746   0.944   0.000   1.690
  100        0.752   0.990   0.000   1.742
  101        0.754   0.942   0.000   1.696
  102        0.741   0.983   0.000   1.725
  103        0.740   0.988   0.000   1.728
  104        0.759   0.883   0.000   1.641
  105        0.749   0.937   0.000   1.685
  106        0.756   0.917   0.000   1.673
  107        0.750   0.972   0.000   1.721
  108        0.757   0.906   0.000   1.663
  109        0.752   0.938   0.000   1.690
  110        0.752   0.885   0.000   1.637
  111        0.753   0.909   0.000   1.662
  112        0.748   0.929   0.000   1.676
  113        0.768   0.939   0.000   1.707
  114        0.755   0.888   0.000   1.643
  115        0.751   0.949   0.000   1.699
  116        0.750   0.940   0.000   1.690
  117        0.760   0.875   0.000   1.635
  118        0.749   0.951   0.000   1.700
  119        0.759   0.930   0.000   1.689
  120        0.749   0.905   0.000   1.654
  121        0.753   0.872   0.000   1.625
  122        0.753   0.910   0.000   1.663
  123        0.752   0.898   0.000   1.651
  124        0.763   0.982   0.000   1.745
  125        0.754   0.941   0.000   1.694
  126        0.753   0.908   0.000   1.661
--------------------------------------------------
tot         88.873  85.002   0.000 173.875


 total amount of memory used by VASP MPI-rank0   207719. kBytes
=======================================================================

   base                                    :      30000. kBytes
   nonl-proj                               :      42389. kBytes
   fftplans                                :      42989. kBytes
   grid                                    :      33148. kBytes
   one-center                              :         24. kBytes
   wavefun                                 :      59169. kBytes

  
  
 General timing and accounting informations for this job:
 ========================================================
  
                  Total CPU time used (sec):     2209.726
                            User time (sec):     2202.580
                          System time (sec):        7.146
                         Elapsed time (sec):     2211.812
  
                   Maximum memory used (kb):      391356.
                   Average memory used (kb):          N/A
  
                          Minor page faults:       203242
                          Major page faults:         1165
                 Voluntary context switches:         2285
