66
Lattice="10.86 0.0 0.0 0.0 10.86 0.0 0.0 0.0 10.86" Properties=species:S:1:pos:R:3:forces:R:3:energies:R:1 energy=-380.36096294422225 free_energy=-380.36096294422225 stress="0.0023055313744267296 0.0001623344929528731 1.4121930452135722e-16 0.0001623344929528731 0.0023055313744267795 1.29408211753655e-16 1.4121930452135722e-16 1.29408211753655e-16 0.002180351806965806" pbc="T T T"
Si      -0.02066248      -0.02066248      -0.02358467       0.00000719       0.00000719      -0.00000003      -5.90892651
Si       1.33447231       1.33447231       1.33551487       0.00000972       0.00000972       0.00000254      -6.22601489
Si      -0.01221286       2.71909216       2.71180370       0.00001011       0.00001065      -0.00000863      -6.06314794
Si       1.33008821       4.09991179       4.09886723      -0.00000567       0.00000567       0.00001109      -6.22022827
Si       2.71909216      -0.01221286       2.71180370       0.00001065       0.00001011      -0.00000863      -6.06314794
Si       4.09991179       1.33008821       4.09886723       0.00000567      -0.00000567       0.00001109      -6.22022827
Si       2.71500000       2.71500000      -0.01450307       0.00000000      -0.00000000      -0.00001451      -6.02917340
Si       4.09552769       4.09552769       1.33551487      -0.00000972      -0.00000972       0.00000254      -6.22601489
Si       0.00249064       0.00249064       5.42897113      -0.00001147      -0.00001147       0.00000969      -5.93258124
Si       1.35789967       1.35789967       6.79555190       0.00001723       0.00001723      -0.00001297      -5.92283979
Si      -0.00267228       2.71643430       8.14366379       0.00001749      -0.00000862      -0.00002902      -5.86558108
Si       1.35704041       4.07295959       9.49494614      -0.00000515       0.00000515      -0.00003032      -5.92102931
Si       2.71643430      -0.00267228       8.14366379      -0.00000862       0.00001749      -0.00002902      -5.86558108
Si       4.07295959       1.35704041       9.49494614       0.00000515      -0.00000515      -0.00003032      -5.92102931
Si       2.71500000       2.71500000       5.44037298      -0.00000000       0.00000000      -0.00003013      -6.04631424
Si       4.07210033       4.07210033       6.79555190      -0.00001723      -0.00001723      -0.00001297      -5.92283979
Si       0.00175532       5.42824468       0.00073247      -0.00000788       0.00000788      -0.00001346      -5.92943867
Si       1.35500576       6.79709339       1.35443928       0.00000113       0.00000737       0.00000894      -5.91974883
Si      -0.00275026       8.14646653       2.71424959       0.00001390      -0.00002038      -0.00000456      -5.87382441
Si       1.35758854       9.49736427       4.07209437       0.00001039      -0.00000800      -0.00000463      -5.92555331
Si       2.71090784       5.44221286       2.71180370      -0.00001065      -0.00001011      -0.00000863      -6.06314794
Si       4.07241146       6.79263573       4.07209437      -0.00001039       0.00000800      -0.00000463      -5.92555331
Si       2.71500000       8.14500000      -0.00453352      -0.00000000      -0.00000000       0.00000233      -5.87102197
Si       4.07499424       9.49290661       1.35443928      -0.00000113      -0.00000737       0.00000894      -5.91974883
Si      -0.02026638       5.45026638       5.44776985      -0.00001186       0.00001186       0.00000567      -5.90856562
Si       1.35802916       6.79277820       6.79075284       0.00001027       0.00001771       0.00002565      -5.87121376
Si      -0.00067377       8.14514722       8.14393296       0.00000728       0.00000847       0.00000500      -5.85782214
Si       1.35970077       9.49804665       9.49568643       0.00000788       0.00001463       0.00001942      -5.86952962
Si       2.71356570       5.43267228       8.14366379       0.00000862      -0.00001749      -0.00002902      -5.86558108
Si       4.07029923       6.79195335       9.49568643      -0.00000788      -0.00001463       0.00001942      -5.86952962
Si       2.71500000       8.14500000       5.43098570      -0.00000000       0.00000000      -0.00003153      -5.87412287
Si       4.07197084       9.49722180       6.79075284      -0.00001027      -0.00001771       0.00002565      -5.87121376
Si       5.42824468       0.00175532       0.00073247       0.00000788      -0.00000788      -0.00001346      -5.92943867
Si       6.79709339       1.35500576       1.35443928       0.00000737       0.00000113       0.00000894      -5.91974883
Si       5.44221286       2.71090784       2.71180370      -0.00001011      -0.00001065      -0.00000863      -6.06314794
Si       6.79263573       4.07241146       4.07209437       0.00000800      -0.00001039      -0.00000463      -5.92555331
Si       8.14646653      -0.00275026       2.71424959      -0.00002038       0.00001390      -0.00000456      -5.87382441
Si       9.49736427       1.35758854       4.07209437      -0.00000800       0.00001039      -0.00000463      -5.92555331
Si       8.14500000       2.71500000      -0.00453352       0.00000000       0.00000000       0.00000233      -5.87102197
Si       9.49290661       4.07499424       1.35443928      -0.00000737      -0.00000113       0.00000894      -5.91974883
Si       5.45026638      -0.02026638       5.44776985       0.00001186      -0.00001186       0.00000567      -5.90856562
Si       6.79277820       1.35802916       6.79075284       0.00001771       0.00001027       0.00002565      -5.87121376
Si       5.43267228       2.71356570       8.14366379      -0.00001749       0.00000862      -0.00002902      -5.86558108
Si       6.79195335       4.07029923       9.49568643      -0.00001463      -0.00000788       0.00001942      -5.86952962
Si       8.14514722      -0.00067377       8.14393296       0.00000847       0.00000728       0.00000500      -5.85782214
Si       9.49804665       1.35970077       9.49568643       0.00001463       0.00000788       0.00001942      -5.86952962
Si       8.14500000       2.71500000       5.43098570       0.00000000      -0.00000000      -0.00003153      -5.87412287
Si       9.49722180       4.07197084       6.79075284      -0.00001771      -0.00001027       0.00002565      -5.87121376
Si       5.45066248       5.45066248      -0.02358467      -0.00000719      -0.00000719      -0.00000003      -5.90892651
Si       6.79212449       6.79212449       1.35704361      -0.00000197      -0.00000197       0.00002925      -5.87506394
Si       5.43275026       8.14353347       2.71424959      -0.00001390       0.00002038      -0.00000456      -5.87382441
Si       6.79307955       9.49692045       4.06982026       0.00000658      -0.00000658       0.00001243      -5.86911475
Si       8.14353347       5.43275026       2.71424959       0.00002038      -0.00001390      -0.00000456      -5.87382441
Si       9.49692045       6.79307955       4.06982026      -0.00000658       0.00000658       0.00001243      -5.86911475
Si       8.14500000       8.14500000      -0.00196199       0.00000000      -0.00000000      -0.00000876      -5.85793882
Si       9.49787551       9.49787551       1.35704361       0.00000197       0.00000197       0.00002925      -5.87506394
Si       5.42750936       5.42750936       5.42897113       0.00001147       0.00001147       0.00000969      -5.93258124
Si       6.78675219       6.78675219       6.78584293       0.00001435       0.00001435       0.00002133      -5.85983782
Si       5.43067377       8.14485278       8.14393296      -0.00000728      -0.00000847       0.00000500      -5.85782214
Si       6.78658224       9.50341776       9.50211693       0.00000352      -0.00000352       0.00000746      -5.86048131
Si       8.14485278       5.43067377       8.14393296      -0.00000847      -0.00000728       0.00000500      -5.85782214
Si       9.50341776       6.78658224       9.50211693      -0.00000352       0.00000352       0.00000746      -5.86048131
Si       8.14500000       8.14500000       5.42983992       0.00000000       0.00000000      -0.00002550      -5.85681961
Si       9.50324781       9.50324781       6.78584293      -0.00001435      -0.00001435       0.00002133      -5.85983782
H        2.44147856       2.44147856       2.75483532      -0.00001528      -0.00001528       0.00000162      -0.61324930
H        2.98852144       2.98852144       2.75483532       0.00001528       0.00001528       0.00000162      -0.61324930
