65
Lattice="10.83001999906046 1.3387745725375925e-21 -6.107726461425179e-23 2.4608982960252377e-22 10.83001999906046 -1.5241430401652982e-22 -2.8378206060648215e-21 2.2050263602153795e-22 10.83001999906046" Properties=species:S:1:pos:R:3:forces:R:3:energies:R:1 energy=-377.30166289515415 free_energy=-377.30166289515415 stress="-0.003964984124248699 -0.0014607109953587631 -0.0014607109953586987 -0.0014607109953587631 -0.00396498412424865 -0.0014607109953586237 -0.0014607109953586987 -0.0014607109953586237 -0.003964984124248635" pbc="T T T"
Si      -0.24446213      -0.24446213      -0.24446213       0.00000280       0.00000280       0.00000280      -6.26418464
Si       1.59821463       1.59821463       1.59821463      -0.00000280      -0.00000280      -0.00000280      -6.26418464
Si      -0.01890168       2.76482768       2.76482768      -0.00006028      -0.00001061      -0.00001061      -5.79839952
Si       1.35676458       4.09078342       4.09078342       0.00000949      -0.00002362      -0.00002362      -5.88953412
Si       2.76482768      -0.01890168       2.76482768      -0.00001061      -0.00006028      -0.00001061      -5.79839952
Si       4.09078342       1.35676458       4.09078342      -0.00002362       0.00000949      -0.00002362      -5.88953412
Si       2.76482768       2.76482768      -0.01890168      -0.00001061      -0.00001061      -0.00006028      -5.79839952
Si       4.09078342       4.09078342       1.35676458      -0.00002362      -0.00002362       0.00000949      -5.88953412
Si      -0.00149825      -0.00149825       5.42194132       0.00000497       0.00000497       0.00000907      -5.88114535
Si       1.35525075       1.35525075       6.76183118      -0.00000497      -0.00000497      -0.00000907      -5.88114535
Si       0.00755458       2.70477501       8.11798256      -0.00001580      -0.00000102      -0.00001914      -5.90691031
Si       1.34619792       4.06578994       9.47899749       0.00001580       0.00001914       0.00000102      -5.90691031
Si       2.70477501       0.00755458       8.11798256      -0.00000102      -0.00001580      -0.00001914      -5.90691031
Si       4.06578994       1.34619792       9.47899749       0.00001914       0.00001580       0.00000102      -5.90691031
Si       2.71207878       2.71207878       5.41988758       0.00001912       0.00001912       0.00000745      -5.88869054
Si       4.06287977       4.06287977       6.77598925       0.00001981       0.00001981       0.00004222      -5.85787824
Si      -0.00149825       5.42194132      -0.00149825       0.00000497       0.00000907       0.00000497      -5.88114535
Si       1.35525075       6.76183118       1.35525075      -0.00000497      -0.00000907      -0.00000497      -5.88114535
Si       0.00755458       8.11798256       2.70477501      -0.00001580      -0.00001914      -0.00000102      -5.90691031
Si       1.34619792       9.47899749       4.06578994       0.00001580       0.00000102       0.00001914      -5.90691031
Si       2.71207878       5.41988758       2.71207878       0.00001912       0.00000745       0.00001912      -5.88869054
Si       4.06287977       6.77598925       4.06287977       0.00001981       0.00004222       0.00001981      -5.85787824
Si       2.70477501       8.11798256       0.00755458      -0.00000102      -0.00001914      -0.00001580      -5.90691031
Si       4.06578994       9.47899749       1.34619792       0.00001914       0.00000102       0.00001580      -5.90691031
Si      -0.00634712       5.42576245       5.42576245      -0.00007668       0.00003632       0.00003632      -5.83790477
Si       1.36009962       6.75801005       6.75801005       0.00007668      -0.00003632      -0.00003632      -5.83790477
Si      -0.00301208       8.09298908       8.09298908      -0.00000949       0.00002362       0.00002362      -5.88953412
Si       1.37265418       9.41894482       9.41894482       0.00006028       0.00001061       0.00001061      -5.79839952
Si       2.70501357       5.41397213       8.12557028      -0.00001440      -0.00000514       0.00001406      -5.86761398
Si       4.05820222       6.76980037       9.47875893      -0.00001406       0.00000514       0.00001440      -5.86761398
Si       2.70501357       8.12557028       5.41397213      -0.00001440       0.00001406      -0.00000514      -5.86761398
Si       4.05820222       9.47875893       6.76980037      -0.00001406       0.00001440       0.00000514      -5.86761398
Si       5.42194132      -0.00149825      -0.00149825       0.00000907       0.00000497       0.00000497      -5.88114535
Si       6.76183118       1.35525075       1.35525075      -0.00000907      -0.00000497      -0.00000497      -5.88114535
Si       5.41988758       2.71207878       2.71207878       0.00000745       0.00001912       0.00001912      -5.88869054
Si       6.77598925       4.06287977       4.06287977       0.00004222       0.00001981       0.00001981      -5.85787824
Si       8.11798256       0.00755458       2.70477501      -0.00001914      -0.00001580      -0.00000102      -5.90691031
Si       9.47899749       1.34619792       4.06578994       0.00000102       0.00001580       0.00001914      -5.90691031
Si       8.11798256       2.70477501       0.00755458      -0.00001914      -0.00000102      -0.00001580      -5.90691031
Si       9.47899749       4.06578994       1.34619792       0.00000102       0.00001914       0.00001580      -5.90691031
Si       5.42576245      -0.00634712       5.42576245       0.00003632      -0.00007668       0.00003632      -5.83790477
Si       6.75801005       1.36009962       6.75801005      -0.00003632       0.00007668      -0.00003632      -5.83790477
Si       5.41397213       2.70501357       8.12557028      -0.00000514      -0.00001440       0.00001406      -5.86761398
Si       6.76980037       4.05820222       9.47875893       0.00000514      -0.00001406       0.00001440      -5.86761398
Si       8.09298908      -0.00301208       8.09298908       0.00002362      -0.00000949       0.00002362      -5.88953412
Si       9.41894482       1.37265418       9.41894482       0.00001061       0.00006028       0.00001061      -5.79839952
Si       8.12557028       2.70501357       5.41397213       0.00001406      -0.00001440      -0.00000514      -5.86761398
Si       9.47875893       4.05820222       6.76980037       0.00001440      -0.00001406       0.00000514      -5.86761398
Si       5.42576245       5.42576245      -0.00634712       0.00003632       0.00003632      -0.00007668      -5.83790477
Si       6.75801005       6.75801005       1.36009962      -0.00003632      -0.00003632       0.00007668      -5.83790477
Si       5.41397213       8.12557028       2.70501357      -0.00000514       0.00001406      -0.00001440      -5.86761398
Si       6.76980037       9.47875893       4.05820222       0.00000514       0.00001440      -0.00001406      -5.86761398
Si       8.12557028       5.41397213       2.70501357       0.00001406      -0.00000514      -0.00001440      -5.86761398
Si       9.47875893       6.76980037       4.05820222       0.00001440       0.00000514      -0.00001406      -5.86761398
Si       8.09298908       8.09298908      -0.00301208       0.00002362       0.00002362      -0.00000949      -5.88953412
Si       9.41894482       9.41894482       1.37265418       0.00001061       0.00001061       0.00006028      -5.79839952
Si       5.41549498       5.41549498       5.41549498      -0.00000375      -0.00000375      -0.00000375      -5.86081487
Si       6.76827752       6.76827752       6.76827752       0.00000375       0.00000375       0.00000375      -5.86081487
Si       5.40778325       8.12089273       8.12089273      -0.00004222      -0.00001981      -0.00001981      -5.85787824
Si       6.76388492       9.47169372       9.47169372      -0.00000745      -0.00001912      -0.00001912      -5.88869054
Si       8.12089273       5.40778325       8.12089273      -0.00001981      -0.00004222      -0.00001981      -5.85787824
Si       9.47169372       6.76388492       9.47169372      -0.00001912      -0.00000745      -0.00001912      -5.88869054
Si       8.12089273       8.12089273       5.40778325      -0.00001981      -0.00001981      -0.00004222      -5.85787824
Si       9.47169372       9.47169372       6.76388492      -0.00001912      -0.00001912      -0.00000745      -5.88869054
H        0.67687625       0.67687625       0.67687625       0.00000000       0.00000000       0.00000000      -0.83605723
