63
Lattice="10.83001999906046 1.3387745725375925e-21 -6.107726461425179e-23 2.4608982960252377e-22 10.83001999906046 -1.5241430401652982e-22 -2.8378206060648215e-21 2.2050263602153795e-22 10.83001999906046" Properties=species:S:1:pos:R:3:forces:R:3:energies:R:1 energy=-365.0687152169837 free_energy=-365.0687152169837 stress="0.0005100552700493811 2.8396838459805608e-11 2.6421806321459007e-11 2.8396838459805608e-11 0.0005100552700493622 2.642180798210115e-11 2.6421806321459007e-11 2.642180798210115e-11 0.0005100552620071919" pbc="T T T"
Si      -0.00000000       0.00000000      -0.00000000       0.04873131       0.04873131      -0.00864444      -5.87168715
Si       1.35375250       1.35375250       1.35375250       0.01744067       0.01744067       0.02909296      -5.85758378
Si       0.00000000       2.70750500       2.70750500      -0.05846525       0.03713314      -0.03713314      -5.85867037
Si       1.35375250       4.06125750       4.06125750       0.01744067      -0.02909295      -0.01744067      -5.85758378
Si       2.70750500       0.00000000       2.70750500       0.03713314      -0.05846525      -0.03713314      -5.85867037
Si       4.06125750       1.35375250       4.06125750      -0.02909295       0.01744067      -0.01744067      -5.85758378
Si       2.70750500       2.70750500       0.00000000      -0.00463278      -0.00463278      -0.00463277      -5.85758378
Si       4.06125750       4.06125750       1.35375250      -0.00000000      -0.00000000       0.00000000      -5.85758378
Si       0.00000000      -0.00000000       5.41501000      -0.32511220      -0.32511220       0.32511220      -5.02890523
Si       1.35375250       1.35375250       6.76876250      -0.15206802      -0.15206802      -0.26173315      -5.79117094
Si       0.00000000       2.70750500       8.12251500       0.04873131      -0.00864444       0.04873130      -5.87168715
Si       1.35375250       4.06125750       9.47626750       0.01744067       0.02909295       0.01744066      -5.85758378
Si       2.70750500      -0.00000000       8.12251500      -0.00864444       0.04873131       0.04873130      -5.87168715
Si       4.06125750       1.35375250       9.47626750       0.02909295       0.01744067       0.01744066      -5.85758378
Si       2.70750500       2.70750500       5.41501000       0.03713314       0.03713314       0.05846526      -5.85867037
Si       4.06125750       4.06125750       6.76876250      -0.00000000      -0.00000000      -0.00000000      -5.85758378
Si       0.00000000       5.41501000      -0.00000000      -0.05846525      -0.03713314       0.03713315      -5.85867037
Si       1.35375250       6.76876250       1.35375250       0.01744067      -0.01744067      -0.02909295      -5.85758378
Si       0.00000000       8.12251500       2.70750500       0.04873131      -0.04873131       0.00864444      -5.87168715
Si       1.35375250       9.47626750       4.06125750      -0.15206802       0.26173315       0.15206802      -5.79117093
Si       2.70750500       5.41501000       2.70750500      -0.00463278       0.00463278       0.00463278      -5.85758378
Si       4.06125750       6.76876250       4.06125750       0.02909295      -0.01744067      -0.01744067      -5.85758378
Si       2.70750500       8.12251500       0.00000000       0.03713314       0.05846526       0.03713315      -5.85867037
Si       4.06125750       9.47626750       1.35375250      -0.00000000      -0.00000001       0.00000000      -5.85758378
Si       0.00000000       5.41501000       5.41501000       0.04873131       0.00864444      -0.04873130      -5.87168715
Si       1.35375250       6.76876250       6.76876250      -0.15206802       0.15206802       0.26173315      -5.79117093
Si      -0.00000000       8.12251500       8.12251500      -0.32511220       0.32511220      -0.32511220      -5.02890523
Si       1.35375250       9.47626750       9.47626750      -0.15206802      -0.26173316      -0.15206803      -5.79117093
Si       2.70750500       5.41501000       8.12251500       0.03713314      -0.03713314      -0.05846526      -5.85867037
Si       4.06125750       6.76876250       9.47626750      -0.02909295      -0.01744067       0.01744066      -5.85758378
Si       2.70750500       8.12251500       5.41501000      -0.00864444      -0.04873131      -0.04873130      -5.87168715
Si       4.06125750       9.47626750       6.76876250       0.00000000      -0.00000001      -0.00000000      -5.84769245
Si       5.41501000      -0.00000000      -0.00000000      -0.03713314      -0.05846525       0.03713315      -5.85867037
Si       6.76876250       1.35375250       1.35375250      -0.01744067       0.01744067      -0.02909295      -5.85758378
Si       5.41501000       2.70750500       2.70750500       0.00463278      -0.00463278       0.00463278      -5.85758378
Si       6.76876250       4.06125750       4.06125750      -0.01744067       0.02909295      -0.01744067      -5.85758378
Si       8.12251500      -0.00000000       2.70750500      -0.04873131       0.04873131       0.00864444      -5.87168715
Si       9.47626750       1.35375250       4.06125750       0.26173315      -0.15206802       0.15206802      -5.79117093
Si       8.12251500       2.70750500      -0.00000000       0.05846526       0.03713314       0.03713315      -5.85867037
Si       9.47626750       4.06125750       1.35375250      -0.00000001      -0.00000000       0.00000000      -5.85758378
Si       5.41501000       0.00000000       5.41501000       0.00864444       0.04873131      -0.04873130      -5.87168715
Si       6.76876250       1.35375250       6.76876250       0.15206802      -0.15206802       0.26173315      -5.79117093
Si       5.41501000       2.70750500       8.12251500      -0.03713314       0.03713314      -0.05846526      -5.85867037
Si       6.76876250       4.06125750       9.47626750      -0.01744067      -0.02909295       0.01744066      -5.85758378
Si       8.12251500       0.00000000       8.12251500       0.32511220      -0.32511220      -0.32511220      -5.02890523
Si       9.47626750       1.35375250       9.47626750      -0.26173316      -0.15206802      -0.15206803      -5.79117093
Si       8.12251500       2.70750500       5.41501000      -0.04873131      -0.00864444      -0.04873130      -5.87168715
Si       9.47626750       4.06125750       6.76876250      -0.00000001       0.00000000      -0.00000000      -5.84769245
Si       5.41501000       5.41501000       0.00000000       0.00463278       0.00463278      -0.00463277      -5.85758378
Si       6.76876250       6.76876250       1.35375250      -0.01744067      -0.01744067       0.02909296      -5.85758378
Si       5.41501000       8.12251500       2.70750500      -0.03713314       0.05846526      -0.03713314      -5.85867037
Si       6.76876250       9.47626750       4.06125750       0.15206802      -0.26173316       0.15206802      -5.79117093
Si       8.12251500       5.41501000       2.70750500       0.05846526      -0.03713314      -0.03713314      -5.85867037
Si       9.47626750       6.76876250       4.06125750      -0.26173316       0.15206802       0.15206802      -5.79117093
Si       8.12251500       8.12251500      -0.00000000      -0.04873131      -0.04873131      -0.00864444      -5.87168715
Si       9.47626750       9.47626750       1.35375250      -0.00000001      -0.00000001       0.00000000      -5.84769245
Si       5.41501000       5.41501000       5.41501000      -0.03713314      -0.03713314       0.05846526      -5.85867037
Si       6.76876250       6.76876250       6.76876250       0.15206802       0.15206802      -0.26173315      -5.79117093
Si       5.41501000       8.12251500       8.12251500       0.00864444      -0.04873131       0.04873130      -5.87168715
Si       6.76876250       9.47626750       9.47626750       0.15206802       0.26173315      -0.15206803      -5.79117093
Si       8.12251500       5.41501000       8.12251500      -0.04873131       0.00864444       0.04873130      -5.87168715
Si       9.47626750       6.76876250       9.47626750       0.26173315       0.15206802      -0.15206803      -5.79117093
Si       8.12251500       8.12251500       5.41501000       0.32511220       0.32511220       0.32511220      -5.02890523
