63
Lattice="10.83001999906046 1.3387745725375925e-21 -6.107726461425179e-23 2.4608982960252377e-22 10.83001999906046 -1.5241430401652982e-22 -2.8378206060648215e-21 2.2050263602153795e-22 10.83001999906046" Properties=species:S:1:pos:R:3:forces:R:3:energies:R:1 energy=-365.5214749912775 free_energy=-365.5214749912775 stress="0.006620292110495601 4.94110199731956e-15 -8.082914983685861e-13 4.94110199731956e-15 0.006620292110495645 -8.08362675957628e-13 -8.082914983685861e-13 -8.08362675957628e-13 0.00662029211047016" pbc="T T T"
Si      -0.00140909      -0.00140909      -0.01765906       0.00000202       0.00000202      -0.00006807      -5.86715219
Si       1.35154087       1.35154087       1.35268605       0.00003095       0.00003095      -0.00004581      -5.84875872
Si      -0.00420065       2.69433891       2.72067109      -0.00005509       0.00003234      -0.00003234      -5.84805733
Si       1.35154087       4.06232395       4.06346913       0.00003095       0.00004581      -0.00003095      -5.84875872
Si       2.69433891      -0.00420065       2.72067109       0.00003234      -0.00005509      -0.00003234      -5.84805733
Si       4.06232395       1.35154087       4.06346913       0.00004581       0.00003095      -0.00003095      -5.84875872
Si       2.70764244       2.70764244       0.00013744       0.00002659       0.00002659       0.00002659      -5.85391165
Si       4.06125750       4.06125750       1.35375250       0.00000000       0.00000000       0.00000000      -5.85414319
Si      -0.14813256      -0.14813256       5.56314256       0.00001604       0.00001604      -0.00001604      -5.19992988
Si       1.30499443       1.30499443       6.73968696      -0.00002748      -0.00002748       0.00005072      -5.79673583
Si      -0.00140909       2.68984594       8.12110591       0.00000202      -0.00006807       0.00000202      -5.86715219
Si       1.35154087       4.06019105       9.47405587       0.00003095      -0.00004581       0.00003095      -5.84875872
Si       2.68984594      -0.00140909       8.12110591      -0.00006807       0.00000202       0.00000202      -5.86715219
Si       4.06019105       1.35154087       9.47405587      -0.00004581       0.00003095       0.00003095      -5.84875872
Si       2.69433891       2.69433891       5.41921065       0.00003234       0.00003234       0.00005509      -5.84805733
Si       4.06125750       4.06125750       6.76876250       0.00000000       0.00000000       0.00000000      -5.85357849
Si      -0.00420065       5.42817609      -0.01316609      -0.00005509      -0.00003234       0.00003234      -5.84805733
Si       1.35154087       6.77097413       1.35481895       0.00003095      -0.00003095       0.00004581      -5.84875872
Si      -0.00140909       8.12392409       2.72516406       0.00000202      -0.00000202       0.00006807      -5.86715219
Si       1.30499443       9.50534304       4.11001557      -0.00002748      -0.00005072       0.00002748      -5.79673583
Si       2.70764244       5.41487256       2.70736756       0.00002659      -0.00002659      -0.00002659      -5.85391165
Si       4.06019105       6.77097413       4.06346913      -0.00004581      -0.00003095      -0.00003095      -5.84875872
Si       2.69433891       8.12671565      -0.01316609       0.00003234       0.00005509       0.00003234      -5.84805733
Si       4.06125750       9.47626750       1.35375250       0.00000000       0.00000000       0.00000000      -5.85357849
Si      -0.00140909       5.43266906       5.41641909       0.00000202       0.00006807      -0.00000202      -5.86715219
Si       1.30499443       6.81752057       6.79783804      -0.00002748       0.00002748      -0.00005072      -5.79673583
Si      -0.14813256       8.27064756       7.97438244       0.00001604      -0.00001604       0.00001604      -5.19992988
Si       1.30499443       9.44719196       9.42750943      -0.00002748       0.00005072      -0.00002748      -5.79673583
Si       2.69433891       5.42817609       8.11831435       0.00003234      -0.00003234      -0.00005509      -5.84805733
Si       4.06232395       6.77097413       9.47405587       0.00004581      -0.00003095       0.00003095      -5.84875872
Si       2.68984594       8.12392409       5.41641909      -0.00006807      -0.00000202      -0.00000202      -5.86715219
Si       4.06125750       9.47626750       6.76876250       0.00000000       0.00000000      -0.00000000      -5.85426048
Si       5.42817609      -0.00420065      -0.01316609      -0.00003234      -0.00005509       0.00003234      -5.84805733
Si       6.77097413       1.35154087       1.35481895      -0.00003095       0.00003095       0.00004581      -5.84875872
Si       5.41487256       2.70764244       2.70736756      -0.00002659       0.00002659      -0.00002659      -5.85391165
Si       6.77097413       4.06019105       4.06346913      -0.00003095      -0.00004581      -0.00003095      -5.84875872
Si       8.12392409      -0.00140909       2.72516406      -0.00000202       0.00000202       0.00006807      -5.86715219
Si       9.50534304       1.30499443       4.11001557      -0.00005072      -0.00002748       0.00002748      -5.79673583
Si       8.12671565       2.69433891      -0.01316609       0.00005509       0.00003234       0.00003234      -5.84805733
Si       9.47626750       4.06125750       1.35375250       0.00000000       0.00000000       0.00000000      -5.85357849
Si       5.43266906      -0.00140909       5.41641909       0.00006807       0.00000202      -0.00000202      -5.86715219
Si       6.81752057       1.30499443       6.79783804       0.00002748      -0.00002748      -0.00005072      -5.79673583
Si       5.42817609       2.69433891       8.11831435      -0.00003234       0.00003234      -0.00005509      -5.84805733
Si       6.77097413       4.06232395       9.47405587      -0.00003095       0.00004581       0.00003095      -5.84875872
Si       8.27064756      -0.14813256       7.97438244      -0.00001604       0.00001604       0.00001604      -5.19992988
Si       9.44719196       1.30499443       9.42750943       0.00005072      -0.00002748      -0.00002748      -5.79673583
Si       8.12392409       2.68984594       5.41641909      -0.00000202      -0.00006807      -0.00000202      -5.86715219
Si       9.47626750       4.06125750       6.76876250       0.00000000       0.00000000      -0.00000000      -5.85426048
Si       5.41487256       5.41487256       0.00013744      -0.00002659      -0.00002659       0.00002659      -5.85391165
Si       6.77097413       6.77097413       1.35268605      -0.00003095      -0.00003095      -0.00004581      -5.84875872
Si       5.42817609       8.12671565       2.72067109      -0.00003234       0.00005509      -0.00003234      -5.84805733
Si       6.81752057       9.44719196       4.11001557       0.00002748       0.00005072       0.00002748      -5.79673583
Si       8.12671565       5.42817609       2.72067109       0.00005509      -0.00003234      -0.00003234      -5.84805733
Si       9.44719196       6.81752057       4.11001557       0.00005072       0.00002748       0.00002748      -5.79673583
Si       8.12392409       8.12392409      -0.01765906      -0.00000202      -0.00000202      -0.00006807      -5.86715219
Si       9.47626750       9.47626750       1.35375250       0.00000000       0.00000000       0.00000000      -5.85426048
Si       5.42817609       5.42817609       5.41921065      -0.00003234      -0.00003234       0.00005509      -5.84805733
Si       6.81752057       6.81752057       6.73968696       0.00002748       0.00002748       0.00005072      -5.79673583
Si       5.43266906       8.12392409       8.12110591       0.00006807      -0.00000202       0.00000202      -5.86715219
Si       6.81752057       9.50534304       9.42750943       0.00002748      -0.00005072      -0.00002748      -5.79673583
Si       8.12392409       5.43266906       8.12110591      -0.00000202       0.00006807       0.00000202      -5.86715219
Si       9.50534304       6.81752057       9.42750943      -0.00005072       0.00002748      -0.00002748      -5.79673583
Si       8.27064756       8.27064756       5.56314256      -0.00001604      -0.00001604      -0.00001604      -5.19992988
