 vasp.6.5.0 16Dec24 (build Jan 20 2025 08:32:48) complex                         
 executed on        HPECrayEX_GCC date 2025.07.29  01:39:50
 running  128 mpi-ranks, with    1 threads/rank, on    1 nodes
 distrk:  each k-point on  128 cores,    1 groups
 distr:  one band on NCORE=  16 cores,    8 groups


--------------------------------------------------------------------------------------------------------


 INCAR:
   SYSTEM = a-Si SPC
   NCORE = 16
   ISTART = 1
   ICHARG = 1
   ISPIN = 1
   ISYM = 1
   EDIFF = 1E-6
   NELM = 150
   EDIFFG = -0.01
   NSW = 0
   ISIF = 2
   IBRION = -1
   PREC = Accurate
   ENCUT = 1200
   KSPACING = 0.23
   KGAMMA = .TRUE.
   METAGGA = SCAN
   LASPH = .TRUE.
   LDIAG = .FALSE.
   LMIXTAU = .TRUE.
   ADDGRID = .TRUE.
   ALGO = Normal
   ISMEAR = 0
   SIGMA = 0.1
   LORBIT = 11
   NEDOS = 2000
   LWAVE = .FALSE.
   LCHARG = .FALSE.

 POTCAR:    PAW_PBE H 15Jun2001                   
 POTCAR:    PAW_PBE Si 05Jan2001                  
 POTCAR:    PAW_PBE H 15Jun2001                   
   SHA256 =  030f79b5d3ab3cf0e668861823c8fb652ff669f3e15e46930bd03bfd63a607b6 H/POTCAR              
   COPYR  = (c) Copyright 15Jun2001 Georg Kresse                                                    
   COPYR  = This file is part of the software VASP. Any use, copying, and all other rights are regul
   COPYR  = If you do not have a valid VASP license, you may not use, copy or distribute this file. 
   VRHFIN =H: ultrasoft test                                                                        
   LEXCH  = PE                                                                                      
   EATOM  =    12.4884 eV,    0.9179 Ry                                                             
                                                                                                    
   TITEL  = PAW_PBE H 15Jun2001                                                                     
   LULTRA =        F    use ultrasoft PP ?                                                          
   IUNSCR =        0    unscreen: 0-lin 1-nonlin 2-no                                               
   RPACOR =    0.000    partial core radius                                                         
   POMASS =    1.000; ZVAL   =    1.000    mass and valenz                                          
   RCORE  =    1.100    outmost cutoff radius                                                       
   RWIGS  =    0.700; RWIGS  =    0.370    wigner-seitz radius (au A)                               
   ENMAX  =  250.000; ENMIN  =  200.000 eV                                                          
   RCLOC  =    0.701    cutoff for local pot                                                        
   LCOR   =        T    correct aug charges                                                         
   LPAW   =        T    paw PP                                                                      
   EAUG   =  400.000                                                                                
   RMAX   =    1.123    core radius for proj-oper                                                   
   RAUG   =    1.200    factor for augmentation sphere                                              
   RDEP   =    1.112    radius for radial grids                                                     
   RDEPT  =    0.926    core radius for aug-charge                                                  
                                                                                                    
   Atomic configuration                                                                             
    2 entries                                                                                       
     n  l   j            E        occ.                                                              
     1  0  0.50        -6.4927   1.0000                                                             
     2  1  0.50        -3.4015   0.0000                                                             
   Description                                                                                      
     l       E           TYP  RCUT    TYP  RCUT                                                     
     0     -6.4927494     23  1.100                                                                 
     0      6.8029130     23  1.100                                                                 
     1     -4.0817478     23  1.100                                                                 
  local pseudopotential read in
  atomic valenz-charges read in
  non local Contribution for L=           0  read in
    real space projection operators read in
  non local Contribution for L=           0  read in
    real space projection operators read in
  non local Contribution for L=           1  read in
    real space projection operators read in
    PAW grid and wavefunctions read in

   number of l-projection  operators is LMAX  =           3
   number of lm-projection operators is LMMAX =           5

 POTCAR:    PAW_PBE Si 05Jan2001                  
   SHA256 =  79d9987ad8750f624c4d6acb2a16d13abf6a777132adc04dc6c8399be72b42bb Si/POTCAR             
   COPYR  = (c) Copyright 05Jan2001 Georg Kresse                                                    
   COPYR  = This file is part of the software VASP. Any use, copying, and all other rights are regul
   COPYR  = If you do not have a valid VASP license, you may not use, copy or distribute this file. 
   VRHFIN =Si: s2p2                                                                                 
   LEXCH  = PE                                                                                      
   EATOM  =   103.0669 eV,    7.5752 Ry                                                             
                                                                                                    
   TITEL  = PAW_PBE Si 05Jan2001                                                                    
   LULTRA =        F    use ultrasoft PP ?                                                          
   IUNSCR =        1    unscreen: 0-lin 1-nonlin 2-no                                               
   RPACOR =    1.500    partial core radius                                                         
   POMASS =   28.085; ZVAL   =    4.000    mass and valenz                                          
   RCORE  =    1.900    outmost cutoff radius                                                       
   RWIGS  =    2.480; RWIGS  =    1.312    wigner-seitz radius (au A)                               
   ENMAX  =  245.345; ENMIN  =  184.009 eV                                                          
   ICORE  =        2    local potential                                                             
   LCOR   =        T    correct aug charges                                                         
   LPAW   =        T    paw PP                                                                      
   EAUG   =  322.069                                                                                
   DEXC   =    0.000                                                                                
   RMAX   =    1.950    core radius for proj-oper                                                   
   RAUG   =    1.300    factor for augmentation sphere                                              
   RDEP   =    1.993    radius for radial grids                                                     
   RDEPT  =    1.837    core radius for aug-charge                                                  
                                                                                                    
   Atomic configuration                                                                             
    6 entries                                                                                       
     n  l   j            E        occ.                                                              
     1  0  0.50     -1785.8828   2.0000                                                             
     2  0  0.50      -139.4969   2.0000                                                             
     2  1  1.50       -95.5546   6.0000                                                             
     3  0  0.50       -10.8127   2.0000                                                             
     3  1  0.50        -4.0811   2.0000                                                             
     3  2  1.50        -4.0817   0.0000                                                             
   Description                                                                                      
     l       E           TYP  RCUT    TYP  RCUT                                                     
     0    -10.8127223     23  1.900                                                                 
     0     -7.6451159     23  1.900                                                                 
     1     -4.0811372     23  1.900                                                                 
     1      2.4879257     23  1.900                                                                 
     2     -4.0817478      7  1.900                                                                 
  local pseudopotential read in
  partial core-charges read in
  partial kinetic energy density read in
  atomic valenz-charges read in
  non local Contribution for L=           0  read in
    real space projection operators read in
  non local Contribution for L=           0  read in
    real space projection operators read in
  non local Contribution for L=           1  read in
    real space projection operators read in
  non local Contribution for L=           1  read in
    real space projection operators read in
    PAW grid and wavefunctions read in

   number of l-projection  operators is LMAX  =           4
   number of lm-projection operators is LMMAX =           8

 -----------------------------------------------------------------------------
|                                                                             |
|               ----> ADVICE to this user running VASP <----                  |
|                                                                             |
|     You have a (more or less) 'large supercell' and for larger cells it     |
|     might be more efficient to use real-space projection operators.         |
|     Therefore, try LREAL= Auto in the INCAR file.                           |
|     Mind: For very accurate calculation, you might also keep the            |
|     reciprocal projection scheme (i.e. LREAL=.FALSE.).                      |
|                                                                             |
 -----------------------------------------------------------------------------

 -----------------------------------------------------------------------------
|                                                                             |
|               ----> ADVICE to this user running VASP <----                  |
|                                                                             |
|     You enforced a specific xc type in the INCAR file but a different       |
|     type was found in the POTCAR file.                                      |
|     I HOPE YOU KNOW WHAT YOU ARE DOING!                                     |
|                                                                             |
 -----------------------------------------------------------------------------

  PAW_PBE H 15Jun2001                   :
 energy of atom  1       EATOM=  -12.4884
 kinetic energy error for atom=    0.0000 (will be added to EATOM!!)
  PAW_PBE Si 05Jan2001                  :
 energy of atom  2       EATOM= -103.0669
 kinetic energy error for atom=    0.0001 (will be added to EATOM!!)


 POSCAR:  H Si
  positions in cartesian coordinates
  No initial velocities read in


 exchange-correlation table for SCAN
   RHO(1)=    0.500       N(1)  =     2000
   RHO(2)=  100.500       N(2)  =     4000



--------------------------------------------------------------------------------------------------------


 ion  position               nearest neighbor table
   1  0.847  0.044  0.356-  62 1.48
   2  0.009  0.681  0.634-   7 0.74
   3  0.049  0.564  0.576-  67 1.49
   4  0.144  0.886  0.561-  27 1.49
   5  0.018  0.837  0.346-  69 1.49
   6  0.298  0.663  0.533-  35 1.50
   7  0.057  0.689  0.625-   2 0.74
   8  0.186  0.722  0.621-  11 0.75
   9  0.087  0.696  0.557-  63 1.48
  10  0.882  0.700  0.535-  34 1.50
  11  0.229  0.747  0.616-   8 0.75
  12  0.327  0.587  0.636-  54 1.48
  13  0.888  0.632  0.626-  14 0.81
  14  0.838  0.611  0.621-  13 0.81  43 2.00
  15  0.694  0.842  0.526-  80 2.30  68 2.31  64 2.33  37 2.35  41 2.97
  16  0.151  0.612  0.448-  76 2.31  70 2.35  63 2.37  31 2.39
  17  0.912  0.406  0.571-  67 2.29  49 2.34  47 2.35
  18  0.009  0.812  0.466-  69 2.33  63 2.34  61 2.34  34 2.36
  19  0.661  0.097  0.558-  68 2.29  23 2.34  59 2.37  32 2.45
  20  0.377  0.839  0.571-  35 2.35  30 2.40  26 2.41
  21  0.779  0.249  0.387-  62 2.36  45 2.36  51 2.37
  22  0.441  0.449  0.565-  54 2.30  33 2.31  29 2.34  75 2.34
  23  0.701  0.230  0.513-  71 2.31  45 2.34  19 2.34  39 2.36  32 2.77
  24  0.093  0.994  0.415-  38 2.35  69 2.37  61 2.38
  25  0.182  0.399  0.572-  29 2.29  67 2.29  78 2.30
  26  0.477  0.708  0.576-  54 2.31  41 2.33  46 2.37  20 2.41
  27  0.126  0.981  0.543-   4 1.49  44 2.34  61 2.36  38 2.38
  28  0.409  0.314  0.415-  79 2.30  58 2.32  52 2.32  57 2.36
  29  0.305  0.423  0.521-  25 2.29  22 2.34  70 2.36  58 2.38  79 3.10
  30  0.448  0.938  0.510-  37 2.34  36 2.36  59 2.38  20 2.40
  31  0.189  0.720  0.383-  69 2.34  77 2.36  16 2.39
  32  0.742  0.204  0.614-  71 2.37  19 2.45  47 2.45  23 2.77
  33  0.496  0.313  0.599-  71 2.31  22 2.31  50 2.33
  34  0.888  0.707  0.479-  10 1.50  64 2.31  73 2.31  18 2.36
  35  0.280  0.759  0.516-   6 1.50  63 2.33  20 2.35  77 2.38
  36  0.345  0.939  0.442-  60 2.35  30 2.36  38 2.39  77 2.47
  37  0.556  0.832  0.480-  30 2.34  15 2.35  42 2.37  46 2.69  82 2.82  64 3.03
  38  0.214  0.022  0.472-  24 2.35  27 2.38  36 2.39  65 2.42  60 3.06
  39  0.860  0.204  0.507-  47 2.29  51 2.31  81 2.32  23 2.36
  40  0.406  0.632  0.433-  46 2.32  70 2.37  72 2.41  77 2.43
  41  0.632  0.697  0.597-  80 2.26  43 2.28  26 2.33  15 2.97
  42  0.643  0.856  0.405-  37 2.37  64 2.40  48 2.42  82 2.72
  43  0.709  0.565  0.614-  14 2.00  41 2.28  66 2.34
  44  0.146  0.075  0.614-  74 2.30  83 2.32  27 2.34  78 2.91
  45  0.643  0.267  0.434-  23 2.34  21 2.36  55 2.38  57 2.42
  46  0.516  0.654  0.494-  40 2.32  82 2.35  26 2.37  75 2.42  37 2.69  72 3.06
  47  0.897  0.247  0.587-  39 2.29  74 2.31  17 2.35  32 2.45
  48  0.665  0.017  0.424-  62 2.36  55 2.36  68 2.38  42 2.42
  49  0.827  0.444  0.499-  73 2.33  17 2.34  66 2.37  51 2.42
  50  0.413  0.198  0.558-  33 2.33  58 2.34  59 2.35  83 2.36
  51  0.877  0.318  0.447-  39 2.31  53 2.31  21 2.37  49 2.42
  52  0.427  0.161  0.392-  55 2.28  60 2.28  28 2.32
  53  0.027  0.361  0.431-  56 2.26  76 2.29  51 2.31
  54  0.421  0.577  0.615-  12 1.48  22 2.30  26 2.31
  55  0.553  0.131  0.440-  52 2.28  48 2.36  45 2.38  59 2.41
  56  0.155  0.280  0.411-  53 2.26  79 2.31  65 2.35
  57  0.543  0.400  0.432-  28 2.36  75 2.37  45 2.42  72 2.50
  58  0.342  0.273  0.491-  28 2.32  65 2.34  50 2.34  29 2.38  79 2.97
  59  0.511  0.086  0.524-  50 2.35  19 2.37  30 2.38  55 2.41
  60  0.327  0.044  0.376-  52 2.28  36 2.35  38 3.06
  61  0.001  0.968  0.488-  81 2.31  18 2.34  27 2.36  24 2.38
  62  0.802  0.090  0.399-   1 1.48  48 2.36  21 2.36  81 2.39
  63  0.123  0.728  0.508-   9 1.48  35 2.33  18 2.34  16 2.37
  64  0.749  0.768  0.454-  34 2.31  82 2.33  15 2.33  42 2.40  37 3.03
  65  0.208  0.188  0.478-  58 2.34  56 2.35  78 2.40  38 2.42
  66  0.690  0.465  0.545-  43 2.34  75 2.34  71 2.35  49 2.37
  67  0.049  0.473  0.550-   3 1.49  25 2.29  17 2.29  76 2.40
  68  0.728  0.992  0.505-  19 2.29  15 2.31  81 2.33  48 2.38
  69  0.081  0.839  0.390-   5 1.49  18 2.33  31 2.34  24 2.37
  70  0.288  0.526  0.453-  79 2.34  16 2.35  29 2.36  40 2.37
  71  0.650  0.321  0.578-  33 2.31  23 2.31  66 2.35  32 2.37
  72  0.534  0.557  0.393-  82 2.39  40 2.41  57 2.50  46 3.06  75 3.13
  73  0.888  0.559  0.448-  76 2.29  34 2.31  49 2.33
  74  0.041  0.193  0.608-  78 2.29  44 2.30  47 2.31
  75  0.549  0.492  0.505-  22 2.34  66 2.34  57 2.37  46 2.42  72 3.13
  76  0.035  0.507  0.462-  73 2.29  53 2.29  16 2.31  67 2.40
  77  0.316  0.773  0.430-  31 2.36  35 2.38  40 2.43  36 2.47
  78  0.156  0.246  0.557-  74 2.29  25 2.30  83 2.31  65 2.40  44 2.91
  79  0.271  0.389  0.408-  28 2.30  56 2.31  70 2.34  58 2.97  29 3.10
  80  0.719  0.823  0.610-  41 2.26  15 2.30
  81  0.868  0.053  0.479-  61 2.31  39 2.32  68 2.33  62 2.39
  82  0.626  0.676  0.430-  64 2.33  46 2.35  72 2.39  42 2.72  37 2.82
  83  0.272  0.169  0.599-  78 2.31  44 2.32  50 2.36

  LATTYP: Found a simple tetragonal cell.
 ALAT       =    14.5492154081
 C/A-ratio  =     1.8326801585
  
  Lattice vectors:
  
 A1 = (  14.5492154081,   0.0000000000,   0.0000000000)
 A2 = (   0.0000000000,  14.5492154081,   0.0000000000)
 A3 = (   0.0000000000,   0.0000000000,  26.6640584000)


Analysis of symmetry for initial positions (statically):
=====================================================================
 Subroutine PRICEL returns:
 Original cell was already a primitive cell.
 

 Routine SETGRP: Setting up the symmetry group for a 
 simple tetragonal supercell.


 Subroutine GETGRP returns: Found  1 space group operations
 (whereof  1 operations were pure point group operations)
 out of a pool of 16 trial point group operations.


The static configuration has the point symmetry C_1 .


Analysis of symmetry for dynamics (positions and initial velocities):
=====================================================================
 Subroutine PRICEL returns:
 Original cell was already a primitive cell.
 

 Routine SETGRP: Setting up the symmetry group for a 
 simple tetragonal supercell.


 Subroutine GETGRP returns: Found  1 space group operations
 (whereof  1 operations were pure point group operations)
 out of a pool of 16 trial point group operations.


The dynamic configuration has the point symmetry C_1 .


 Subroutine INISYM returns: Found  1 space group operations
 (whereof  1 operations are pure point group operations),
 and found     1 'primitive' translations


----------------------------------------------------------------------------------------

                                     Primitive cell                                     

  volume of cell :    5644.2391

  direct lattice vectors                    reciprocal lattice vectors
    14.549215408  0.000000000  0.000000000     0.068732229  0.000000000  0.000000000
     0.000000000 14.549215408  0.000000000     0.000000000  0.068732229  0.000000000
     0.000000000  0.000000000 26.664058400     0.000000000  0.000000000  0.037503668

  length of vectors
    14.549215408 14.549215408 26.664058400     0.068732229  0.068732229  0.037503668

  position of ions in fractional coordinates (direct lattice)
     0.847389059  0.044112615  0.356150338
     0.009063625  0.680607939  0.634411738
     0.048709848  0.563777604  0.575911082
     0.144002193  0.885735809  0.561093982
     0.017957251  0.837434615  0.345944232
     0.297958397  0.662560014  0.533120756
     0.056656659  0.688517618  0.625199195
     0.185728280  0.721538639  0.620514779
     0.086889676  0.696029404  0.556625691
     0.881504131  0.700013949  0.535096709
     0.229488653  0.746875487  0.615944964
     0.327298810  0.586776986  0.636073564
     0.888296895  0.631763084  0.626481875
     0.837937083  0.610565760  0.620753975
     0.693667426  0.841887492  0.525820703
     0.151499851  0.611814903  0.447901624
     0.911501057  0.405511158  0.571022996
     0.009166801  0.812238510  0.466442451
     0.660642235  0.097030283  0.558133069
     0.377091806  0.839075222  0.571192446
     0.778634909  0.249264838  0.386884190
     0.440892945  0.449122319  0.565476781
     0.700705304  0.229512112  0.513268781
     0.092700479  0.994437383  0.415492546
     0.181757542  0.399179329  0.572247184
     0.477189904  0.707561691  0.575556241
     0.126163968  0.981480239  0.543416312
     0.409201269  0.313832632  0.415092757
     0.305218532  0.423191542  0.520858833
     0.447918263  0.937557277  0.510208653
     0.188758116  0.719528460  0.383357135
     0.742104860  0.203557620  0.613677602
     0.495701386  0.313299388  0.598704809
     0.888193643  0.706994481  0.479207438
     0.279550286  0.759495762  0.516259294
     0.344628698  0.939118452  0.441791029
     0.556286087  0.832492906  0.479502217
     0.214060625  0.022301569  0.471521614
     0.860313406  0.204100359  0.506636711
     0.405609421  0.632151243  0.432709095
     0.631923997  0.697322603  0.596826476
     0.642698378  0.856030886  0.405369806
     0.709311567  0.564804430  0.613515690
     0.145910400  0.075090708  0.613846456
     0.642822117  0.267115381  0.434157433
     0.516387048  0.654296353  0.494274824
     0.897206288  0.247419553  0.586885836
     0.665257530  0.017492492  0.424138201
     0.827232976  0.443752604  0.499298605
     0.413052625  0.198374214  0.558226785
     0.877197353  0.317696870  0.446813298
     0.426980708  0.160911706  0.391898790
     0.027159121  0.361187864  0.430650391
     0.420737687  0.577498840  0.614778981
     0.552746425  0.130633402  0.439921756
     0.155150748  0.280372768  0.411066645
     0.543331889  0.400479650  0.431612504
     0.342019694  0.273498536  0.490806658
     0.510800052  0.086434251  0.523873396
     0.327492189  0.043811161  0.375514023
     0.000947898  0.968148712  0.487874930
     0.802261816  0.090498425  0.399078725
     0.123054906  0.728188181  0.507874062
     0.748827764  0.767610643  0.454417997
     0.207827188  0.188339487  0.477751523
     0.689621984  0.465346326  0.545284396
     0.048808420  0.472715984  0.550018250
     0.727970406  0.992314771  0.505279623
     0.081450853  0.838677168  0.389667502
     0.287755617  0.526149182  0.452972677
     0.649606638  0.321160801  0.578459067
     0.534460848  0.556911642  0.393040442
     0.888216568  0.558868925  0.448201714
     0.040708099  0.192924239  0.608463534
     0.549148137  0.492214603  0.504896689
     0.034522817  0.507405233  0.462482258
     0.316190931  0.773305190  0.429574498
     0.155603116  0.245856542  0.557273665
     0.270833824  0.389429554  0.407632080
     0.719190827  0.823029296  0.610446613
     0.867648852  0.053258143  0.478862316
     0.625596737  0.675590211  0.430358857
     0.271910651  0.168959342  0.598766235

  ion indices of the primitive-cell ions
   primitive index   ion index
                 1           1
                 2           2
                 3           3
                 4           4
                 5           5
                 6           6
                 7           7
                 8           8
                 9           9
                10          10
                11          11
                12          12
                13          13
                14          14
                15          15
                16          16
                17          17
                18          18
                19          19
                20          20
                21          21
                22          22
                23          23
                24          24
                25          25
                26          26
                27          27
                28          28
                29          29
                30          30
                31          31
                32          32
                33          33
                34          34
                35          35
                36          36
                37          37
                38          38
                39          39
                40          40
                41          41
                42          42
                43          43
                44          44
                45          45
                46          46
                47          47
                48          48
                49          49
                50          50
                51          51
                52          52
                53          53
                54          54
                55          55
                56          56
                57          57
                58          58
                59          59
                60          60
                61          61
                62          62
                63          63
                64          64
                65          65
                66          66
                67          67
                68          68
                69          69
                70          70
                71          71
                72          72
                73          73
                74          74
                75          75
                76          76
                77          77
                78          78
                79          79
                80          80
                81          81
                82          82
                83          83

----------------------------------------------------------------------------------------


 -----------------------------------------------------------------------------
|                                                                             |
|           W    W    AA    RRRRR   N    N  II  N    N   GGGG   !!!           |
|           W    W   A  A   R    R  NN   N  II  NN   N  G    G  !!!           |
|           W    W  A    A  R    R  N N  N  II  N N  N  G       !!!           |
|           W WW W  AAAAAA  RRRRR   N  N N  II  N  N N  G  GGG   !            |
|           WW  WW  A    A  R   R   N   NN  II  N   NN  G    G                |
|           W    W  A    A  R    R  N    N  II  N    N   GGGG   !!!           |
|                                                                             |
|     The requested file  could not be found or opened for reading            |
|     k-point information. Automatic k-point generation is used as a          |
|     fallback, which may lead to unwanted results.                           |
|                                                                             |
 -----------------------------------------------------------------------------



Automatic generation of k-mesh.
 Grid dimensions derived from KSPACING:
 generate k-points for:    2    2    2

 Generating k-lattice:

  Cartesian coordinates                     Fractional coordinates (reciprocal lattice)
     0.034366114  0.000000000  0.000000000     0.500000000  0.000000000  0.000000000
     0.000000000  0.034366114  0.000000000     0.000000000  0.500000000  0.000000000
     0.000000000  0.000000000  0.018751834     0.000000000  0.000000000  0.500000000

  Length of vectors
     0.034366114  0.034366114  0.018751834

  Shift w.r.t. Gamma in fractional coordinates (k-lattice)
     0.000000000  0.000000000  0.000000000

 
 Subroutine IBZKPT returns following result:
 ===========================================
 
 Found      8 irreducible k-points:
 
 Following reciprocal coordinates:
            Coordinates               Weight
  0.000000  0.000000  0.000000      1.000000
  0.500000  0.000000  0.000000      1.000000
  0.000000  0.500000  0.000000      1.000000
  0.500000  0.500000  0.000000      1.000000
  0.000000  0.000000  0.500000      1.000000
  0.500000  0.000000  0.500000      1.000000
  0.000000  0.500000  0.500000      1.000000
  0.500000  0.500000  0.500000      1.000000
 
 Following cartesian coordinates:
            Coordinates               Weight
  0.000000  0.000000  0.000000      1.000000
  0.034366  0.000000  0.000000      1.000000
  0.000000  0.034366  0.000000      1.000000
  0.034366  0.034366  0.000000      1.000000
  0.000000  0.000000  0.018752      1.000000
  0.034366  0.000000  0.018752      1.000000
  0.000000  0.034366  0.018752      1.000000
  0.034366  0.034366  0.018752      1.000000
 


--------------------------------------------------------------------------------------------------------




 Dimension of arrays:
   k-points           NKPTS =      8   k-points in BZ     NKDIM =      8   number of bands    NBANDS=    192
   number of dos      NEDOS =   2000   number of ions     NIONS =     83
   non local maximal  LDIM  =      4   non local SUM 2l+1 LMDIM =      8
   total plane-waves  NPLWV = ******
   max r-space proj   IRMAX =      1   max aug-charges    IRDMAX= 428159
   dimension x,y,z NGX =   168 NGY =  168 NGZ =  320
   dimension x,y,z NGXF=   336 NGYF=  336 NGZF=  640
   support grid    NGXF=   672 NGYF=  672 NGZF= 1280
   ions per type =              14  69
   NGX,Y,Z   is equivalent  to a cutoff of  19.20, 19.20, 19.95 a.u.
   NGXF,Y,Z  is equivalent  to a cutoff of  38.39, 38.39, 39.90 a.u.

 SYSTEM =  a-Si SPC                                
 POSCAR =   H Si                                   

 Startparameter for this run:
   NWRITE =      2    write-flag & timer
   PREC   = accura    normal or accurate (medium, high low for compatibility)
   ISTART =      1    job   : 0-new  1-cont  2-samecut
   ICHARG =      1    charge: 1-file 2-atom 10-const
   ISPIN  =      1    spin polarized calculation?
   LNONCOLLINEAR =      F non collinear calculations
   LSORBIT =      F    spin-orbit coupling
   INIWAV =      1    electr: 0-lowe 1-rand  2-diag
   LASPH  =      T    aspherical Exc in radial PAW
 Electronic Relaxation 1
   ENCUT  = 1200.0 eV  88.20 Ry    9.39 a.u.  41.09 41.09 75.31*2*pi/ulx,y,z
   ENINI  = 1200.0     initial cutoff
   ENAUG  =  400.0 eV  augmentation charge cutoff
   NELM   =    150;   NELMIN=  2; NELMDL=  0     # of ELM steps 
   EDIFF  = 0.1E-05   stopping-criterion for ELM
   LREAL  =      F    real-space projection
   NLSPLINE    = F    spline interpolate recip. space projectors
   LCOMPAT=      F    compatible to vasp.4.4
   GGA_COMPAT  = T    GGA compatible to vasp.4.4-vasp.4.6
   LMAXPAW     = -100 max onsite density
   LMAXMIX     =    2 max onsite mixed and CHGCAR
   VOSKOWN=      0    Vosko Wilk Nusair interpolation
   ROPT   =    0.00000   0.00000
 Ionic relaxation
   EDIFFG = -.1E-01   stopping-criterion for IOM
   NSW    =      0    number of steps for IOM
   NBLOCK =      1;   KBLOCK =      1    inner block; outer block 
   IBRION =     -1    ionic relax: 0-MD 1-quasi-New 2-CG
   NFREE  =      0    steps in history (QN), initial steepest desc. (CG)
   ISIF   =      2    stress and relaxation
   IWAVPR =     10    prediction:  0-non 1-charg 2-wave 3-comb
   ISYM   =      1    0-nonsym 1-usesym 2-fastsym
   LCORR  =      T    Harris-Foulkes like correction to forces

   POTIM  = 0.5000    time-step for ionic-motion
   TEIN   =    0.0    initial temperature
   TEBEG  =    0.0;   TEEND  =   0.0 temperature during run
   SMASS  =  -3.00    Nose mass-parameter (am)
   estimated Nose-frequenzy (Omega)   =  0.10E-29 period in steps = 0.13E+47 mass=  -0.484E-26a.u.
   SCALEE = 1.0000    scale energy and forces
   NPACO  =    256;   APACO  = 10.0  distance and # of slots for P.C.
   PSTRESS=    0.0 pullay stress

  Mass of Ions in am
   POMASS =   1.00 28.09
  Ionic Valenz
   ZVAL   =   1.00  4.00
  Atomic Wigner-Seitz radii
   RWIGS  =  -1.00 -1.00
  virtual crystal weights 
   VCA    =   1.00  1.00
   NELECT =     290.0000    total number of electrons
   NUPDOWN=      -1.0000    fix difference up-down

 DOS related values:
   EMIN   =  10.00;   EMAX   =-10.00  energy-range for DOS
   EFERMI =   0.00;   METHOD = LEGACY      
   ISMEAR =     0;   SIGMA  =   0.10  broadening in eV -4-tet -1-fermi 0-gaus
   EFERMI_NEDOS =   21; number of points for ismear=-14 and -15

 Electronic relaxation 2 (details)
   IALGO  =     38    algorithm
   LDIAG  =      F    sub-space diagonalisation (order eigenvalues)
   LSUBROT=      F    optimize rotation matrix (better conditioning)
   TURBO    =      0    0=normal 1=particle mesh
   IRESTART =      0    0=no restart 2=restart with 2 vectors
   NREBOOT  =      0    no. of reboots
   NMIN     =      0    reboot dimension
   EREF     =   0.00    reference energy to select bands
   IMIX   =      4    mixing-type and parameters
     AMIX     =   0.40;   BMIX     =  1.00
     AMIX_MAG =   1.60;   BMIX_MAG =  1.00
     AMIN     =   0.10
     WC   =   100.;   INIMIX=   1;  MIXPRE=   1;  MAXMIX= -45

 Intra band minimization:
   WEIMIN = 0.0000     energy-eigenvalue tresh-hold
   EBREAK =  0.13E-08  absolut break condition
   DEPER  =   0.30     relativ break condition  

   TIME   =   0.40     timestep for ELM

  volume/ion in A,a.u.               =      68.00       458.91
  Fermi-wavevector in a.u.,A,eV,Ry     =   0.608610  1.150106  5.039680  0.370406
  Thomas-Fermi vector in A             =   1.663502

 Write flags
   LWAVE        =      F    write WAVECAR
   LDOWNSAMPLE  =      F    k-point downsampling of WAVECAR
   LCHARG       =      F    write CHGCAR
   LVTOT        =      F    write LOCPOT, total local potential
   LVHAR        =      F    write LOCPOT, Hartree potential only
   WRT_POTENTIAL= false  ! write potential to hdf5 file
   LELF         =      F    write electronic localiz. function (ELF)
   LORBIT       =     11    0 simple, 1 ext, 2 COOP (PROOUT), +10 PAW based schemes


 Python interface
   PLUGINS active      =      F    recompile with -DPLUGINS to activate

 Dipole corrections
   LMONO      =      F    monopole corrections only (constant potential shift)
   LDIPOL     =      F    correct potential (dipole corrections)
   IDIPOL     =      0    1-x, 2-y, 3-z, 4-all directions 
   EPSILON    =  1.0000000 bulk dielectric constant
   LVACPOTAV  =      F  vacuum potentials using an averaging scheme for the charge density
   VACPOTFLAT =  0.1000000 required flatness to determine vacuum potential

Coulomb truncation method
  LTRUNCATE          =      F  Coulomb kernel truncation to be used
  IDIMENSIONALITY    =      3  Dimensionality of cutoff (0 molecules / 2 surfaces)
  ISURFACE           =     -1  Direction of surface normal
  LCOARSEN           =      F  Coarsen the charge grid before padding, preferred


 Exchange correlation treatment:
   METAGGA = SCAN    functional components
   XC_C    = 1    coefficients multiplying the functional components
   LIBXC   =     F    Libxc                    
   VOSKOWN =     0    Vosko Wilk Nusair interpolation
   LHFCALC =     F    Hartree Fock is set to
   LHFONE  =     F    Hartree Fock one center treatment
   AEXX    =    0.0000 exact exchange contribution

 Parameters of functionals:
   SCAN:
     P1 =  0.000000E+00
     P2 =  0.000000E+00
     P3 =  0.000000E+00

 Accuracy and mixing parameters for tau-dependent meta-GGA functionals:
   LMAXTAU = 6
   LMIXTAU = T

 Van der Waals corrections
   IVDW    =     0    specifies the selected vdW correction

 Linear response parameters
   LEPSILON=     F    determine dielectric tensor
   LRPA    =     F    only Hartree local field effects (RPA)
   LNABLA  =     F    use nabla operator in PAW spheres
   LVEL    =     F    velocity operator in full k-point grid
   CSHIFT  =0.1000    complex shift for real part using Kramers Kronig
   OMEGAMAX=  -1.0    maximum frequency
   DEG_THRESHOLD= 0.2000000E-02 threshold for treating states as degnerate
   RTIME   =   -0.100 relaxation time in fs
  (WPLASMAI=    0.000 imaginary part of plasma frequency in eV, 0.658/RTIME)
   DFIELD  = 0.0000000 0.0000000 0.0000000 field for delta impulse in time

  Optional k-point grid parameters
   LKPOINTS_OPT  =     F    use optional k-point grid
   KPOINTS_OPT_MODE=     1    mode for optional k-point grid

 Orbital magnetization related:
   ORBITALMAG=     F  switch on orbital magnetization
   LCHIMAG   =     F  perturbation theory with respect to B field
   DQ        =  0.001000  dq finite difference perturbation B field
   LLRAUG    =     F  two centre corrections for induced B field
   LBONE     =     F  B-component reconstruction in AE one-centre
   LVGVCALC  =     T  calculate vGv susceptibility
   LVGVAPPL  =     F  apply vGv susceptibility instead of pGv for G=0

 Random number generation:
   RANDOM_GENERATOR = DEFAULT
   PCG_SEED         = not used


--------------------------------------------------------------------------------------------------------


 Static calculation
 charge density and potential will be updated during run
 non-spin polarized calculation
 Variant of blocked Davidson
 perform Loewdin sub-space diagonalisation
    ordering is kept fixed
    before iterative eigenvector-optimisation
 modified Broyden-mixing scheme, WC =      100.0
 initial mixing is a Kerker type mixing with AMIX =  0.4000 and BMIX =      1.0000
 Hartree-type preconditioning will be used
 using additional bands           47
 reciprocal scheme for non local part
 use partial core corrections
 calculate Harris-corrections to forces   (improved forces if not selfconsistent)
 use gradient corrections 
 use of overlap-Matrix (Vanderbilt PP)
 Gauss-broadening in eV      SIGMA  =   0.10


--------------------------------------------------------------------------------------------------------


  energy-cutoff  :     1200.00
  volume of cell :     5644.24
      direct lattice vectors                 reciprocal lattice vectors
    14.549215408  0.000000000  0.000000000     0.068732229  0.000000000  0.000000000
     0.000000000 14.549215408  0.000000000     0.000000000  0.068732229  0.000000000
     0.000000000  0.000000000 26.664058400     0.000000000  0.000000000  0.037503668

  length of vectors
    14.549215408 14.549215408 26.664058400     0.068732229  0.068732229  0.037503668



 old parameters found on file WAVECAR:
  energy-cutoff  :     1200.00
  volume of cell :     5644.24
      direct lattice vectors                 reciprocal lattice vectors
    14.549215408  0.000000000  0.000000000     0.068732229  0.000000000  0.000000000
     0.000000000 14.549215408  0.000000000     0.000000000  0.068732229  0.000000000
     0.000000000  0.000000000 26.664058400     0.000000000  0.000000000  0.037503668

  length of vectors


 k-points in units of 2pi/SCALE and weight: read from INCAR                         
   0.00000000  0.00000000  0.00000000       0.125
   0.03436611  0.00000000  0.00000000       0.125
   0.00000000  0.03436611  0.00000000       0.125
   0.03436611  0.03436611  0.00000000       0.125
   0.00000000  0.00000000  0.01875183       0.125
   0.03436611  0.00000000  0.01875183       0.125
   0.00000000  0.03436611  0.01875183       0.125
   0.03436611  0.03436611  0.01875183       0.125

 k-points in reciprocal lattice and weights: read from INCAR                         
   0.00000000  0.00000000  0.00000000       0.125
   0.50000000  0.00000000  0.00000000       0.125
   0.00000000  0.50000000  0.00000000       0.125
   0.50000000  0.50000000  0.00000000       0.125
   0.00000000  0.00000000  0.50000000       0.125
   0.50000000  0.00000000  0.50000000       0.125
   0.00000000  0.50000000  0.50000000       0.125
   0.50000000  0.50000000  0.50000000       0.125

 position of ions in fractional coordinates (direct lattice) 
   0.84738906  0.04411262  0.35615034
   0.00906362  0.68060794  0.63441174
   0.04870985  0.56377760  0.57591108
   0.14400219  0.88573581  0.56109398
   0.01795725  0.83743461  0.34594423
   0.29795840  0.66256001  0.53312076
   0.05665666  0.68851762  0.62519920
   0.18572828  0.72153864  0.62051478
   0.08688968  0.69602940  0.55662569
   0.88150413  0.70001395  0.53509671
   0.22948865  0.74687549  0.61594496
   0.32729881  0.58677699  0.63607356
   0.88829689  0.63176308  0.62648188
   0.83793708  0.61056576  0.62075397
   0.69366743  0.84188749  0.52582070
   0.15149985  0.61181490  0.44790162
   0.91150106  0.40551116  0.57102300
   0.00916680  0.81223851  0.46644245
   0.66064223  0.09703028  0.55813307
   0.37709181  0.83907522  0.57119245
   0.77863491  0.24926484  0.38688419
   0.44089295  0.44912232  0.56547678
   0.70070530  0.22951211  0.51326878
   0.09270048  0.99443738  0.41549255
   0.18175754  0.39917933  0.57224718
   0.47718990  0.70756169  0.57555624
   0.12616397  0.98148024  0.54341631
   0.40920127  0.31383263  0.41509276
   0.30521853  0.42319154  0.52085883
   0.44791826  0.93755728  0.51020865
   0.18875812  0.71952846  0.38335713
   0.74210486  0.20355762  0.61367760
   0.49570139  0.31329939  0.59870481
   0.88819364  0.70699448  0.47920744
   0.27955029  0.75949576  0.51625929
   0.34462870  0.93911845  0.44179103
   0.55628609  0.83249291  0.47950222
   0.21406063  0.02230157  0.47152161
   0.86031341  0.20410036  0.50663671
   0.40560942  0.63215124  0.43270909
   0.63192400  0.69732260  0.59682648
   0.64269838  0.85603089  0.40536981
   0.70931157  0.56480443  0.61351569
   0.14591040  0.07509071  0.61384646
   0.64282212  0.26711538  0.43415743
   0.51638705  0.65429635  0.49427482
   0.89720629  0.24741955  0.58688584
   0.66525753  0.01749249  0.42413820
   0.82723298  0.44375260  0.49929860
   0.41305262  0.19837421  0.55822679
   0.87719735  0.31769687  0.44681330
   0.42698071  0.16091171  0.39189879
   0.02715912  0.36118786  0.43065039
   0.42073769  0.57749884  0.61477898
   0.55274642  0.13063340  0.43992176
   0.15515075  0.28037277  0.41106665
   0.54333189  0.40047965  0.43161250
   0.34201969  0.27349854  0.49080666
   0.51080005  0.08643425  0.52387340
   0.32749219  0.04381116  0.37551402
   0.00094790  0.96814871  0.48787493
   0.80226182  0.09049843  0.39907872
   0.12305491  0.72818818  0.50787406
   0.74882776  0.76761064  0.45441800
   0.20782719  0.18833949  0.47775152
   0.68962198  0.46534633  0.54528440
   0.04880842  0.47271598  0.55001825
   0.72797041  0.99231477  0.50527962
   0.08145085  0.83867717  0.38966750
   0.28775562  0.52614918  0.45297268
   0.64960664  0.32116080  0.57845907
   0.53446085  0.55691164  0.39304044
   0.88821657  0.55886892  0.44820171
   0.04070810  0.19292424  0.60846353
   0.54914814  0.49221460  0.50489669
   0.03452282  0.50740523  0.46248226
   0.31619093  0.77330519  0.42957450
   0.15560312  0.24585654  0.55727367
   0.27083382  0.38942955  0.40763208
   0.71919083  0.82302930  0.61044661
   0.86764885  0.05325814  0.47886232
   0.62559674  0.67559021  0.43035886
   0.27191065  0.16895934  0.59876624

 position of ions in cartesian coordinates  (Angst):
  12.32884596  0.64180394  9.49641342
   0.13186863  9.90231152 16.91599164
   0.70869007  8.20252181 15.35612672
   2.09511893 12.88676108 14.96104271
   0.26126391 12.18401660  9.22427721
   4.33506090  9.63972836 14.21516297
   0.82430994 10.01739114 16.67034785
   2.70220076 10.49782108 16.54544230
   1.26417662 10.12668173 14.84189994
  12.82519348 10.18465373 14.26784990
   3.33887985 10.86645234 16.42359248
   4.76194089  8.53714476 16.96030266
  12.92402287  9.19165720 16.70454931
  12.19132712  8.88325276 16.55182023
  10.09231680 12.24880247 14.02051394
   2.20420396  8.90142681 11.94287506
  13.26162523  5.89986919 15.22579052
   0.13336976 11.81743304 12.43724876
   9.61182618  1.41171449 14.88209275
   5.48638991 12.20788615 15.23030873
  11.32852702  3.62660782 10.31590264
   6.41464643  6.53437737 15.07790590
  10.19471240  3.33922115 13.68582874
   1.34871924 14.46828369 11.07871750
   2.64442963  5.80774604 15.25843234
   6.94273870 10.29446746 15.34666521
   1.83558675 14.27976742 14.48968429
   5.95355741  4.56601856 11.06805752
   4.44069017  6.15710491 13.88821035
   6.51685929 13.64072278 13.60423333
   2.74628249 10.46857456 10.22185703
  10.79704346  2.96160366 16.36313542
   7.21206625  4.55826028 15.96389999
  12.92252063 10.28621500 12.77761510
   4.06723733 11.05006744 13.76556797
   5.01407717 13.66343665 11.77994179
   8.09352611 12.11211861 12.78547513
   3.11441415  0.32447033 12.57267986
  12.51688506  2.96950009 13.50899086
   5.90129884  9.19730461 11.53778057
   9.19399835 10.14549676 15.91381601
   9.35075714 12.45457775 10.80880418
  10.31992678  8.21746132 16.35881820
   2.12288184  1.09251088 16.36763775
   9.35255745  3.88631921 11.57639914
   7.51302639  9.51949858 13.17937278
  13.05364755  3.59976038 15.64875821
   9.67897510  0.25450203 11.30924577
  12.03559076  6.45625223 13.31332716
   6.00959161  2.88618917 14.88459160
  12.76253325  4.62224020 11.91385586
   6.21223430  2.34113907 10.44961223
   0.39514390  5.25500004 11.48288717
   6.12140324  8.40215502 16.39250264
   8.04202680  1.90061351 11.73009939
   2.25732166  4.07920379 10.96070503
   7.90505269  5.82666469 11.50854100
   4.97611820  3.97918912 13.08689739
   7.43173999  1.25755053 13.96859082
   4.76475440  0.63741802 10.01272784
   0.01379117 14.08580416 13.00872562
  11.67227998  1.31668108 10.64105842
   1.79035233 10.59456671 13.54198366
  10.89485644 11.16813260 12.11662801
   3.02372252  2.74019177 12.73879450
  10.03345879  6.77042394 14.53949499
   0.71012421  6.87764668 14.66571875
  10.59139825 14.43740135 13.47280537
   1.18504601 12.20209477 10.39011703
   4.18661845  7.65505778 12.07808992
   9.45126691  4.67263767 15.42406634
   7.77598601  8.10262744 10.48005329
  12.92285417  8.13110437 11.95087667
   0.59227090  2.80689631 16.22410720
   7.98967453  7.16133628 13.46259480
   0.50227990  7.38234803 12.33165393
   4.60032996 11.25098378 11.45419951
   2.26390326  3.57701979 14.85917756
   3.94041965  5.66589447 10.86912559
  10.46366226 11.97443051 16.27698413
  12.62361004  0.77486419 12.76841276
   9.10194169  9.82930751 11.47511370
   3.95608663  2.45822586 15.96553786



--------------------------------------------------------------------------------------------------------


 k-point     1 :   0.0000 0.0000 0.0000  plane waves:  532591
 k-point     2 :   0.5000 0.0000 0.0000  plane waves:  532994
 k-point     3 :   0.0000 0.5000 0.0000  plane waves:  532994
 k-point     4 :   0.5000 0.5000 0.0000  plane waves:  532764
 k-point     5 :   0.0000 0.0000 0.5000  plane waves:  532646
 k-point     6 :   0.5000 0.0000 0.5000  plane waves:  532716
 k-point     7 :   0.0000 0.5000 0.5000  plane waves:  532716
 k-point     8 :   0.5000 0.5000 0.5000  plane waves:  532688

 maximum and minimum number of plane-waves per node :     33396    33217

 maximum number of plane-waves:    532994
 maximum index in each direction: 
   IXMAX=   41   IYMAX=   41   IZMAX=   75
   IXMIN=  -41   IYMIN=  -41   IZMIN=  -75


 parallel 3D FFT for wavefunctions:
    minimum data exchange during FFTs selected (reduces bandwidth)
 parallel 3D FFT for charge:
    minimum data exchange during FFTs selected (reduces bandwidth)


 total amount of memory used by VASP MPI-rank0   403574. kBytes
=======================================================================

   base                                    :      30000. kBytes
   nonl-proj                               :      78312. kBytes
   fftplans                                :     108821. kBytes
   grid                                    :      83991. kBytes
   one-center                              :         18. kBytes
   wavefun                                 :     102432. kBytes

     INWAV:  cpu time     30.9907: real time     31.0094
 Broyden mixing: mesh for mixing (old mesh)
   NGX = 83   NGY = 83   NGZ =151
  (NGX  =336   NGY  =336   NGZ  =640)
  gives a total of ****** points

 initial charge density was supplied:
 number of electron     289.9999999 magnetization 
 keeping initial charge density in first step


--------------------------------------------------------------------------------------------------------


 Maximum index for augmentation-charges        10140 (set IRDMAX)


--------------------------------------------------------------------------------------------------------


 First call to EWALD:  gamma=   0.100
 Maximum number of real-space cells   3x   3x   2
 Maximum number of reciprocal cells   2x   2x   4

    FEWALD:  cpu time      0.0119: real time      0.0120


--------------------------------------- Ionic step        1  -------------------------------------------




--------------------------------------- Iteration      1(   1)  ---------------------------------------


    POTLOK:  cpu time      2.2760: real time      2.2769
    SETDIJ:  cpu time      1.5936: real time      1.5953
    EDDIAG:  cpu time     63.6810: real time     63.7203
     EDDAV:  cpu time    282.2040: real time    282.3687
       DOS:  cpu time      0.0091: real time      0.0091
    CHARGE:  cpu time     35.7299: real time     35.7626
    MIXING:  cpu time      0.0502: real time      0.0508
    --------------------------------------------
      LOOP:  cpu time    385.5440: real time    385.7837

 eigenvalue-minimisations  :  3072
 total energy-change (2. order) :-0.7405889E+03  (-0.8377020E+00)
 number of electron     289.9999999 magnetization 
 augmentation part      -15.4494280 magnetization 

 Broyden mixing:
  rms(total) = 0.10184E+01    rms(broyden)= 0.26330E+02
  rms(prec ) = 0.10540E+01
  weight for this iteration     100.00
  WARNING: grid for Broyden might be to small

 Free energy of the ion-electron system (eV)
  ---------------------------------------------------
  alpha Z        PSCENC =        31.58807593
  Ewald energy   TEWEN  =     37356.31165175
  -Hartree energ DENC   =    -43645.52763395
  -exchange      EXHF   =         0.00000000
  -V(xc)+E(xc)   XCENC  =      -298.03392356
  PAW double counting   =     26184.53040801   -25496.90287440
  entropy T*S    EENTRO =        -0.18694992
  eigenvalues    EBANDS =     -2158.81642125
  atomic energy  EATOM  =      7286.44873780
  Solvation  Ediel_sol  =         0.00000000
  ---------------------------------------------------
  free energy    TOTEN  =      -740.58892960 eV

  energy without entropy =     -740.40197967  energy(sigma->0) =     -740.49545464


--------------------------------------------------------------------------------------------------------




--------------------------------------- Iteration      1(   2)  ---------------------------------------


    POTLOK:  cpu time      2.2476: real time      2.2545
    SETDIJ:  cpu time      1.5857: real time      1.5867
    EDDIAG:  cpu time     63.6251: real time     63.6636
     EDDAV:  cpu time    284.9868: real time    285.1569
       DOS:  cpu time      0.0032: real time      0.0032
    CHARGE:  cpu time     35.5745: real time     35.6062
    MIXING:  cpu time      0.0447: real time      0.0450
    --------------------------------------------
      LOOP:  cpu time    388.0676: real time    388.3161

 eigenvalue-minimisations  :  3136
 total energy-change (2. order) : 0.5121636E+02  (-0.8002121E+00)
 number of electron     289.9999999 magnetization 
 augmentation part      -15.4018474 magnetization 

 Broyden mixing:
  rms(total) = 0.69792E+00    rms(broyden)= 0.15095E+02
  rms(prec ) = 0.71795E+00
  weight for this iteration     100.00
  WARNING: grid for Broyden might be to small

 eigenvalues of (default mixing * dielectric matrix)
  average eigenvalue GAMMA=   0.6357
  0.6357

 Free energy of the ion-electron system (eV)
  ---------------------------------------------------
  alpha Z        PSCENC =        31.58807593
  Ewald energy   TEWEN  =     37356.31165175
  -Hartree energ DENC   =    -43633.55130903
  -exchange      EXHF   =         0.00000000
  -V(xc)+E(xc)   XCENC  =      -291.47640294
  PAW double counting   =     31192.64705122   -30504.83367080
  entropy T*S    EENTRO =        -0.16691502
  eigenvalues    EBANDS =     -2126.33978474
  atomic energy  EATOM  =      7286.44873780
  Solvation  Ediel_sol  =         0.00000000
  ---------------------------------------------------
  free energy    TOTEN  =      -689.37256582 eV

  energy without entropy =     -689.20565080  energy(sigma->0) =     -689.28910831


--------------------------------------------------------------------------------------------------------




--------------------------------------- Iteration      1(   3)  ---------------------------------------


    POTLOK:  cpu time      2.2303: real time      2.2561
    SETDIJ:  cpu time      1.5920: real time      1.5931
    EDDIAG:  cpu time     63.5806: real time     63.6201
     EDDAV:  cpu time    282.7896: real time    282.9598
       DOS:  cpu time      0.0041: real time      0.0041
    CHARGE:  cpu time     35.6082: real time     35.6412
    MIXING:  cpu time      0.0408: real time      0.0408
    --------------------------------------------
      LOOP:  cpu time    385.8456: real time    386.1151

 eigenvalue-minimisations  :  3088
 total energy-change (2. order) :-0.2354924E+01  (-0.6802986E+00)
 number of electron     289.9999999 magnetization 
 augmentation part      -15.3441811 magnetization 

 Broyden mixing:
  rms(total) = 0.34455E+00    rms(broyden)= 0.19144E+02
  rms(prec ) = 0.42477E+00
  weight for this iteration     100.00
  WARNING: grid for Broyden might be to small

 eigenvalues of (default mixing * dielectric matrix)
  average eigenvalue GAMMA=   0.6720
  0.7206  0.6235

 Free energy of the ion-electron system (eV)
  ---------------------------------------------------
  alpha Z        PSCENC =        31.58807593
  Ewald energy   TEWEN  =     37356.31165175
  -Hartree energ DENC   =    -43635.04479580
  -exchange      EXHF   =         0.00000000
  -V(xc)+E(xc)   XCENC  =      -293.73440800
  PAW double counting   =     36665.55535829   -35977.85418489
  entropy T*S    EENTRO =        -0.19582804
  eigenvalues    EBANDS =     -2124.80209647
  atomic energy  EATOM  =      7286.44873780
  Solvation  Ediel_sol  =         0.00000000
  ---------------------------------------------------
  free energy    TOTEN  =      -691.72748943 eV

  energy without entropy =     -691.53166139  energy(sigma->0) =     -691.62957541


--------------------------------------------------------------------------------------------------------




--------------------------------------- Iteration      1(   4)  ---------------------------------------


    POTLOK:  cpu time      2.2264: real time      2.2530
    SETDIJ:  cpu time      1.5900: real time      1.5908
    EDDIAG:  cpu time     63.6943: real time     63.7385
     EDDAV:  cpu time    308.1632: real time    308.3431
       DOS:  cpu time      0.0052: real time      0.0052
    CHARGE:  cpu time     35.5869: real time     35.6202
    MIXING:  cpu time      0.0418: real time      0.0418
    --------------------------------------------
      LOOP:  cpu time    411.3079: real time    411.5926

 eigenvalue-minimisations  :  3584
 total energy-change (2. order) : 0.1568840E+00  (-0.1774086E+00)
 number of electron     289.9999999 magnetization 
 augmentation part      -15.3508556 magnetization 

 Broyden mixing:
  rms(total) = 0.13681E+00    rms(broyden)= 0.26470E+01
  rms(prec ) = 0.20648E+00
  weight for this iteration     100.00
  WARNING: grid for Broyden might be to small

 eigenvalues of (default mixing * dielectric matrix)
  average eigenvalue GAMMA=   0.8743
  1.5082  0.6321  0.4825

 Free energy of the ion-electron system (eV)
  ---------------------------------------------------
  alpha Z        PSCENC =        31.58807593
  Ewald energy   TEWEN  =     37356.31165175
  -Hartree energ DENC   =    -43636.73889738
  -exchange      EXHF   =         0.00000000
  -V(xc)+E(xc)   XCENC  =      -294.26599824
  PAW double counting   =     41338.24984104   -40650.59196933
  entropy T*S    EENTRO =        -0.16436269
  eigenvalues    EBANDS =     -2122.40768429
  atomic energy  EATOM  =      7286.44873780
  Solvation  Ediel_sol  =         0.00000000
  ---------------------------------------------------
  free energy    TOTEN  =      -691.57060540 eV

  energy without entropy =     -691.40624271  energy(sigma->0) =     -691.48842405


--------------------------------------------------------------------------------------------------------




--------------------------------------- Iteration      1(   5)  ---------------------------------------


    POTLOK:  cpu time      2.2489: real time      2.2552
    SETDIJ:  cpu time      1.5940: real time      1.5948
    EDDIAG:  cpu time     63.6384: real time     63.6760
     EDDAV:  cpu time    302.8774: real time    303.0551
       DOS:  cpu time      0.0060: real time      0.0060
    CHARGE:  cpu time     35.6180: real time     35.6484
    MIXING:  cpu time      0.0418: real time      0.0418
    --------------------------------------------
      LOOP:  cpu time    406.0245: real time    406.2774

 eigenvalue-minimisations  :  3480
 total energy-change (2. order) : 0.6156571E-01  (-0.4307935E-01)
 number of electron     289.9999999 magnetization 
 augmentation part      -15.3447570 magnetization 

 Broyden mixing:
  rms(total) = 0.49573E-01    rms(broyden)= 0.15162E+01
  rms(prec ) = 0.64518E-01
  weight for this iteration     100.00
  WARNING: grid for Broyden might be to small

 eigenvalues of (default mixing * dielectric matrix)
  average eigenvalue GAMMA=   1.0315
  2.3145  0.7258  0.6173  0.4683

 Free energy of the ion-electron system (eV)
  ---------------------------------------------------
  alpha Z        PSCENC =        31.58807593
  Ewald energy   TEWEN  =     37356.31165175
  -Hartree energ DENC   =    -43637.35540512
  -exchange      EXHF   =         0.00000000
  -V(xc)+E(xc)   XCENC  =      -294.90250784
  PAW double counting   =     41584.96751469   -40897.30387316
  entropy T*S    EENTRO =        -0.17744141
  eigenvalues    EBANDS =     -2121.08579233
  atomic energy  EATOM  =      7286.44873780
  Solvation  Ediel_sol  =         0.00000000
  ---------------------------------------------------
  free energy    TOTEN  =      -691.50903969 eV

  energy without entropy =     -691.33159828  energy(sigma->0) =     -691.42031899


--------------------------------------------------------------------------------------------------------




--------------------------------------- Iteration      1(   6)  ---------------------------------------


    POTLOK:  cpu time      2.2321: real time      2.2563
    SETDIJ:  cpu time      1.5867: real time      1.5879
    EDDIAG:  cpu time     63.7438: real time     63.7839
     EDDAV:  cpu time    292.3338: real time    292.4999
       DOS:  cpu time      0.0118: real time      0.0119
    CHARGE:  cpu time     35.5994: real time     35.6515
    MIXING:  cpu time      0.0582: real time      0.0590
    --------------------------------------------
      LOOP:  cpu time    395.5657: real time    395.8504

 eigenvalue-minimisations  :  3272
 total energy-change (2. order) :-0.4613349E-02  (-0.8722698E-02)
 number of electron     289.9999999 magnetization 
 augmentation part      -15.3453652 magnetization 

 Broyden mixing:
  rms(total) = 0.41639E-01    rms(broyden)= 0.40784E+00
  rms(prec ) = 0.54282E-01
  weight for this iteration     100.00
  WARNING: grid for Broyden might be to small

 eigenvalues of (default mixing * dielectric matrix)
  average eigenvalue GAMMA=   0.9533
  2.4877  0.8202  0.6189  0.4804  0.3592

 Free energy of the ion-electron system (eV)
  ---------------------------------------------------
  alpha Z        PSCENC =        31.58807593
  Ewald energy   TEWEN  =     37356.31165175
  -Hartree energ DENC   =    -43637.22808479
  -exchange      EXHF   =         0.00000000
  -V(xc)+E(xc)   XCENC  =      -295.21578503
  PAW double counting   =     41317.29720732   -40629.61758252
  entropy T*S    EENTRO =        -0.18674998
  eigenvalues    EBANDS =     -2120.91112353
  atomic energy  EATOM  =      7286.44873780
  Solvation  Ediel_sol  =         0.00000000
  ---------------------------------------------------
  free energy    TOTEN  =      -691.51365304 eV

  energy without entropy =     -691.32690305  energy(sigma->0) =     -691.42027805


--------------------------------------------------------------------------------------------------------




--------------------------------------- Iteration      1(   7)  ---------------------------------------


    POTLOK:  cpu time      2.2350: real time      2.2588
    SETDIJ:  cpu time      1.5999: real time      1.6019
    EDDIAG:  cpu time     63.6585: real time     63.6995
     EDDAV:  cpu time    289.6875: real time    289.8551
       DOS:  cpu time      0.0048: real time      0.0048
    CHARGE:  cpu time     35.6672: real time     35.7015
    MIXING:  cpu time      0.0428: real time      0.0428
    --------------------------------------------
      LOOP:  cpu time    392.8956: real time    393.1643

 eigenvalue-minimisations  :  3216
 total energy-change (2. order) : 0.2284179E-02  (-0.2101206E-02)
 number of electron     289.9999999 magnetization 
 augmentation part      -15.3454072 magnetization 

 Broyden mixing:
  rms(total) = 0.21463E-01    rms(broyden)= 0.16429E+00
  rms(prec ) = 0.23204E-01
  weight for this iteration     100.00
  WARNING: grid for Broyden might be to small

 eigenvalues of (default mixing * dielectric matrix)
  average eigenvalue GAMMA=   0.9149
  2.5692  0.9056  0.6193  0.5915  0.4954  0.3082

 Free energy of the ion-electron system (eV)
  ---------------------------------------------------
  alpha Z        PSCENC =        31.58807593
  Ewald energy   TEWEN  =     37356.31165175
  -Hartree energ DENC   =    -43637.11708401
  -exchange      EXHF   =         0.00000000
  -V(xc)+E(xc)   XCENC  =      -295.22761680
  PAW double counting   =     41243.87210350   -40556.18446770
  entropy T*S    EENTRO =        -0.17856173
  eigenvalues    EBANDS =     -2121.02420760
  atomic energy  EATOM  =      7286.44873780
  Solvation  Ediel_sol  =         0.00000000
  ---------------------------------------------------
  free energy    TOTEN  =      -691.51136886 eV

  energy without entropy =     -691.33280713  energy(sigma->0) =     -691.42208799


--------------------------------------------------------------------------------------------------------




--------------------------------------- Iteration      1(   8)  ---------------------------------------


    POTLOK:  cpu time      2.2237: real time      2.2500
    SETDIJ:  cpu time      1.5863: real time      1.5878
    EDDIAG:  cpu time     63.7774: real time     63.8190
     EDDAV:  cpu time    288.6712: real time    288.8462
       DOS:  cpu time      0.0052: real time      0.0052
    CHARGE:  cpu time     35.6715: real time     35.7057
    MIXING:  cpu time      0.0433: real time      0.0433
    --------------------------------------------
      LOOP:  cpu time    391.9785: real time    392.2572

 eigenvalue-minimisations  :  3200
 total energy-change (2. order) :-0.5354695E-03  (-0.9796904E-03)
 number of electron     289.9999999 magnetization 
 augmentation part      -15.3441115 magnetization 

 Broyden mixing:
  rms(total) = 0.11725E-01    rms(broyden)= 0.68177E-01
  rms(prec ) = 0.12712E-01
  weight for this iteration     100.00
  WARNING: grid for Broyden might be to small

 eigenvalues of (default mixing * dielectric matrix)
  average eigenvalue GAMMA=   0.9382
  2.5624  1.1901  0.7848  0.6229  0.6229  0.4459  0.3383

 Free energy of the ion-electron system (eV)
  ---------------------------------------------------
  alpha Z        PSCENC =        31.58807593
  Ewald energy   TEWEN  =     37356.31165175
  -Hartree energ DENC   =    -43636.97340986
  -exchange      EXHF   =         0.00000000
  -V(xc)+E(xc)   XCENC  =      -295.10056897
  PAW double counting   =     41233.39328191   -40545.69539065
  entropy T*S    EENTRO =        -0.17872941
  eigenvalues    EBANDS =     -2121.30555284
  atomic energy  EATOM  =      7286.44873780
  Solvation  Ediel_sol  =         0.00000000
  ---------------------------------------------------
  free energy    TOTEN  =      -691.51190433 eV

  energy without entropy =     -691.33317492  energy(sigma->0) =     -691.42253963


--------------------------------------------------------------------------------------------------------




--------------------------------------- Iteration      1(   9)  ---------------------------------------


    POTLOK:  cpu time      2.2314: real time      2.2597
    SETDIJ:  cpu time      1.5915: real time      1.5923
    EDDIAG:  cpu time     63.7279: real time     63.7706
     EDDAV:  cpu time    302.7394: real time    302.9135
       DOS:  cpu time      0.0030: real time      0.0030
    CHARGE:  cpu time     35.6153: real time     35.6492
    MIXING:  cpu time      0.0437: real time      0.0437
    --------------------------------------------
      LOOP:  cpu time    405.9524: real time    406.2323

 eigenvalue-minimisations  :  3472
 total energy-change (2. order) :-0.4640055E-03  (-0.2324364E-03)
 number of electron     289.9999999 magnetization 
 augmentation part      -15.3432565 magnetization 

 Broyden mixing:
  rms(total) = 0.56087E-02    rms(broyden)= 0.59681E-01
  rms(prec ) = 0.66404E-02
  weight for this iteration     100.00
  WARNING: grid for Broyden might be to small

 eigenvalues of (default mixing * dielectric matrix)
  average eigenvalue GAMMA=   0.9961
  2.5365  1.7488  0.9636  0.6879  0.6138  0.6138  0.4592  0.3452

 Free energy of the ion-electron system (eV)
  ---------------------------------------------------
  alpha Z        PSCENC =        31.58807593
  Ewald energy   TEWEN  =     37356.31165175
  -Hartree energ DENC   =    -43636.95593310
  -exchange      EXHF   =         0.00000000
  -V(xc)+E(xc)   XCENC  =      -295.03193086
  PAW double counting   =     41254.44475249   -40566.73922170
  entropy T*S    EENTRO =        -0.17965231
  eigenvalues    EBANDS =     -2121.39884834
  atomic energy  EATOM  =      7286.44873780
  Solvation  Ediel_sol  =         0.00000000
  ---------------------------------------------------
  free energy    TOTEN  =      -691.51236833 eV

  energy without entropy =     -691.33271602  energy(sigma->0) =     -691.42254218


--------------------------------------------------------------------------------------------------------




--------------------------------------- Iteration      1(  10)  ---------------------------------------


    POTLOK:  cpu time      2.2338: real time      2.2597
    SETDIJ:  cpu time      1.5915: real time      1.5922
    EDDIAG:  cpu time     63.7114: real time     63.7518
     EDDAV:  cpu time    296.8345: real time    297.0031
       DOS:  cpu time      0.0089: real time      0.0094
    CHARGE:  cpu time     35.5919: real time     35.6271
    MIXING:  cpu time      0.0610: real time      0.0619
    --------------------------------------------
      LOOP:  cpu time    400.0327: real time    400.3049

 eigenvalue-minimisations  :  3360
 total energy-change (2. order) :-0.8870509E-04  (-0.7867451E-04)
 number of electron     289.9999999 magnetization 
 augmentation part      -15.3431971 magnetization 

 Broyden mixing:
  rms(total) = 0.24271E-02    rms(broyden)= 0.18140E-01
  rms(prec ) = 0.29785E-02
  weight for this iteration     100.00
  WARNING: grid for Broyden might be to small

 eigenvalues of (default mixing * dielectric matrix)
  average eigenvalue GAMMA=   1.0363
  2.4324  2.4324  0.9187  0.9187  0.3496  0.6778  0.6272  0.4658  0.5046

 Free energy of the ion-electron system (eV)
  ---------------------------------------------------
  alpha Z        PSCENC =        31.58807593
  Ewald energy   TEWEN  =     37356.31165175
  -Hartree energ DENC   =    -43636.81824129
  -exchange      EXHF   =         0.00000000
  -V(xc)+E(xc)   XCENC  =      -295.01886156
  PAW double counting   =     41263.03631012   -40575.32675438
  entropy T*S    EENTRO =        -0.17956779
  eigenvalues    EBANDS =     -2121.55380763
  atomic energy  EATOM  =      7286.44873780
  Solvation  Ediel_sol  =         0.00000000
  ---------------------------------------------------
  free energy    TOTEN  =      -691.51245704 eV

  energy without entropy =     -691.33288925  energy(sigma->0) =     -691.42267314


--------------------------------------------------------------------------------------------------------




--------------------------------------- Iteration      1(  11)  ---------------------------------------


    POTLOK:  cpu time      2.2557: real time      2.2586
    SETDIJ:  cpu time      1.6021: real time      1.6039
    EDDIAG:  cpu time     63.7634: real time     63.8050
     EDDAV:  cpu time    296.9719: real time    297.1375
       DOS:  cpu time      0.0048: real time      0.0048
    CHARGE:  cpu time     35.6585: real time     35.6843
    MIXING:  cpu time      0.0453: real time      0.0453
    --------------------------------------------
      LOOP:  cpu time    400.3016: real time    400.5393

 eigenvalue-minimisations  :  3360
 total energy-change (2. order) :-0.2294058E-04  (-0.2652131E-04)
 number of electron     289.9999999 magnetization 
 augmentation part      -15.3432230 magnetization 

 Broyden mixing:
  rms(total) = 0.14075E-02    rms(broyden)= 0.59090E-02
  rms(prec ) = 0.17147E-02
  weight for this iteration     100.00
  WARNING: grid for Broyden might be to small

 eigenvalues of (default mixing * dielectric matrix)
  average eigenvalue GAMMA=   1.0592
  2.5913  2.5913  1.0281  1.0281  0.7880  0.3506  0.4443  0.6345  0.5936  0.5417

 Free energy of the ion-electron system (eV)
  ---------------------------------------------------
  alpha Z        PSCENC =        31.58807593
  Ewald energy   TEWEN  =     37356.31165175
  -Hartree energ DENC   =    -43636.69027744
  -exchange      EXHF   =         0.00000000
  -V(xc)+E(xc)   XCENC  =      -295.02132929
  PAW double counting   =     41261.57450969   -40573.86329437
  entropy T*S    EENTRO =        -0.17956587
  eigenvalues    EBANDS =     -2121.68098818
  atomic energy  EATOM  =      7286.44873780
  Solvation  Ediel_sol  =         0.00000000
  ---------------------------------------------------
  free energy    TOTEN  =      -691.51247998 eV

  energy without entropy =     -691.33291411  energy(sigma->0) =     -691.42269705


--------------------------------------------------------------------------------------------------------




--------------------------------------- Iteration      1(  12)  ---------------------------------------


    POTLOK:  cpu time      2.2263: real time      2.2669
    SETDIJ:  cpu time      1.5957: real time      1.5965
    EDDIAG:  cpu time     63.6078: real time     63.6444
     EDDAV:  cpu time    290.0236: real time    290.1898
       DOS:  cpu time      0.0029: real time      0.0029
    CHARGE:  cpu time     35.6770: real time     35.7109
    MIXING:  cpu time      0.0461: real time      0.0462
    --------------------------------------------
      LOOP:  cpu time    393.1795: real time    393.4575

 eigenvalue-minimisations  :  3224
 total energy-change (2. order) :-0.4457398E-04  (-0.1064000E-04)
 number of electron     289.9999999 magnetization 
 augmentation part      -15.3432916 magnetization 

 Broyden mixing:
  rms(total) = 0.86821E-03    rms(broyden)= 0.29031E-02
  rms(prec ) = 0.10765E-02
  weight for this iteration     100.00
  WARNING: grid for Broyden might be to small

 eigenvalues of (default mixing * dielectric matrix)
  average eigenvalue GAMMA=   1.0401
  2.6889  2.6889  1.0437  0.9410  0.9410  0.3506  0.6607  0.6242  0.4459  0.5280
  0.5280

 Free energy of the ion-electron system (eV)
  ---------------------------------------------------
  alpha Z        PSCENC =        31.58807593
  Ewald energy   TEWEN  =     37356.31165175
  -Hartree energ DENC   =    -43636.56003757
  -exchange      EXHF   =         0.00000000
  -V(xc)+E(xc)   XCENC  =      -295.02631090
  PAW double counting   =     41259.14333500   -40571.43125831
  entropy T*S    EENTRO =        -0.17939634
  eigenvalues    EBANDS =     -2121.80732192
  atomic energy  EATOM  =      7286.44873780
  Solvation  Ediel_sol  =         0.00000000
  ---------------------------------------------------
  free energy    TOTEN  =      -691.51252455 eV

  energy without entropy =     -691.33312821  energy(sigma->0) =     -691.42282638


--------------------------------------------------------------------------------------------------------




--------------------------------------- Iteration      1(  13)  ---------------------------------------


    POTLOK:  cpu time      2.2331: real time      2.2583
    SETDIJ:  cpu time      1.5939: real time      1.5951
    EDDIAG:  cpu time     63.7318: real time     63.7717
     EDDAV:  cpu time    289.7831: real time    289.9530
       DOS:  cpu time      0.0029: real time      0.0029
    CHARGE:  cpu time     35.6873: real time     35.7201
    MIXING:  cpu time      0.0472: real time      0.0472
    --------------------------------------------
      LOOP:  cpu time    393.0792: real time    393.3482

 eigenvalue-minimisations  :  3216
 total energy-change (2. order) :-0.7785200E-04  (-0.1514905E-04)
 number of electron     289.9999999 magnetization 
 augmentation part      -15.3433779 magnetization 

 Broyden mixing:
  rms(total) = 0.41036E-03    rms(broyden)= 0.32798E-02
  rms(prec ) = 0.58464E-03
  weight for this iteration     100.00
  WARNING: grid for Broyden might be to small

 eigenvalues of (default mixing * dielectric matrix)
  average eigenvalue GAMMA=   1.0612
  2.7418  2.7418  1.2246  1.2246  0.8677  0.8677  0.3505  0.6475  0.6151  0.4479
  0.5027  0.5027

 Free energy of the ion-electron system (eV)
  ---------------------------------------------------
  alpha Z        PSCENC =        31.58807593
  Ewald energy   TEWEN  =     37356.31165175
  -Hartree energ DENC   =    -43636.39691008
  -exchange      EXHF   =         0.00000000
  -V(xc)+E(xc)   XCENC  =      -295.03299415
  PAW double counting   =     41256.28865618   -40568.57592527
  entropy T*S    EENTRO =        -0.17942002
  eigenvalues    EBANDS =     -2121.96447456
  atomic energy  EATOM  =      7286.44873780
  Solvation  Ediel_sol  =         0.00000000
  ---------------------------------------------------
  free energy    TOTEN  =      -691.51260241 eV

  energy without entropy =     -691.33318239  energy(sigma->0) =     -691.42289240


--------------------------------------------------------------------------------------------------------




--------------------------------------- Iteration      1(  14)  ---------------------------------------


    POTLOK:  cpu time      2.2687: real time      2.2708
    SETDIJ:  cpu time      1.5826: real time      1.5836
    EDDIAG:  cpu time     63.7482: real time     63.7932
     EDDAV:  cpu time    288.8411: real time    289.0048
       DOS:  cpu time      0.0039: real time      0.0039
    CHARGE:  cpu time     35.6887: real time     35.7248
    MIXING:  cpu time      0.0478: real time      0.0478
    --------------------------------------------
      LOOP:  cpu time    392.1810: real time    392.4289

 eigenvalue-minimisations  :  3200
 total energy-change (2. order) :-0.7481267E-04  (-0.1132904E-04)
 number of electron     289.9999999 magnetization 
 augmentation part      -15.3434050 magnetization 

 Broyden mixing:
  rms(total) = 0.24396E-03    rms(broyden)= 0.25817E-02
  rms(prec ) = 0.38156E-03
  weight for this iteration     100.00
  WARNING: grid for Broyden might be to small

 eigenvalues of (default mixing * dielectric matrix)
  average eigenvalue GAMMA=   1.0948
  2.8280  2.8280  1.9426  1.0098  1.0098  0.9017  0.3505  0.6702  0.6021  0.6021
  0.5717  0.4424  0.4729

 Free energy of the ion-electron system (eV)
  ---------------------------------------------------
  alpha Z        PSCENC =        31.58807593
  Ewald energy   TEWEN  =     37356.31165175
  -Hartree energ DENC   =    -43636.28967263
  -exchange      EXHF   =         0.00000000
  -V(xc)+E(xc)   XCENC  =      -295.03684149
  PAW double counting   =     41256.22977194   -40568.51715252
  entropy T*S    EENTRO =        -0.17946148
  eigenvalues    EBANDS =     -2122.06778653
  atomic energy  EATOM  =      7286.44873780
  Solvation  Ediel_sol  =         0.00000000
  ---------------------------------------------------
  free energy    TOTEN  =      -691.51267722 eV

  energy without entropy =     -691.33321574  energy(sigma->0) =     -691.42294648


--------------------------------------------------------------------------------------------------------




--------------------------------------- Iteration      1(  15)  ---------------------------------------


    POTLOK:  cpu time      2.2228: real time      2.2535
    SETDIJ:  cpu time      1.5915: real time      1.5923
    EDDIAG:  cpu time     63.6963: real time     63.7370
     EDDAV:  cpu time    288.7093: real time    288.8749
       DOS:  cpu time      0.0030: real time      0.0030
    CHARGE:  cpu time     35.6158: real time     35.6483
    MIXING:  cpu time      0.0487: real time      0.0487
    --------------------------------------------
      LOOP:  cpu time    391.8874: real time    392.1576

 eigenvalue-minimisations  :  3200
 total energy-change (2. order) :-0.8745160E-04  (-0.1268767E-04)
 number of electron     289.9999999 magnetization 
 augmentation part      -15.3434361 magnetization 

 Broyden mixing:
  rms(total) = 0.17512E-03    rms(broyden)= 0.23021E-02
  rms(prec ) = 0.27244E-03
  weight for this iteration     100.00
  WARNING: grid for Broyden might be to small

 eigenvalues of (default mixing * dielectric matrix)
  average eigenvalue GAMMA=   1.1119
  2.9703  2.8245  2.1345  1.1379  0.9820  0.9820  0.8610  0.3505  0.6449  0.6449
  0.5580  0.5580  0.4436  0.4752

 Free energy of the ion-electron system (eV)
  ---------------------------------------------------
  alpha Z        PSCENC =        31.58807593
  Ewald energy   TEWEN  =     37356.31165175
  -Hartree energ DENC   =    -43636.16609505
  -exchange      EXHF   =         0.00000000
  -V(xc)+E(xc)   XCENC  =      -295.03946129
  PAW double counting   =     41256.27448429   -40568.56201975
  entropy T*S    EENTRO =        -0.17944646
  eigenvalues    EBANDS =     -2122.18869190
  atomic energy  EATOM  =      7286.44873780
  Solvation  Ediel_sol  =         0.00000000
  ---------------------------------------------------
  free energy    TOTEN  =      -691.51276467 eV

  energy without entropy =     -691.33331821  energy(sigma->0) =     -691.42304144


--------------------------------------------------------------------------------------------------------




--------------------------------------- Iteration      1(  16)  ---------------------------------------


    POTLOK:  cpu time      2.2536: real time      2.2549
    SETDIJ:  cpu time      1.5839: real time      1.5849
    EDDIAG:  cpu time     63.6851: real time     63.7226
     EDDAV:  cpu time    289.7423: real time    289.9038
       DOS:  cpu time      0.0041: real time      0.0041
    CHARGE:  cpu time     35.6549: real time     35.6869
    MIXING:  cpu time      0.0497: real time      0.0497
    --------------------------------------------
      LOOP:  cpu time    392.9737: real time    393.2070

 eigenvalue-minimisations  :  3216
 total energy-change (2. order) :-0.8163274E-04  (-0.9094900E-05)
 number of electron     289.9999999 magnetization 
 augmentation part      -15.3434561 magnetization 

 Broyden mixing:
  rms(total) = 0.11848E-03    rms(broyden)= 0.76384E-03
  rms(prec ) = 0.18820E-03
  weight for this iteration     100.00
  WARNING: grid for Broyden might be to small

 eigenvalues of (default mixing * dielectric matrix)
  average eigenvalue GAMMA=   1.1489
  3.2858  2.7345  2.3998  1.4845  0.9946  0.9946  0.8770  0.8251  0.3505  0.4442
  0.4790  0.6456  0.6190  0.5359  0.5634

 Free energy of the ion-electron system (eV)
  ---------------------------------------------------
  alpha Z        PSCENC =        31.58807593
  Ewald energy   TEWEN  =     37356.31165175
[...]
   -.143E+02 0.389E+02 -.315E+03   0.130E+02 -.371E+02 0.317E+03   0.131E+01 -.153E+01 -.200E+01   0.231E-04 -.156E-05 -.217E-04
   0.797E+01 0.171E+02 -.282E+03   -.820E+01 -.161E+02 0.283E+03   0.155E+00 -.103E+01 -.629E+00   -.990E-05 0.339E-04 -.160E-04
   -.172E+01 -.852E+01 0.494E+02   0.184E+01 0.692E+01 -.476E+02   0.710E-01 0.148E+01 -.169E+01   0.399E-05 -.289E-04 -.464E-04
   0.198E+02 -.245E+02 -.748E+02   -.194E+02 0.217E+02 0.752E+02   -.201E+00 0.242E+01 -.346E+00   -.892E-05 -.235E-04 -.532E-04
   -.647E+01 0.103E+02 0.148E+03   0.754E+01 -.735E+01 -.148E+03   -.494E+00 -.279E+01 -.386E+00   -.134E-04 -.603E-04 -.293E-04
   0.188E+02 -.230E+01 0.496E+02   -.154E+02 0.755E+01 -.496E+02   -.264E+01 -.478E+01 0.222E+00   -.331E-05 -.299E-04 -.255E-04
   -.346E+01 0.117E+00 0.517E+02   0.224E+00 -.149E+01 -.531E+02   0.305E+01 0.157E+01 0.102E+01   -.305E-04 -.200E-04 -.331E-04
   -.511E+02 0.242E+02 -.215E+02   0.491E+02 -.234E+02 0.203E+02   0.202E+01 -.871E+00 0.771E+00   0.201E-04 0.196E-04 -.467E-04
   0.802E+01 -.876E+01 0.200E+03   -.718E+01 0.871E+01 -.197E+03   -.105E+01 0.326E+00 -.231E+01   -.108E-04 0.563E-05 -.491E-04
   -.144E+02 -.127E+02 -.240E+03   0.171E+02 0.141E+02 0.241E+03   -.255E+01 -.114E+01 -.257E+00   -.330E-05 0.769E-05 -.332E-04
   -.840E+01 0.375E+01 0.282E+03   0.806E+01 -.424E+01 -.283E+03   0.371E+00 -.114E+00 0.627E-01   0.706E-05 -.223E-04 -.306E-04
   -.299E+02 -.186E+01 -.275E+03   0.293E+02 0.684E+00 0.279E+03   0.292E+00 0.473E+00 -.320E+01   0.449E-05 0.350E-05 -.133E-04
   0.966E+01 0.582E+02 -.292E+03   -.979E+01 -.585E+02 0.290E+03   0.611E-01 0.417E-01 0.186E+01   -.468E-04 -.768E-05 0.163E-04
   -.153E+01 -.327E+02 0.189E+03   0.405E+01 0.299E+02 -.189E+03   -.217E+01 0.281E+01 -.711E+00   0.361E-04 0.268E-04 -.573E-04
   -.127E+02 -.953E+01 0.141E+01   0.108E+02 0.802E+01 -.251E+01   0.161E+01 0.123E+01 0.102E+01   0.132E-05 -.823E-05 -.407E-04
   -.164E+02 0.188E+02 -.242E+03   0.165E+02 -.186E+02 0.238E+03   -.215E+00 -.437E+00 0.459E+01   0.366E-04 0.873E-05 -.153E-04
   0.562E+01 0.252E+02 0.218E+03   -.330E+01 -.232E+02 -.215E+03   -.239E+01 -.194E+01 -.231E+01   0.196E-04 -.458E-05 -.367E-04
   0.109E+02 -.319E+02 0.208E+02   -.869E+01 0.331E+02 -.197E+02   -.236E+01 -.103E+01 -.107E+01   0.200E-04 0.232E-04 -.594E-04
   -.169E+01 0.377E+02 -.180E+03   0.264E+01 -.360E+02 0.178E+03   -.846E+00 -.205E+01 0.202E+01   0.907E-05 0.218E-04 -.227E-04
   -.197E+02 -.164E+02 0.167E+03   0.190E+02 0.146E+02 -.165E+03   0.294E+00 0.181E+01 -.138E+01   0.289E-05 0.182E-04 -.550E-04
   0.214E+01 0.647E+01 0.278E+03   -.212E+01 -.897E+01 -.277E+03   -.286E+00 0.227E+01 -.159E+01   0.136E-04 0.266E-04 -.183E-04
   0.905E+01 0.788E+01 0.201E+03   -.759E+01 -.739E+01 -.198E+03   -.949E+00 -.718E+00 -.199E+01   -.193E-04 0.252E-04 -.277E-04
   0.119E+02 -.466E+01 -.293E+03   -.121E+02 0.462E+01 0.293E+03   0.609E+00 0.181E+00 0.766E+00   -.178E-04 -.478E-05 -.162E-04
   0.642E+01 0.159E+02 0.158E+03   -.745E+01 -.155E+02 -.159E+03   0.111E+01 -.604E+00 0.863E+00   0.356E-04 -.160E-05 -.329E-04
   0.361E+02 0.253E+02 0.249E+03   -.359E+02 -.250E+02 -.248E+03   -.355E+00 -.191E+00 -.128E+01   -.325E-04 0.209E-04 -.227E-04
   -.300E+02 -.113E+02 0.196E+03   0.292E+02 0.109E+02 -.195E+03   0.810E+00 0.493E+00 -.124E+01   0.144E-04 0.383E-04 -.337E-04
   -.240E+01 0.152E+02 0.148E+02   0.188E+01 -.157E+02 -.142E+02   0.326E+00 0.479E+00 -.681E+00   -.110E-04 0.388E-04 -.248E-04
   0.180E+02 0.275E+02 -.102E+03   -.182E+02 -.263E+02 0.101E+03   0.225E+00 -.111E+01 0.103E+01   0.139E-04 -.190E-04 -.213E-04
   0.177E+02 0.113E+02 0.300E+03   -.198E+02 -.122E+02 -.302E+03   0.131E+01 0.970E+00 0.225E+01   -.311E-04 -.405E-04 -.441E-04
   0.353E+02 0.820E+00 -.108E+02   -.332E+02 -.121E+01 0.862E+01   -.221E+01 0.575E+00 0.193E+01   0.272E-05 -.885E-05 -.313E-04
   -.330E+02 0.141E+02 0.255E+03   0.327E+02 -.147E+02 -.256E+03   0.488E+00 0.507E+00 0.625E+00   0.115E-04 0.232E-04 -.461E-04
   0.278E+02 -.118E+02 -.592E+02   -.278E+02 0.104E+02 0.605E+02   0.160E+00 0.152E+01 -.118E+01   -.745E-05 -.247E-04 -.465E-04
   -.561E+02 0.138E+02 0.133E+03   0.558E+02 -.124E+02 -.131E+03   0.331E+00 -.814E+00 -.142E+01   0.144E-04 -.329E-04 -.332E-04
   0.355E+02 0.274E+02 0.660E+02   -.339E+02 -.260E+02 -.648E+02   -.156E+01 -.175E+01 -.111E+01   -.367E-04 0.182E-04 -.282E-04
   -.251E+02 -.270E+02 -.106E+03   0.242E+02 0.271E+02 0.107E+03   0.930E+00 -.725E-01 -.648E+00   0.304E-05 0.217E-04 -.463E-04
   0.313E+00 -.184E+02 -.145E+03   0.532E+00 0.196E+02 0.146E+03   -.506E+00 -.843E+00 -.117E+01   0.607E-05 0.675E-05 -.368E-04
   -.355E+02 0.318E+02 -.553E+02   0.350E+02 -.309E+02 0.544E+02   0.440E+00 -.924E+00 0.903E+00   0.483E-05 -.163E-04 -.260E-04
   0.178E+02 -.568E+00 0.262E+03   -.195E+02 0.174E+00 -.262E+03   0.151E+01 0.451E+00 -.498E+00   0.243E-04 -.475E-04 -.215E-04
   0.115E+02 -.964E+01 0.121E+03   -.129E+02 0.102E+02 -.121E+03   0.110E+01 -.157E+00 -.420E-01   -.137E-04 0.266E-04 -.394E-04
   -.158E+01 -.131E+02 -.226E+03   0.107E+01 0.121E+02 0.224E+03   0.527E+00 0.122E+01 0.268E+01   0.734E-05 0.331E-04 -.226E-04
   -.286E+02 0.739E+01 0.297E+03   0.273E+02 -.594E+01 -.300E+03   0.146E+01 -.128E+01 0.257E+01   0.114E-05 0.122E-04 -.146E-04
   0.277E+02 -.207E+02 0.176E+03   -.260E+02 0.199E+02 -.176E+03   -.170E+01 0.764E+00 0.153E+00   0.274E-05 0.645E-06 -.467E-04
   0.296E+02 0.183E+02 -.273E+03   -.274E+02 -.172E+02 0.271E+03   -.222E+01 -.983E+00 0.215E+01   -.168E-05 0.104E-04 0.755E-06
   -.207E+02 -.714E+01 -.261E+01   0.210E+02 0.619E+01 0.526E+01   -.862E-01 0.819E+00 -.214E+01   0.175E-05 0.218E-04 -.438E-04
   0.393E+01 -.145E+02 0.111E+03   -.583E+01 0.149E+02 -.111E+03   0.188E+01 -.196E+00 -.441E+00   -.931E-05 0.103E-04 -.299E-04
   -.188E+02 -.191E+02 0.198E+03   0.146E+02 0.179E+02 -.196E+03   0.383E+01 0.111E+01 -.180E+01   -.279E-04 -.394E-04 -.614E-04
   0.313E+02 -.137E+01 -.134E+03   -.300E+02 0.336E+01 0.135E+03   -.128E+01 -.165E+01 -.148E+01   -.443E-04 0.346E-04 -.164E-04
   0.261E+02 -.214E+02 0.266E+03   -.260E+02 0.203E+02 -.265E+03   -.212E+00 0.100E+01 -.154E+01   -.156E-04 0.387E-04 -.164E-04
   -.471E+02 -.404E+02 -.282E+03   0.484E+02 0.410E+02 0.283E+03   -.773E+00 -.463E+00 -.528E+00   0.112E-04 0.209E-05 -.597E-05
   -.446E+02 0.311E+02 0.334E+02   0.429E+02 -.309E+02 -.338E+02   0.168E+01 -.381E+00 0.354E+00   0.447E-05 0.368E-05 -.379E-04
   -.454E+02 0.183E+02 0.210E+03   0.464E+02 -.196E+02 -.207E+03   -.875E+00 0.139E+01 -.267E+01   0.320E-05 -.220E-04 -.352E-04
   -.295E+02 0.301E+02 -.272E+03   0.271E+02 -.273E+02 0.272E+03   0.264E+01 -.252E+01 0.385E+00   -.343E-04 0.645E-05 -.135E-04
 -----------------------------------------------------------------------------------------------
   -.107E+02 -.221E+01 0.871E+01   -.128E-12 -.711E-13 -.512E-12   0.107E+02 0.222E+01 -.870E+01   -.920E-05 0.889E-04 -.218E-02


 POSITION                                       TOTAL-FORCE (eV/Angst)
 -----------------------------------------------------------------------------------
     12.32885      0.64180      9.49641         0.097949      0.028040     -0.104322
      0.13187      9.90231     16.91599         0.008630      0.048678      0.153362
      0.70869      8.20252     15.35613        -0.121585     -0.121022     -0.114105
      2.09512     12.88676     14.96104        -0.013019     -0.073934     -0.083556
      0.26126     12.18402      9.22428        -0.074311     -0.030121      0.014513
      4.33506      9.63973     14.21516         0.150084     -0.198297     -0.001003
      0.82431     10.01739     16.67035        -0.113105      0.045399      0.148908
      2.70220     10.49782     16.54544         0.100063      0.014920      0.122008
      1.26418     10.12668     14.84190        -0.084587      0.031733     -0.073231
     12.82519     10.18465     14.26785        -0.153820      0.248375      0.051603
      3.33888     10.86645     16.42359        -0.058497     -0.019049      0.168730
      4.76194      8.53714     16.96030        -0.201429      0.003237      0.027751
     12.92402      9.19166     16.70455        -0.886710     -0.255260     -0.304525
     12.19133      8.88325     16.55182         1.297798      0.490963      0.379185
     10.09232     12.24880     14.02051        -0.224676     -0.398522      0.187186
      2.20420      8.90143     11.94288         0.073221     -0.031897     -0.007910
     13.26163      5.89987     15.22579        -0.441218     -0.210459      0.142337
      0.13337     11.81743     12.43725        -0.065661     -0.302181     -0.027605
      9.61183      1.41171     14.88209         0.017831      0.105108     -0.103437
      5.48639     12.20789     15.23031         0.439320      0.116298     -0.143857
     11.32853      3.62661     10.31590        -0.279704      0.212156     -0.021821
      6.41465      6.53438     15.07791         0.172522      0.267966     -0.017254
     10.19471      3.33922     13.68583         0.382663     -0.458194      0.117228
      1.34872     14.46828     11.07872         0.519856     -0.161182      0.149906
      2.64443      5.80775     15.25843        -0.210274     -0.017860     -0.058340
      6.94274     10.29447     15.34667        -0.572957      0.230285      0.328984
      1.83559     14.27977     14.48968        -0.118772     -0.243719      0.231469
      5.95356      4.56602     11.06806         0.183485      0.013341     -0.517643
      4.44069      6.15710     13.88821        -0.001955      0.066849      0.045141
      6.51686     13.64072     13.60423        -0.312589     -0.361524     -0.140505
      2.74628     10.46857     10.22186         0.212504      0.223626      0.165813
     10.79704      2.96160     16.36314         0.000098      0.271172     -0.134531
      7.21207      4.55826     15.96390        -0.033456     -0.055358      0.209262
     12.92252     10.28621     12.77762         0.142803     -0.036053      0.096152
      4.06724     11.05007     13.76557         0.127815     -0.335025     -0.045943
      5.01408     13.66344     11.77994         0.492590      0.034310      0.124065
      8.09353     12.11212     12.78548         0.601189      0.158458      0.286231
      3.11441      0.32447     12.57268        -0.065475      0.278914     -0.359704
     12.51689      2.96950     13.50899         0.033706     -0.090985     -0.340575
      5.90130      9.19730     11.53778        -0.222640      0.267677      0.067196
      9.19400     10.14550     15.91382         0.008960      0.184123     -0.041574
      9.35076     12.45458     10.80880         0.073020     -0.640875     -0.330505
     10.31993      8.21746     16.35882        -0.422428     -0.576608      0.196511
      2.12288      1.09251     16.36764        -0.081596     -0.042772     -0.434199
      9.35256      3.88632     11.57640         0.221662      0.091278     -0.322453
      7.51303      9.51950     13.17937        -0.224741     -0.201350     -0.084031
     13.05365      3.59976     15.64876        -0.130031     -0.275298      0.755696
      9.67898      0.25450     11.30925        -0.157899     -0.114653      0.118436
     12.03559      6.45625     13.31333        -0.273873      0.037754     -0.013753
      6.00959      2.88619     14.88459         0.020851     -0.390431     -0.033517
     12.76253      4.62224     11.91386        -0.327505      0.076244     -0.042679
      6.21223      2.34114     10.44961        -0.288447     -0.085853      0.187406
      0.39514      5.25500     11.48289         0.446870     -0.242097      0.195326
      6.12140      8.40216     16.39250         0.271646      0.182234     -0.159025
      8.04203      1.90061     11.73010         0.158432     -0.147601      0.037058
      2.25732      4.07920     10.96071        -0.134817      0.235369     -0.136883
      7.90505      5.82666     11.50854        -0.003136      0.106008     -0.018432
      4.97612      3.97919     13.08690        -0.209331      0.031592     -0.072703
      7.43174      1.25755     13.96859         0.039245      0.044396      0.115206
      4.76475      0.63742     10.01273        -0.477914      0.137687     -0.149345
      0.01379     14.08580     13.00873        -0.091588      0.202322     -0.172318
     11.67228      1.31668     10.64106         0.178519     -0.165245      0.044919
      1.79035     10.59457     13.54198         0.102729      0.147574      0.097198
     10.89486     11.16813     12.11663        -0.093446      0.556743      0.148497
      3.02372      2.74019     12.73879        -0.005517     -0.399145      0.116245
     10.03346      6.77042     14.53949         0.135368      0.070293     -0.343881
      0.71012      6.87765     14.66572         0.288485      0.342359      0.143918
     10.59140     14.43740     13.47281        -0.015870     -0.069797     -0.040990
      1.18505     12.20209     10.39012        -0.182712      0.074313     -0.287291
      4.18662      7.65506     12.07809        -0.262654      0.329039      0.006015
      9.45127      4.67264     15.42407         0.051932      0.245477      0.362551
      7.77599      8.10263     10.48005         0.238948      0.172526     -0.100802
     12.92285      8.13110     11.95088        -0.023659      0.022923     -0.196918
      0.59227      2.80690     16.22411        -0.090269     -0.024652      0.036055
      7.98967      7.16134     13.46259         0.136401     -0.085270      0.388953
      0.50228      7.38235     12.33165         0.063657      0.222063     -0.464236
      4.60033     11.25098     11.45420        -0.234082     -0.069734     -0.120382
      2.26390      3.57702     14.85918         0.019516      0.209384     -0.364647
      3.94042      5.66589     10.86913        -0.042232     -0.136155      0.226702
     10.46366     11.97443     16.27698         0.245357     -0.058737      0.395068
     12.62361      0.77486     12.76841        -0.014471     -0.176984     -0.008839
      9.10194      9.82931     11.47511        -0.015009      0.268305     -0.548991
      3.95609      2.45823     15.96554         0.303943      0.156391      0.299475
 -----------------------------------------------------------------------------------
    total drift:                                0.003396      0.012968      0.007252


--------------------------------------------------------------------------------------------------------



  FREE ENERGIE OF THE ION-ELECTRON SYSTEM (eV)
  ---------------------------------------------------
  free  energy   TOTEN  =      -691.51297881 eV

  energy  without entropy=     -691.33353084  energy(sigma->0) =     -691.42325482



--------------------------------------------------------------------------------------------------------


    POTLOK:  cpu time      3.8181: real time      3.8204


--------------------------------------------------------------------------------------------------------


     LOOP+:  cpu time   9228.3769: real time   9234.9314
    4ORBIT:  cpu time      0.0000: real time      0.0000



 total charge

# of ion       s       p       d       tot
------------------------------------------
    1        0.568   0.016   0.000   0.584
    2        0.616   0.032   0.000   0.648
    3        0.563   0.016   0.000   0.579
    4        0.566   0.016   0.000   0.582
    5        0.569   0.015   0.000   0.584
    6        0.565   0.016   0.000   0.581
    7        0.612   0.033   0.000   0.645
    8        0.615   0.032   0.000   0.647
    9        0.578   0.017   0.000   0.595
   10        0.564   0.015   0.000   0.579
   11        0.611   0.033   0.000   0.644
   12        0.566   0.016   0.000   0.582
   13        0.559   0.024   0.000   0.583
   14        0.580   0.028   0.000   0.608
   15        0.760   0.963   0.000   1.724
   16        0.751   0.942   0.000   1.692
   17        0.795   0.881   0.000   1.677
   18        0.756   0.950   0.000   1.705
   19        0.762   0.930   0.000   1.692
   20        0.807   0.835   0.000   1.643
   21        0.804   0.852   0.000   1.656
   22        0.759   0.960   0.000   1.719
   23        0.782   0.931   0.000   1.713
   24        0.808   0.842   0.000   1.650
   25        0.801   0.898   0.000   1.699
   26        0.770   0.906   0.000   1.676
   27        0.765   0.934   0.000   1.699
   28        0.753   0.952   0.000   1.705
   29        0.762   0.936   0.000   1.698
   30        0.754   0.920   0.000   1.674
   31        0.800   0.853   0.000   1.653
   32        0.820   0.785   0.000   1.605
   33        0.793   0.891   0.000   1.684
   34        0.747   0.973   0.000   1.721
   35        0.758   0.948   0.000   1.706
   36        0.761   0.889   0.000   1.650
   37        0.785   0.856   0.000   1.641
   38        0.753   0.905   0.000   1.658
   39        0.774   0.933   0.000   1.707
   40        0.768   0.893   0.000   1.661
   41        0.792   0.896   0.000   1.689
   42        0.794   0.834   0.000   1.627
   43        0.865   0.766   0.000   1.631
   44        0.807   0.838   0.000   1.645
   45        0.765   0.903   0.000   1.667
   46        0.767   0.912   0.000   1.679
   47        0.754   0.919   0.000   1.673
   48        0.765   0.905   0.000   1.670
   49        0.755   0.922   0.000   1.677
   50        0.755   0.926   0.000   1.681
   51        0.761   0.925   0.000   1.686
   52        0.781   0.906   0.000   1.687
   53        0.784   0.893   0.000   1.677
   54        0.777   0.914   0.000   1.691
   55        0.757   0.931   0.000   1.687
   56        0.781   0.889   0.000   1.669
   57        0.751   0.893   0.000   1.644
   58        0.778   0.915   0.000   1.694
   59        0.757   0.902   0.000   1.659
   60        0.852   0.759   0.000   1.611
   61        0.760   0.935   0.000   1.695
   62        0.748   0.955   0.000   1.702
   63        0.754   0.969   0.000   1.722
   64        0.768   0.929   0.000   1.697
   65        0.768   0.884   0.000   1.652
   66        0.756   0.929   0.000   1.685
   67        0.754   0.967   0.000   1.720
   68        0.763   0.957   0.000   1.720
   69        0.747   0.962   0.000   1.709
   70        0.753   0.929   0.000   1.683
   71        0.761   0.934   0.000   1.695
   72        0.829   0.763   0.000   1.592
   73        0.795   0.900   0.000   1.695
   74        0.780   0.900   0.000   1.680
   75        0.770   0.908   0.000   1.678
   76        0.756   0.963   0.000   1.719
   77        0.755   0.896   0.000   1.650
   78        0.760   0.933   0.000   1.693
   79        0.791   0.871   0.000   1.662
   80        0.873   0.764   0.000   1.637
   81        0.753   0.959   0.000   1.713
   82        0.800   0.816   0.000   1.617
   83        0.795   0.875   0.000   1.669
--------------------------------------------------
tot         61.666  62.512   0.000 124.178


 total amount of memory used by VASP MPI-rank0   403574. kBytes
=======================================================================

   base                                    :      30000. kBytes
   nonl-proj                               :      78312. kBytes
   fftplans                                :     108821. kBytes
   grid                                    :      83991. kBytes
   one-center                              :         18. kBytes
   wavefun                                 :     102432. kBytes

  
  
 General timing and accounting informations for this job:
 ========================================================
  
                  Total CPU time used (sec):     9390.210
                            User time (sec):     8280.722
                          System time (sec):     1109.488
                         Elapsed time (sec):     9396.833
  
                   Maximum memory used (kb):      674332.
                   Average memory used (kb):          N/A
  
                          Minor page faults:     15311031
                          Major page faults:         1210
                 Voluntary context switches:         3333
