LAMMPS data file via write_data, version 2 Apr 2025, timestep = 6560000, units = metal

1000 atoms
2 atom types

-1.2517071701531002 24.689294695234558 xlo xhi
-1.2517071701531002 24.689294695234558 ylo yhi
-1.2517071701531002 24.689294695234558 zlo zhi

Atom Type Labels

1 H
2 Si

Masses

1 1.00784
2 28.0855

Atoms # atomic

508 2 0.3416704137241844 1.7268540339547611 2.6224051415717655 0 1 0
579 2 1.6019271810488234 -0.2507423039733485 2.167153141360347 0 0 0
800 2 0.33056019046070473 2.704893560932225 4.71977222544862 0 1 0
87 1 -0.8490320357939336 1.4343143627449741 0.23827419913497816 1 -2 1
364 2 9.557524963471163 9.955622364872431 1.1023158701687654 0 0 0
828 2 11.020857237373368 -1.1684060450926028 3.690663388755377 0 1 0
376 2 10.836755368866315 7.8056148011808535 3.5787465696204093 0 0 0
740 2 3.4811546450967086 1.1747635099349063 2.1634691918751843 0 0 1
665 2 3.6785978902617398 1.8111365432775393 4.450672505148124 0 1 0
544 2 5.329008951991424 0.15067839291831686 1.2509413321434555 0 1 0
176 1 5.12218562237696 0.16295312590908284 -0.25108130878531676 3 2 1
793 2 7.062612962997671 1.490351584893709 2.1694559556753314 0 1 0
811 2 7.320392823008836 0.8881884271042151 4.569793728347873 0 1 0
851 2 10.797938323924331 -0.34893547220568766 -0.32440897708157745 0 1 1
768 2 10.721626221364467 2.1453030748065878 -0.35167249971340997 0 1 1
147 1 8.260678469178162 0.8993761236703879 1.4933342492335395 -3 -1 0
890 2 11.171002571631336 1.0109853280542853 4.541174452547507 0 1 0
940 2 9.225671909516286 2.119666667246984 4.98844519264252 0 0 0
673 2 8.72885084750661 8.327605878218021 2.6694856116301273 0 0 0
118 1 1.327657085977882 -0.98134260515354 -0.8608236968375967 -1 -2 1
375 2 0.8721618461328937 3.4510264006178977 1.2207389021371373 0 0 1
717 2 -0.5111043843215857 3.968696756791349 -0.5332762864592068 0 0 0
538 2 2.183845656346399 6.804621783523023 2.1383332812077813 0 0 1
199 1 0.5498823065429248 4.8457504309701545 1.8076058812155997 0 0 0
883 2 3.140648204181077 3.302195668266023 1.2230443808331626 0 1 0
894 2 2.3938548399143276 3.6554815873625426 4.96554033161252 0 0 0
875 2 3.2745253802410152 4.861364944382391 3.0638619928518924 0 1 0
584 2 0.4953907702811735 7.435294664974311 0.6020369910096781 0 0 0
226 1 4.1394579504931075 3.6317442214602487 0.12029176551921417 0 3 -1
833 2 6.08587410308429 5.541368563854007 1.6709329683644452 0 0 0
570 2 5.3261230003822275 5.548187280413304 3.811713384386139 0 0 0
353 2 3.9970686340495085 6.537814116557003 0.6531124393935044 0 0 0
389 2 7.564714269213992 3.761039944168597 1.8248505379469466 0 0 0
354 2 11.511387638383717 5.2857758209921055 1.1263211497576808 0 0 1
43 1 7.861140566955115 6.899236078783893 4.371151905820056 1 1 0
951 2 8.782000636742985 3.6200394921254047 -0.2334360590740594 0 0 1
788 2 7.985060587973383 6.902972856130193 1.0972219544974493 0 0 1
895 2 9.098554931928856 4.147071098512568 3.7154386950480003 0 1 0
893 2 9.657029791362355 5.796713705683594 -0.12572241080476365 0 0 0
879 2 11.02923382622271 5.410431972549157 3.370083036957644 0 1 0
495 2 3.4918057543161636 -0.43477819114300564 5.158585904038347 0 1 0
381 2 1.5107440092432274 9.219563436571246 -0.4386196124442502 1 0 0
758 2 1.653196254350692 10.956768236394515 1.1440976655870827 0 0 0
522 2 2.7503735468215718 8.522355454279053 3.809195832331234 0 0 0
372 2 3.1343287488381595 10.597607888085333 2.7986341640686643 0 0 0
16 1 -0.9360947040862934 5.279071781855739 3.3660713501018975 0 1 1
697 2 6.557343816862308 9.207592984183 3.594157193165759 0 0 0
440 2 4.8467971953360145 7.715004738729046 4.466263802168081 0 0 0
548 2 7.029866415008124 8.1276087801125 -0.5391271107298461 0 0 1
989 2 5.1759124438474995 10.282826015008201 1.7611954402208263 0 0 0
967 2 4.75408327475282 8.714121331843439 -0.051574376929814925 0 0 0
846 2 8.073221712008683 10.227597935836744 -0.7076802131817116 0 0 1
437 2 11.49451576164373 9.550873584239966 -0.17809379006388926 0 0 0
623 2 0.45958408598924794 5.979614180407393 -1.0944107998169406 0 0 0
733 2 -0.7192290997018437 -0.9204482262959492 5.226852859471357 1 0 0
369 2 2.8398786102190243 5.66043529382108 -1.2254180977587907 0 0 0
145 1 5.957869342961349 4.193651443981431 -1.1953217505303861 1 0 1
308 1 7.666904734408945 -0.5588216526864361 -1.098461205623284 0 1 1
603 2 1.1460324165403848 0.19554899761141487 7.8981678021386355 0 0 0
862 2 -0.3689475780671678 1.119502375041225 6.332402286388718 0 0 0
919 2 1.0242732327384165 1.5174222371840482 9.63299681082463 0 1 0
311 1 1.0229547473026264 0.8805605238935619 10.992392076566453 2 2 1
994 2 3.4581629586097007 -0.19758746237356983 7.451508078216886 1 1 0
783 2 4.495169510954301 1.9651796859768496 7.66870184381048 0 0 0
469 2 5.782364408002103 1.9213987253846216 9.557820703286168 0 1 0
680 2 6.412418856552554 -0.4072480161178095 9.681204982660502 0 1 0
386 2 5.718012869955305 2.1829425066428962 5.591193341808094 0 1 0
59 1 -0.9326979032517357 5.392960344982549 5.716959865722887 2 0 1
278 1 -0.651822657601627 7.636576013981671 7.470266319298954 2 1 0
46 1 1.274722216317985 6.814118526197838 6.148568155728074 1 1 0
436 2 10.695076334117823 -0.3594148825739003 9.592079894039315 0 0 0
957 2 8.570105218216048 -0.6315553412486128 8.685982201406814 0 1 0
167 1 8.893957238894183 0.6550571746575429 7.583841960283586 2 3 -1
832 2 11.185645922979917 1.8932288745101062 10.038053201664871 0 1 0
763 2 9.426815599809679 2.772306581485986 11.126850932260067 0 1 0
918 2 9.049450423279865 2.356832442067236 7.399061948100169 0 0 0
679 2 11.226357362186636 2.726038307439834 7.9030997134879115 0 1 0
953 2 1.685860059267955 3.8240631245114027 9.194019842852457 0 0 -1
245 1 0.4627293580831784 4.551390012860773 9.031124193078881 1 -1 0
255 1 2.3209220617497444 4.400836032706579 10.332538555919713 -1 0 0
700 2 10.670002538629406 11.45185805355953 8.151081489637379 0 0 0
216 1 -0.8535988302548421 3.5829465905537514 11.254053520459593 -1 -1 0
782 2 10.114407124757617 10.539701874684779 6.076474802892129 0 0 0
691 2 3.165007584662191 4.06050766339405 7.3167736448192535 0 0 0
607 2 5.162423596168171 5.423553683807265 7.453383776322191 0 0 1
971 2 7.0732610116731855 5.309323979060511 9.043890781023173 0 1 0
996 2 6.212283889933744 4.551879125655409 5.6238609617818565 0 0 0
795 2 7.321271325928109 5.503006024219538 11.384153167507192 0 0 0
359 2 7.901611820547876 3.1465804700780247 9.307918142392674 0 1 0
600 2 11.192903334525038 5.82963035671676 9.760030268482677 0 0 0
602 2 9.727844219829974 6.507196250668123 6.862114069608998 0 0 0
773 2 11.252756575535965 5.052055387516263 7.614686892797932 0 1 0
448 2 9.734237977219143 5.0743250343216975 11.49422848471072 1 0 0
655 2 8.191364208467041 7.385815404868387 8.406063253860273 0 0 0
197 1 -0.6163450386039908 8.702609720632765 10.127648396873813 1 2 -2
620 2 10.058617429666258 7.890669434135221 9.670202486346156 0 0 1
884 2 1.360275033845547 8.343021105695149 5.690784766365482 0 0 0
345 1 2.324736756928312 8.645909518992497 8.921025567593611 0 0 0
63 1 -1.0191230336585244 10.66071514472411 9.93685686069787 2 1 1
780 2 2.871610470389194 8.818768991642708 7.557167887295334 0 0 0
229 1 2.481932178612009 9.386701746965343 11.501760671934477 -2 -3 -1
434 2 2.6534916817030774 10.79052647704526 11.60709713632538 0 0 0
110 1 -0.4449499678594975 8.102634528721579 10.464469345311697 3 3 0
315 1 0.039637019805150775 9.048113567527956 5.774678694603423 -3 -2 0
610 2 7.637335894165782 10.27327308846641 5.710631902872654 0 0 0
39 1 6.554465981034495 10.975405559132945 11.524639798830787 1 2 -1
849 2 5.600348314454737 10.693504932318623 8.895544567255248 0 0 0
169 1 5.212277664279788 10.106925850427217 10.33289956877193 -1 0 0
529 2 6.734979491252418 9.019427527822822 7.599036764886758 0 0 0
992 2 3.4226596147593984 10.997966408426489 7.804162297935015 0 0 0
937 2 4.789941943693799 7.666493953321005 6.866976008965306 0 0 0
961 2 10.786569422850443 8.28534385921269 5.827334852385348 0 0 1
539 2 10.464340111849072 9.321987131663823 11.463973577201651 0 0 0
561 2 11.565214787456712 9.827660477810394 9.544868533171035 0 0 -1
205 1 -1.0183467699720974 7.034597094820105 7.137649901310148 2 1 0
60 1 5.125072570990404 7.906578749783273 11.462080009955143 -2 -2 1
749 2 8.256108401975013 5.743792436097885 5.2924273571535325 0 0 0
257 1 3.616772604257841 2.6669763747529576 11.588775576865782 -1 -1 1
847 2 1.4586770147232664 -0.4189101782182648 16.571758461108494 0 1 -1
14 1 1.6628951135847139 0.15987608028938372 12.550141038054374 1 1 0
270 1 2.6398992077647305 0.11973110803034581 17.147557816143635 -1 0 0
305 1 0.7062901850278378 0.7128906996309916 16.11176151070438 0 -1 -1
273 1 -0.7940548802506606 2.875819672244546 13.393024469301766 0 -1 0
236 1 -0.2303484113953298 0.001562893558411993 13.772001170405856 -3 -2 1
198 1 0.5840559379305241 -1.133298404159403 17.46733127557289 1 0 0
22 1 1.1847680630596926 1.9762208617136339 14.825152890473877 3 3 0
557 2 4.931458851412828 2.1871214839962856 11.764374001843036 0 0 0
254 1 -0.7792202662164451 2.3597161710530603 16.480695299556977 -1 -6 0
329 1 1.713982406313216 2.7109166847852024 16.849857818563233 0 2 -1
424 2 2.1455192395428297 2.8780746322359683 15.391595267021682 1 0 0
148 1 9.561267214747216 9.164382210711693 17.436694406512345 1 4 0
168 1 7.671441045195779 7.293735334336361 16.783102401881493 -2 0 -1
852 2 2.756526001429659 -0.792568091763197 12.899973066208451 1 0 0
540 2 4.966166729581903 0.1141120481736757 12.914201268147709 0 0 0
935 2 5.8998611396911205 0.5958700857840182 15.012396951866663 1 1 0
107 1 4.9233566441134595 0.7764527532135439 16.160432357952303 1 0 0
732 2 7.221767228688067 2.4877146258540215 14.50812494959502 0 1 0
5 1 3.428314080835377 2.5187694017780036 15.036081667427979 0 1 0
887 2 6.6439042514666085 -1.0943162286069372 11.951442044780007 0 0 0
274 1 6.4829446384337315 11.021938852096595 12.051593434544776 -1 0 0
494 2 8.783552073101738 -0.5818121016295953 12.90090638596935 0 0 0
983 2 8.942627907926221 1.6101213127614042 13.193567639192834 0 0 0
406 2 10.35658173570228 -0.009109140536803784 16.267557182169217 1 0 0
677 2 10.786757727325982 1.6076027800897936 14.68544061931038 0 0 0
165 1 7.861416679451624 1.3758374994117641 17.92189581733348 0 1 0
685 2 10.339949601437446 2.8801452936316174 18.15942112236606 0 0 0
420 2 9.270420873903245 0.9044073294598083 18.156058038210066 1 0 0
268 1 3.456585098462435 5.946155758566851 12.08322412875531 0 0 0
319 1 -0.19848380335512705 5.130234809890756 13.038179088350354 1 -1 -1
143 1 1.3828360411529994 3.325952027735867 12.485503185819844 0 -1 0
946 2 -0.09652685085678181 3.770623581090775 12.574182719063801 1 0 0
820 2 -0.5377599492061904 5.079551834714873 16.34620026725876 1 0 0
161 1 -0.018155621845222347 3.6506762066466907 16.320420940425247 -1 1 -1
21 1 0.11728986663703367 5.7048654019881395 17.6251646428442 0 0 0
299 1 3.0611843449803207 5.404520974018612 12.485142484118832 0 0 0
108 1 -0.47275229905295746 6.077332493534808 15.110852860839437 0 0 0
235 1 2.051855292877733 4.258172779277893 14.981267192230021 0 1 -1
25 1 2.1802404145556284 6.3322330814721655 16.62415258967071 1 1 0
341 1 1.6221542396158504 6.2035989595515115 16.120550555600126 5 2 0
279 1 7.904715946322057 7.259545699831282 17.542655649048168 3 1 0
115 1 3.7596780509284065 3.7168619204618025 16.988769526563534 2 2 1
247 1 6.324046542684459 5.626161550362864 16.242612795747046 0 -1 0
699 2 6.142641460896136 3.9332905346108173 12.924653030364741 0 0 0
200 1 5.330089370614984 4.966185429267322 13.47966528286659 -1 -1 0
142 1 6.688508014763515 5.3055006521813395 15.617522726946408 2 1 -1
68 1 4.259708333160094 3.5953217135406703 17.497891560731023 1 1 1
583 2 11.43098260862701 3.537768014199366 16.13812813332435 0 0 -1
134 1 7.394537098557576 3.193129088690724 15.732741642088289 1 1 0
138 1 9.98426076682951 6.317774581742344 15.980795017301155 1 1 0
767 2 11.05661002916171 5.715573841506085 15.252175352893968 0 0 0
457 2 11.261341700306598 5.951964721093791 12.972870025965163 0 0 0
347 1 8.799906960899511 5.761557400171987 18.10603912299123 4 2 -1
338 1 9.488404600965994 10.159052149258502 12.169379596175853 -2 -2 -1
103 1 8.380139734396703 8.776395616210651 15.342663425326112 2 1 1
15 1 1.324400600141694 8.13455968103017 14.248258400647641 0 -1 -1
7 1 7.431925450102494 8.546267020183212 12.2169799595065 3 3 1
149 1 0.755955210859879 8.153272830819878 14.71151593702826 0 -3 0
89 1 0.20697506530380427 10.960259294059737 13.250838162897184 3 2 1
252 1 0.5678903776443303 10.903278757165118 16.2303906254071 0 -2 -1
571 2 0.9333176954160134 11.452325519643937 17.46909784853467 1 0 0
61 1 1.98926656438385 11.30261154552029 14.732826593992675 -1 -2 1
104 1 -0.5493366614803276 8.60147535323387 12.642875940329839 -2 -2 1
339 1 5.982440638027018 7.2498701134768595 13.516215165072602 -1 -1 0
253 1 7.784368669065957 8.668969200556232 14.833093093363534 1 -1 0
76 1 10.873424349459745 10.508315642015168 15.608486595653819 0 -1 0
122 1 4.085380903698737 10.103069333012957 14.526048250187326 -1 0 0
32 1 3.930175773019082 9.324865058683516 14.118153833981067 -3 -2 0
948 2 6.424817842090415 7.499398237094624 12.163627273756859 1 0 0
201 1 -1.1431047265113758 8.888867326566476 17.107882532238413 -1 0 0
141 1 6.956268821397563 10.129868094072682 17.85559555245601 -1 -1 -1
276 1 4.0955101952373845 11.083112657610062 11.951486015413263 -1 -1 0
271 1 -0.8150484296171854 1.3345698074101744 21.89795089880371 1 2 0
314 1 1.0140325686936698 1.0716121439519246 23.106597375306666 2 0 -1
78 1 -0.7832085263202628 0.15410662986803403 19.02080460304804 -1 -2 0
112 1 -0.9460670047397239 0.712016527615202 19.482166885639515 -1 3 0
6 1 -0.545191553403315 2.9802825433541704 24.324500213975252 -1 0 0
34 1 2.687087674718585 1.966105292725378 18.896771819452574 2 2 0
670 2 1.6584557804463254 2.7785629331121013 18.46803723566679 0 0 -1
312 1 1.7214083911974316 1.2888968987874132 23.134005678302607 -1 -1 -1
172 1 4.9203607058260665 1.7221050049134035 23.422274284155094 0 -1 0
166 1 4.2792552619404045 1.4256116498122706 23.172395837030937 -1 -2 -1
191 1 6.1547578252693 1.2448713156121043 19.77382314032193 2 0 0
238 1 6.737595943331379 1.7306020899023298 19.84160636837755 0 -2 -1
121 1 4.327610583656418 0.27315340725609194 18.814631350798056 4 0 0
82 1 3.885336501229186 -0.3789191465180892 18.69905724416646 4 3 1
293 1 6.2300784613782145 -0.40294717659330415 22.086379115524725 0 1 0
19 1 2.895997520338214 9.374701234446155 18.345633636709042 3 2 -1
251 1 7.731897959281982 1.45056939309428 23.186705058579996 -4 -3 0
233 1 9.391629093585548 0.2848620832358042 19.517956966598174 4 3 0
647 2 10.628046804075181 2.792119737106214 23.205397060124245 0 0 -1
693 2 8.247723399988653 2.8246390614038583 22.74460030202957 0 0 -1
963 2 -0.9654607605963731 2.776369570816586 21.600591961459745 0 0 -1
1 1 2.886421354792673 3.6571129362697192 21.442046718857117 1 0 0
237 1 -0.8871370621972895 6.175462411768971 19.84111373352681 0 -2 1
265 1 1.8843043095586198 4.17428808984809 18.853577136252245 -3 -5 0
53 1 0.17921535125395538 3.739207803281543 21.963842678968742 -1 0 0
139 1 1.3533321581743158 5.466252126256314 20.806139174203945 1 0 -1
649 2 2.0025255013889214 6.771114947282795 20.888708453287816 0 1 0
50 1 7.103420731716415 10.64432034122201 18.391715209263946 -1 -1 0
65 1 3.2699784669533436 6.7119695884121455 20.033408982233993 3 4 0
84 1 3.3721068554269165 4.209430898225359 21.270318685663312 1 2 1
79 1 3.0925529664381015 4.3355832081627295 24.257199505623387 -1 0 -1
535 2 3.2081993886044042 7.1119859804947545 22.975934351268553 0 0 0
337 1 0.356339134090883 2.311149085652633 18.864643306084115 1 2 -1
24 1 5.725414459688351 5.513165800630804 19.880741850429917 -4 -5 0
159 1 5.743904164534236 5.4693907512072295 20.584688461433434 3 2 0
239 1 4.7188263287435115 6.6944793539384975 22.66679471946814 -1 -1 -1
646 2 7.286828660824435 4.437652695731417 24.128099879513606 0 1 0
816 2 7.448100797385102 6.786206054947392 23.48367891506209 1 0 0
55 1 7.684770625724775 2.982835495818005 21.32345530076072 0 1 0
296 1 8.230173854596432 4.499966705880515 19.831436094077436 -1 -2 1
360 2 9.33969578826988 4.817986558264104 18.9787562141191 0 1 0
687 2 9.840093076086367 6.594234321397549 23.565903898364816 0 0 0
915 2 10.99918313892231 4.907738392259742 22.591114138650507 0 0 0
943 2 11.329314685419712 5.069296932378096 20.242382892190786 0 0 0
866 2 -1.1921989869151552 9.556135814925055 20.687751645519356 1 0 0
88 1 0.27292691346984177 7.868959023991907 18.78112069221163 1 4 1
367 2 -0.4736603568105019 10.113963050056308 24.50517837371082 1 0 0
952 2 0.7213692837835022 8.529215105403168 20.053078102499054 0 0 0
715 2 2.0294086349627585 10.177576601912008 19.208961869459657 1 0 0
322 1 4.679150435479882 10.513654279566383 20.25594362144965 0 1 0
291 1 5.40810457083143 7.700182983383513 21.206381436536926 1 1 0
606 2 7.216545732293975 10.339912098923373 21.971836019405497 0 0 -1
772 2 3.4574280128085775 11.308870736215667 20.580145605042627 0 0 -1
906 2 6.75203204243941 8.07079746255879 21.671979579477068 0 0 -1
848 2 3.3802028743437047 9.21889773543728 24.065912348731185 0 0 0
373 2 3.418656755259306 11.37008752379134 22.835686741718746 0 0 -1
419 2 11.610116266036648 10.270663224905828 20.213438068086084 0 0 0
496 2 9.912297594846148 9.029538341307479 18.955621483824153 1 0 0
644 2 10.610977838463272 8.832950633017047 23.61741166037312 0 0 0
769 2 9.10588724703394 10.413707123621005 23.285122654992012 0 0 0
38 1 8.684481796939002 9.426851784403642 19.53125450851794 0 0 0
136 1 7.373501608458664 10.724773670821877 20.52740676912556 1 0 0
98 1 10.091580998742192 7.6139770092026176 19.313329945519577 -3 -2 0
2 1 7.607024694221888 7.810036333500339 20.457193220380812 -1 -1 -1
124 1 -0.8168355750360271 2.7896336556748738 20.083385041298754 4 1 -1
309 1 6.399491686655384 -0.5846322357084547 22.808757110219652 0 0 0
912 2 2.0557795235902883 12.86406237906842 -0.20662755900598184 1 0 1
553 2 0.05748940321272866 13.78811243283034 0.2567087242572117 0 0 0
1000 2 2.6488974286105216 12.42766249344039 4.24076437559386 1 0 0
794 2 0.11877266032136036 15.712595788821677 1.4080495755822433 0 0 1
520 2 1.4354780038597075 15.861036466049068 3.28288647219171 0 0 0
705 2 -1.1808877687521862 11.845155611983667 3.8537929928941805 0 0 0
421 2 0.2086570929948972 15.094692142862229 5.17239954971328 0 0 0
868 2 3.223405341357891 14.394271694857148 2.996690556293202 1 0 0
899 2 6.632377084897198 12.240666981084155 -0.6921308338296228 0 0 0
707 2 5.519206359836735 12.507296507929299 1.2117085687286053 0 0 0
714 2 3.8252889010016595 14.084886827569985 0.7461954795357948 0 0 0
446 2 5.164574027020972 15.35256818970381 3.4045236550822935 0 0 0
870 2 6.503177688059055 13.443420713373063 3.031781434187491 0 0 0
949 2 4.598854416269094 15.978879464948736 -0.28595058738068246 0 0 0
370 2 6.188517627337233 12.130254118020538 5.146239765050214 0 0 0
826 2 10.636751729524816 14.41099819980145 4.769234063919324 0 0 0
776 2 8.160744049340263 14.215643508233688 -0.19392113749953888 0 0 0
587 2 8.550446741275408 13.908104738194664 2.1200601849504217 0 0 0
781 2 9.715185481533831 15.579387367169716 2.9405434267012733 0 0 0
654 2 10.776084925010814 12.100862044477196 4.471968651077541 0 0 0
721 2 9.969077630263214 11.940175976813231 2.205347117680111 0 0 0
619 2 -0.51416176732831 18.93744029077837 -0.22377487175543842 1 0 1
614 2 0.9316855037497236 17.211146082951192 -0.4519502617610349 1 0 1
745 2 1.5358371568274616 18.067292345625145 3.8550079227848357 0 -1 0
831 2 -0.4102040123500611 19.326624006384503 3.9155425056837547 1 0 0
413 2 3.0435978593566775 18.940776578211704 2.1281571460088093 1 0 0
430 2 3.125132171217282 17.82312291508461 0.0993124483680472 0 0 0
970 2 5.435474375382754 19.85940603699336 5.077154773211006 0 0 0
416 2 6.810941035739248 16.290516887874542 0.18922070192775697 0 0 0
959 2 6.26069273408785 17.12617636443817 2.330201496159153 0 0 0
708 2 5.220895919932341 19.069464934396127 2.8404316629334616 0 0 0
651 2 6.6854213852002164 20.02055091375223 -0.03128613926870916 0 0 1
152 1 5.641336492281139 19.759658352450163 1.2941406684843204 0 0 2
920 2 8.225762947258652 17.294316892843028 3.643670384514442 0 0 0
593 2 9.592109972224392 19.477520099287215 3.4601260215239265 0 0 0
779 2 9.912955288716507 18.13424450721251 0.027465862059674606 0 0 1
876 2 10.971266079517918 16.641510893619536 1.3778346315254573 0 0 0
993 2 7.778721612193603 18.083383778465073 -0.9217012923021262 0 0 1
598 2 10.07468623115371 20.139196353485268 1.3260279715014578 0 0 1
591 2 0.5606000354387659 24.59437341237809 0.3797100078697213 0 -1 0
377 2 0.3523679464766021 22.165131036722528 0.742134565185957 0 -1 0
864 2 2.142312688063695 22.11333968204214 4.327393384816434 1 0 0
528 2 2.1978401992588594 21.343432081790194 2.1105075794167227 0 0 1
873 2 1.4244045827442657 24.442934544449926 4.239013598283695 0 0 0
791 2 7.907435160663546 23.52953466287575 1.4706070371570825 0 0 0
140 1 3.2674869642823996 23.435240614363703 -0.08128823480497838 0 0 1
667 2 5.582045600884729 23.985206024519435 2.1779278180669963 0 0 0
57 1 4.82267590763664 21.584477035124447 0.49843255689084853 0 -1 1
869 2 5.321248326678515 23.84514712647111 4.566804299994324 0 0 0
661 2 3.901832512994635 22.61481271223631 1.1722696360197702 0 -1 1
669 2 9.161559894576643 21.559085935528557 4.585084397061543 0 0 0
556 2 8.905698087383076 23.646788283201957 3.5171376313461273 0 0 0
939 2 8.376766167559662 21.438551614054155 0.2871761105037529 0 0 1
929 2 -0.4233491158750452 11.868061718338309 1.669359677989402 0 -1 0
710 2 7.410596645496849 24.496926762975125 4.973606467720274 0 -1 1
735 2 8.758500091093811 24.456557633886952 -0.7259728499074659 0 0 1
904 2 -0.5355172824323062 14.247924973419504 10.116601061272297 1 0 0
938 2 1.1173325644738985 15.673643778879654 9.282017675896977 1 0 0
692 2 -0.10565691690116141 11.828621202317066 9.489926355000529 1 0 0
634 2 1.6475586333637748 15.79740119963759 6.919495114807821 1 0 0
638 2 2.6274919469060904 14.105504084945018 10.073719687199633 0 0 0
640 2 -0.5935995802073835 11.839925501651662 7.174676582163299 1 0 0
981 2 2.189752795584278 11.913891209509199 9.518341235489117 1 0 0
736 2 4.69248014664958 14.628291392115896 8.957170815902163 0 0 0
414 2 3.8464683923815253 14.597291671233242 6.861123650992287 1 0 0
578 2 4.093598550018467 12.43702015359443 6.09174134148194 0 0 0
901 2 6.509131828672858 13.118690116946151 8.943709041413749 0 0 0
962 2 7.18186896527949 15.938059566124679 11.051011787379116 1 0 0
459 2 7.293256469960143 13.10525447135681 6.848764516693008 0 0 0
790 2 8.34053270468039 14.109661288164423 10.289321195354917 0 0 0
885 2 8.9818504748209 14.773565677796391 6.355470352530071 0 0 0
488 2 10.499502551225605 14.977000288057582 10.146544668877825 0 0 0
151 1 9.76600531567337 14.910016384654018 7.561203802195008 1 0 1
174 1 11.43292093328524 14.279091199062151 9.190555914761195 1 1 1
126 1 9.639071605330074 12.286363871566733 8.909088532486175 -1 1 0
62 1 10.898890442791936 14.776662306357768 11.571991712705085 -1 0 0
196 1 8.47562966238032 13.421153062533655 11.552349474834989 0 0 0
927 2 1.2980294262224321 17.563801164244403 10.619290895493858 0 0 0
550 2 2.0010113190704377 18.002755930205847 6.191174256763241 0 0 0
621 2 0.5309198160023825 19.46183022985756 7.386788588072777 1 0 0
575 2 1.5881572828111326 19.783847960384826 9.501245689221667 1 -1 0
432 2 5.417449146362852 16.1142834448702 5.607109446176266 0 0 0
656 2 4.981751067568012 16.579646263854272 10.04703630539508 0 0 0
450 2 5.001318841248183 18.550801340345696 8.713466747780409 0 0 0
947 2 4.476001923924613 18.19885924481195 6.356545211366599 0 0 0
641 2 7.2784747532993475 18.97578850248053 8.906838122291026 0 0 0
475 2 3.3408798575388925 16.903223228191173 11.698028805436884 0 0 0
748 2 7.639994938868519 16.55367039275302 5.910640577070172 0 0 0
857 2 8.220428904806855 17.921499560332077 10.67538933942086 0 0 0
892 2 10.444945430507275 17.3217493089522 9.86509302798393 0 0 0
986 2 8.22898191649861 18.47280065063969 6.895708747552538 0 0 0
564 2 10.476207347547424 18.53394940072748 7.668159205682045 0 0 0
219 1 11.51662993048617 17.996726135896445 10.638944696278559 -2 2 0
472 2 0.4748421248703998 23.303564137627408 10.380461620337678 0 0 0
411 2 -0.7931904316286713 22.956016616669572 6.3847302557479555 1 -1 0
980 2 0.14707547090965645 21.04400306612224 10.73224279590796 1 -1 0
932 2 0.44307823611706776 20.989771429711443 5.4611987300087845 0 -1 1
880 2 -0.16988881661066113 24.249120587330033 8.371832216410812 1 0 0
358 2 2.7208881941696617 23.789097386451267 10.763796480517085 0 0 0
999 2 7.557520790461634 20.427556290943805 5.880120086867833 0 0 0
464 2 3.812846111737225 20.38350785822011 9.3932793393688 0 0 0
871 2 4.305504733594861 24.184580437591922 8.979208902822956 0 0 0
729 2 6.926098041451784 21.87962298969003 7.673309793978358 0 0 0
688 2 4.603819100069441 22.098747290412643 7.807419145953331 0 0 0
384 2 4.002282405521152 21.873680210610964 11.27525675503381 1 0 0
613 2 4.208067589710418 21.906200752131138 5.352882114907158 0 0 0
942 2 10.064118932150347 22.25709499556214 6.611664423858571 0 0 0
562 2 8.263210868988718 23.66467541487909 7.083148064274482 0 0 0
823 2 10.119278647337957 20.695917106121925 8.351367713315252 0 0 0
601 2 7.958162523368614 21.03767773331784 9.474280945796215 0 -1 0
283 1 11.05460667244965 21.048788728834555 9.47364950438757 2 2 0
249 1 -0.7117665375659101 23.856332143833097 11.346781133194142 2 2 0
461 2 0.502824333960334 12.753825717937604 5.267742778421012 1 0 1
843 2 7.8386399766480555 21.38908717315686 11.717066076601819 0 0 0
770 2 10.523410980986032 24.405194321108922 11.675038821675354 0 0 0
158 1 10.733549510400556 21.139225955893732 11.50388211827054 2 2 0
500 2 1.2065378040463055 13.999570170974176 13.413150251022786 0 0 0
503 2 -0.563670232628183 14.930625413054205 12.38813759936284 0 0 0
483 2 1.7415709062863076 14.556404391927982 15.67955943961713 0 0 0
596 2 -0.5863515391425939 14.943674856321365 16.35961900860885 1 0 0
804 2 2.6349370436020587 12.906244247494213 17.085415226513483 0 0 0
812 2 -0.717394095052005 13.004861701547586 18.033405651514045 1 0 1
617 2 2.9601266850216996 14.715036404555912 12.229681527127632 0 0 0
294 1 5.3230800225142545 14.661810447589023 16.292644776647002 1 1 0
546 2 4.957162341139005 13.49089857121319 12.860547161749231 1 0 0
327 1 5.739190135492753 14.501386079081566 13.610658849461178 1 -1 0
162 1 4.63667470111791 12.20974814916306 13.724728459044519 1 0 0
157 1 4.032514240265291 12.535492597675285 16.461564206707962 1 0 0
269 1 5.953024997907715 13.199462581419647 11.862829889233545 -1 2 0
316 1 7.199166470252852 16.028987423678227 12.484388772108014 0 -3 0
676 2 5.089180786480236 15.958814496293652 16.798424642636128 0 0 0
23 1 9.5110031356269 13.639374331571785 14.123353790726009 -2 0 0
230 1 8.938171075958426 14.118428949762347 14.199196586463186 -2 -4 0
20 1 10.529051023011105 14.727640569985025 16.57724700779099 0 0 0
263 1 8.19755771183391 15.668795540849896 17.575660067147158 0 1 0
695 2 1.4632049354195376 11.72697189939715 13.392985348100511 1 0 0
574 2 9.962960593323443 22.20704017699605 12.256430350515597 0 0 0
615 2 11.319574805172296 15.412825731756179 15.599754177268778 1 0 0
231 1 8.195379632227363 12.818262762596758 17.001000328008995 -2 -1 0
272 1 5.637407142696949 22.547298980105793 18.022978405227537 1 1 0
898 2 9.110681133761858 24.49227819643788 15.01940944979409 0 0 0
774 2 -0.236812239482447 17.378387129627768 12.22532384864428 0 0 0
822 2 -0.38390948138701475 16.829864746613556 17.701200518002032 1 0 0
425 2 0.45556308561201253 18.68476845334635 14.120211605253957 1 0 0
585 2 2.596214962658735 18.307437105850152 15.109174850421724 1 0 0
785 2 -0.8100640414696699 18.528786540343777 16.157718511176395 1 0 0
841 2 2.8655862276776363 16.476196435149507 16.354421094825543 0 0 0
533 2 3.3170162301865833 20.122341487331518 16.303769174827206 0 -1 0
481 2 6.2736648260043 17.64392920967605 15.88451238730094 0 0 1
974 2 3.905041346854121 18.6443590295129 13.145284644730875 0 0 0
605 2 6.135786782274458 18.877050468087788 13.958460931949277 0 0 0
541 2 5.466422956693566 19.640090037006466 16.981424063881892 1 0 0
171 1 7.770557015107077 17.741030054283346 16.150890615171548 0 1 0
86 1 8.727732942646428 16.550036399709338 14.578106792275948 -2 -2 0
178 1 9.187110539431705 19.090294405175403 13.555608006884237 -1 0 -1
357 2 10.070477691488374 17.154208756288874 14.907403481029736 0 0 0
611 2 9.895903611043417 19.00303161360204 16.36113340304968 0 -1 0
829 2 7.92952555714383 19.253513486656168 12.582794395778409 0 -1 0
106 1 10.767625370711297 17.72532874827858 13.753814061435204 4 3 0
789 2 -0.009045299281406516 20.57146905262762 17.394178245123914 0 -1 0
631 2 0.6836170442691605 20.807799869269257 13.072295333192422 0 -1 0
917 2 0.17512864944937956 22.468289737104648 14.69084300890088 1 -1 0
734 2 2.0083116449413243 24.004168366525413 14.845807929778456 0 -1 0
306 1 0.061204566461024124 21.831130575255123 16.208155644309603 0 -1 0
277 1 -1.191221360230585 22.80572048053929 14.201460748756537 3 0 0
806 2 8.74265708229458 20.86610118339526 15.920453300611833 0 0 -1
725 2 2.9211297503518567 20.809240626640243 12.86672425271331 0 0 0
997 2 6.0133733018065625 22.69695218224986 12.373236898104567 0 0 0
547 2 6.618823915248986 20.76154022132611 15.284566731086393 1 0 0
845 2 5.6421962770828245 22.68752873112619 14.621676566103554 0 0 0
889 2 3.435618864736206 22.0152570915029 14.981610486799767 1 0 0
10 1 11.273753487647216 14.317409630328102 14.639349056921516 0 0 0
572 2 9.843955347174067 22.379194516673746 14.557850521966417 1 0 0
976 2 6.912518532359067 24.43075757274543 15.733448948560117 0 0 0
731 2 6.842055553163126 23.496508350723026 17.99452638621541 0 0 0
778 2 8.68698171251463 22.063929956656164 18.129856035701074 0 0 0
74 1 8.544034804597558 12.369754830077499 17.517404166467127 -2 0 -2
668 2 2.2479579767804854 20.530849342427373 18.175047618497388 1 -1 0