 vasp.6.5.0 16Dec24 (build Jan 20 2025 08:32:48) complex                         
 executed on        HPECrayEX_GCC date 2025.07.22  11:40:15
 running  128 mpi-ranks, with    1 threads/rank, on    1 nodes
 distrk:  each k-point on  128 cores,    1 groups
 distr:  one band on NCORE=  16 cores,    8 groups


--------------------------------------------------------------------------------------------------------


 INCAR:
   SYSTEM = a-Si SPC
   NCORE = 16
   ISTART = 1
   ICHARG = 1
   ISPIN = 1
   ISYM = 1
   EDIFF = 1E-6
   NELM = 150
   EDIFFG = -0.01
   NSW = 0
   ISIF = 2
   IBRION = -1
   PREC = Accurate
   ENCUT = 1200
   KSPACING = 0.23
   KGAMMA = .TRUE.
   METAGGA = SCAN
   LASPH = .TRUE.
   LDIAG = .FALSE.
   LMIXTAU = .TRUE.
   ADDGRID = .TRUE.
   ALGO = Normal
   ISMEAR = 0
   SIGMA = 0.1
   LORBIT = 11
   NEDOS = 2000
   LWAVE = .FALSE.
   LCHARG = .FALSE.

 POTCAR:    PAW_PBE H 15Jun2001                   
 POTCAR:    PAW_PBE Si 05Jan2001                  
 POTCAR:    PAW_PBE H 15Jun2001                   
   SHA256 =  030f79b5d3ab3cf0e668861823c8fb652ff669f3e15e46930bd03bfd63a607b6 H/POTCAR              
   COPYR  = (c) Copyright 15Jun2001 Georg Kresse                                                    
   COPYR  = This file is part of the software VASP. Any use, copying, and all other rights are regul
   COPYR  = If you do not have a valid VASP license, you may not use, copy or distribute this file. 
   VRHFIN =H: ultrasoft test                                                                        
   LEXCH  = PE                                                                                      
   EATOM  =    12.4884 eV,    0.9179 Ry                                                             
                                                                                                    
   TITEL  = PAW_PBE H 15Jun2001                                                                     
   LULTRA =        F    use ultrasoft PP ?                                                          
   IUNSCR =        0    unscreen: 0-lin 1-nonlin 2-no                                               
   RPACOR =    0.000    partial core radius                                                         
   POMASS =    1.000; ZVAL   =    1.000    mass and valenz                                          
   RCORE  =    1.100    outmost cutoff radius                                                       
   RWIGS  =    0.700; RWIGS  =    0.370    wigner-seitz radius (au A)                               
   ENMAX  =  250.000; ENMIN  =  200.000 eV                                                          
   RCLOC  =    0.701    cutoff for local pot                                                        
   LCOR   =        T    correct aug charges                                                         
   LPAW   =        T    paw PP                                                                      
   EAUG   =  400.000                                                                                
   RMAX   =    1.123    core radius for proj-oper                                                   
   RAUG   =    1.200    factor for augmentation sphere                                              
   RDEP   =    1.112    radius for radial grids                                                     
   RDEPT  =    0.926    core radius for aug-charge                                                  
                                                                                                    
   Atomic configuration                                                                             
    2 entries                                                                                       
     n  l   j            E        occ.                                                              
     1  0  0.50        -6.4927   1.0000                                                             
     2  1  0.50        -3.4015   0.0000                                                             
   Description                                                                                      
     l       E           TYP  RCUT    TYP  RCUT                                                     
     0     -6.4927494     23  1.100                                                                 
     0      6.8029130     23  1.100                                                                 
     1     -4.0817478     23  1.100                                                                 
  local pseudopotential read in
  atomic valenz-charges read in
  non local Contribution for L=           0  read in
    real space projection operators read in
  non local Contribution for L=           0  read in
    real space projection operators read in
  non local Contribution for L=           1  read in
    real space projection operators read in
    PAW grid and wavefunctions read in

   number of l-projection  operators is LMAX  =           3
   number of lm-projection operators is LMMAX =           5

 POTCAR:    PAW_PBE Si 05Jan2001                  
   SHA256 =  79d9987ad8750f624c4d6acb2a16d13abf6a777132adc04dc6c8399be72b42bb Si/POTCAR             
   COPYR  = (c) Copyright 05Jan2001 Georg Kresse                                                    
   COPYR  = This file is part of the software VASP. Any use, copying, and all other rights are regul
   COPYR  = If you do not have a valid VASP license, you may not use, copy or distribute this file. 
   VRHFIN =Si: s2p2                                                                                 
   LEXCH  = PE                                                                                      
   EATOM  =   103.0669 eV,    7.5752 Ry                                                             
                                                                                                    
   TITEL  = PAW_PBE Si 05Jan2001                                                                    
   LULTRA =        F    use ultrasoft PP ?                                                          
   IUNSCR =        1    unscreen: 0-lin 1-nonlin 2-no                                               
   RPACOR =    1.500    partial core radius                                                         
   POMASS =   28.085; ZVAL   =    4.000    mass and valenz                                          
   RCORE  =    1.900    outmost cutoff radius                                                       
   RWIGS  =    2.480; RWIGS  =    1.312    wigner-seitz radius (au A)                               
   ENMAX  =  245.345; ENMIN  =  184.009 eV                                                          
   ICORE  =        2    local potential                                                             
   LCOR   =        T    correct aug charges                                                         
   LPAW   =        T    paw PP                                                                      
   EAUG   =  322.069                                                                                
   DEXC   =    0.000                                                                                
   RMAX   =    1.950    core radius for proj-oper                                                   
   RAUG   =    1.300    factor for augmentation sphere                                              
   RDEP   =    1.993    radius for radial grids                                                     
   RDEPT  =    1.837    core radius for aug-charge                                                  
                                                                                                    
   Atomic configuration                                                                             
    6 entries                                                                                       
     n  l   j            E        occ.                                                              
     1  0  0.50     -1785.8828   2.0000                                                             
     2  0  0.50      -139.4969   2.0000                                                             
     2  1  1.50       -95.5546   6.0000                                                             
     3  0  0.50       -10.8127   2.0000                                                             
     3  1  0.50        -4.0811   2.0000                                                             
     3  2  1.50        -4.0817   0.0000                                                             
   Description                                                                                      
     l       E           TYP  RCUT    TYP  RCUT                                                     
     0    -10.8127223     23  1.900                                                                 
     0     -7.6451159     23  1.900                                                                 
     1     -4.0811372     23  1.900                                                                 
     1      2.4879257     23  1.900                                                                 
     2     -4.0817478      7  1.900                                                                 
  local pseudopotential read in
  partial core-charges read in
  partial kinetic energy density read in
  atomic valenz-charges read in
  non local Contribution for L=           0  read in
    real space projection operators read in
  non local Contribution for L=           0  read in
    real space projection operators read in
  non local Contribution for L=           1  read in
    real space projection operators read in
  non local Contribution for L=           1  read in
    real space projection operators read in
    PAW grid and wavefunctions read in

   number of l-projection  operators is LMAX  =           4
   number of lm-projection operators is LMMAX =           8

 -----------------------------------------------------------------------------
|                                                                             |
|               ----> ADVICE to this user running VASP <----                  |
|                                                                             |
|     You have a (more or less) 'large supercell' and for larger cells it     |
|     might be more efficient to use real-space projection operators.         |
|     Therefore, try LREAL= Auto in the INCAR file.                           |
|     Mind: For very accurate calculation, you might also keep the            |
|     reciprocal projection scheme (i.e. LREAL=.FALSE.).                      |
|                                                                             |
 -----------------------------------------------------------------------------

 -----------------------------------------------------------------------------
|                                                                             |
|               ----> ADVICE to this user running VASP <----                  |
|                                                                             |
|     You enforced a specific xc type in the INCAR file but a different       |
|     type was found in the POTCAR file.                                      |
|     I HOPE YOU KNOW WHAT YOU ARE DOING!                                     |
|                                                                             |
 -----------------------------------------------------------------------------

  PAW_PBE H 15Jun2001                   :
 energy of atom  1       EATOM=  -12.4884
 kinetic energy error for atom=    0.0000 (will be added to EATOM!!)
  PAW_PBE Si 05Jan2001                  :
 energy of atom  2       EATOM= -103.0669
 kinetic energy error for atom=    0.0001 (will be added to EATOM!!)


 POSCAR:  H Si
  positions in cartesian coordinates
  No initial velocities read in


 exchange-correlation table for SCAN
   RHO(1)=    0.500       N(1)  =     2000
   RHO(2)=  100.500       N(2)  =     4000



--------------------------------------------------------------------------------------------------------


 ion  position               nearest neighbor table
   1  0.359  0.841  0.265-  22 1.47
   2  0.626  0.525  0.756-  24 1.50
   3  0.542  0.933  0.185-  58 1.44
   4  0.152  0.490  0.669-  10 2.37  25 2.40  12 2.42
   5  0.095  0.006  0.154-  27 2.34  20 2.34  52 2.39  42 2.46  49 2.99
   6  0.944  0.619  0.736-   7 2.36  25 2.38  19 2.41  40 2.41
   7  0.921  0.547  0.015-  50 2.28   6 2.36  56 2.39  16 2.43  55 2.91
   8  0.105  0.176  0.497-  46 2.26  15 2.29  42 2.34  28 2.45
   9  0.377  0.115  0.715-  13 2.27  21 2.36  57 2.43  30 2.44
  10  0.110  0.398  0.918-   4 2.37  55 2.38  47 2.64  56 2.65
  11  0.531  0.252  0.003-  13 2.33  38 2.38  32 2.44  36 2.45
  12  0.052  0.446  0.425-  56 2.32  15 2.40   4 2.42  40 2.44
  13  0.378  0.212  0.953-   9 2.27  11 2.33  47 2.40  54 2.57
  14  0.591  0.100  0.474-  58 2.29  37 2.40  21 2.41  59 2.48
  15  0.003  0.288  0.411-   8 2.29  23 2.30  12 2.40  34 2.48
  16  0.924  0.650  0.271-  40 2.33  44 2.40  17 2.41   7 2.43  56 2.89
  17  0.086  0.667  0.333-  49 2.30  16 2.41  56 2.46  25 2.48
  18  0.282  0.888  0.643-  31 2.31  22 2.33  26 2.50  30 2.56
  19  0.854  0.757  0.769-  33 2.28  35 2.40   6 2.41
  20  0.254  0.027  0.137-   5 2.34  54 2.41  30 2.43  22 2.50  28 2.64
  21  0.517  0.035  0.733-  36 2.29   9 2.36  14 2.41  31 2.43
  22  0.277  0.889  0.331-   1 1.47  18 2.33  49 2.34  20 2.50
  23  0.949  0.237  0.141-  15 2.30  55 2.36  48 2.37  52 2.52
  24  0.692  0.446  0.745-   2 1.50  53 2.34  50 2.38  32 2.39
  25  0.101  0.647  0.661-   6 2.38   4 2.40  26 2.42  17 2.48
  26  0.145  0.801  0.751-  27 2.37  51 2.39  25 2.42  18 2.50
  27  0.081  0.861  0.019-  49 2.16   5 2.34  26 2.37  35 2.48
  28  0.235  0.190  0.290-  57 2.43   8 2.45  47 2.50  54 2.57  20 2.64
  29  0.755  0.224  0.705-  41 2.32  32 2.34  34 2.40  59 2.52
  30  0.239  0.034  0.813-  46 2.34  20 2.43   9 2.44  18 2.56
  31  0.439  0.888  0.691-  18 2.31  21 2.43
  32  0.614  0.302  0.735-  37 2.28  29 2.34  24 2.39  11 2.44
  33  0.895  0.850  0.537-  19 2.28  51 2.36  44 2.40  43 2.42
  34  0.892  0.314  0.656-  55 2.25  29 2.40  53 2.45  15 2.48
  35  0.912  0.869  0.978-  19 2.40  39 2.43  44 2.44  27 2.48
  36  0.592  0.096  0.975-  58 2.28  21 2.29  41 2.35  11 2.45
  37  0.545  0.258  0.476-  32 2.28  38 2.28  14 2.40  57 2.57
  38  0.573  0.354  0.240-  37 2.28  11 2.38  45 2.41
  39  0.880  0.024  0.874-  52 2.30  43 2.41  35 2.43  41 2.44
  40  0.908  0.530  0.474-  53 2.27  16 2.33   6 2.41  12 2.44
  41  0.751  0.125  0.948-  48 2.31  29 2.32  36 2.35  39 2.44
  42  0.025  0.038  0.446-  43 2.28   8 2.34   5 2.46  51 2.54
  43  0.880  0.015  0.553-  42 2.28  39 2.41  33 2.42  59 2.43
  44  0.849  0.797  0.246-  33 2.40  16 2.40  35 2.44
  45  0.738  0.367  0.229-  48 2.33  53 2.36  50 2.39  38 2.41
  46  0.129  0.151  0.791-  52 2.24   8 2.26  30 2.34  47 2.47
  47  0.219  0.256  0.983-  13 2.40  46 2.47  28 2.50  10 2.64
  48  0.789  0.217  0.189-  41 2.31  45 2.33  23 2.37  59 2.41
  49  0.138  0.813  0.269-  27 2.16  17 2.30  22 2.34  51 2.37   5 2.99
  50  0.803  0.446  0.979-   7 2.28  24 2.38  45 2.39  55 2.58
  51  0.055  0.871  0.519-  33 2.36  49 2.37  26 2.39  42 2.54
  52  0.010  0.105  0.960-  46 2.24  39 2.30   5 2.39  23 2.52
  53  0.793  0.425  0.504-  40 2.27  24 2.34  45 2.36  34 2.45
  54  0.390  0.109  0.231-  58 2.37  20 2.41  57 2.43  13 2.57  28 2.57
  55  0.952  0.354  0.922-  34 2.25  23 2.36  10 2.38  50 2.58   7 2.91
  56  0.067  0.525  0.158-  12 2.32   7 2.39  17 2.46  10 2.65  16 2.89
  57  0.371  0.223  0.467-  54 2.43   9 2.43  28 2.43  37 2.57
  58  0.532  0.030  0.226-   3 1.44  36 2.28  14 2.29  54 2.37
  59  0.760  0.117  0.441-  48 2.41  43 2.43  14 2.48  29 2.52

  LATTYP: Found a simple tetragonal cell.
 ALAT       =    14.5318920738
 C/A-ratio  =     0.5144770482
  
  Lattice vectors:
  
 A1 = (  14.5318920738,   0.0000000000,   0.0000000000)
 A2 = (   0.0000000000,  14.5318920738,   0.0000000000)
 A3 = (   0.0000000000,   0.0000000000,   7.4763249383)


Analysis of symmetry for initial positions (statically):
=====================================================================
 Subroutine PRICEL returns:
 Original cell was already a primitive cell.
 

 Routine SETGRP: Setting up the symmetry group for a 
 simple tetragonal supercell.


 Subroutine GETGRP returns: Found  1 space group operations
 (whereof  1 operations were pure point group operations)
 out of a pool of 16 trial point group operations.


The static configuration has the point symmetry C_1 .


Analysis of symmetry for dynamics (positions and initial velocities):
=====================================================================
 Subroutine PRICEL returns:
 Original cell was already a primitive cell.
 

 Routine SETGRP: Setting up the symmetry group for a 
 simple tetragonal supercell.


 Subroutine GETGRP returns: Found  1 space group operations
 (whereof  1 operations were pure point group operations)
 out of a pool of 16 trial point group operations.


The dynamic configuration has the point symmetry C_1 .


 Subroutine INISYM returns: Found  1 space group operations
 (whereof  1 operations are pure point group operations),
 and found     1 'primitive' translations


----------------------------------------------------------------------------------------

                                     Primitive cell                                     

  volume of cell :    1578.8196

  direct lattice vectors                    reciprocal lattice vectors
    14.531892074  0.000000000  0.000000000     0.068814164  0.000000000  0.000000000
     0.000000000 14.531892074  0.000000000     0.000000000  0.068814164  0.000000000
     0.000000000  0.000000000  7.476324938     0.000000000  0.000000000  0.133755556

  length of vectors
    14.531892074 14.531892074  7.476324938     0.068814164  0.068814164  0.133755556

  position of ions in fractional coordinates (direct lattice)
     0.359318661  0.841156811  0.265467327
     0.626035478  0.524787823  0.755874049
     0.542404249  0.933147585  0.185498893
     0.151667793  0.489951340  0.668854021
     0.094975932  0.005521070  0.153939270
     0.943813781  0.619211865  0.736435354
     0.921373482  0.546620492  0.015135110
     0.105064089  0.175792663  0.496509987
     0.376567619  0.114850839  0.714641223
     0.109915487  0.397889688  0.918091450
     0.531377467  0.252147482  0.002946461
     0.051742058  0.445884814  0.424847773
     0.377877841  0.212381842  0.952554906
     0.591494897  0.100033085  0.474226312
     0.003393084  0.288380204  0.411302348
     0.923898962  0.650278708  0.270674431
     0.086006006  0.667248969  0.333268019
     0.282062376  0.887613253  0.642850604
     0.853887432  0.757499433  0.769422149
     0.254056387  0.026992975  0.136508245
     0.517313228  0.034654262  0.733401778
     0.276958429  0.888872552  0.330895195
     0.948555077  0.237447401  0.140593140
     0.692387471  0.446104332  0.744547628
     0.100713657  0.647116697  0.660752447
     0.144708617  0.801024391  0.751406613
     0.081122265  0.861223022  0.018804426
     0.234926050  0.189934661  0.289576766
     0.754595475  0.224475931  0.704933245
     0.238516773  0.034162929  0.813169579
     0.439114189  0.888191292  0.690959802
     0.613955840  0.301584266  0.735061684
     0.894570365  0.850020076  0.536654042
     0.891590712  0.313544167  0.656470932
     0.912097333  0.869198583  0.978072791
     0.591964897  0.095660633  0.975096730
     0.544530606  0.258161152  0.475563867
     0.572822861  0.353744714  0.240109949
     0.880401529  0.024450842  0.874472425
     0.908057941  0.529732120  0.473621737
     0.750624898  0.124723607  0.947501621
     0.024803240  0.038321851  0.446114906
     0.879802846  0.015450294  0.552735473
     0.848891523  0.797026288  0.245953729
     0.737990617  0.367064383  0.229073778
     0.128627435  0.151476490  0.791351372
     0.219372672  0.256431164  0.983126076
     0.788761707  0.216732273  0.189059466
     0.138398358  0.813211379  0.269240572
     0.802896136  0.445566893  0.978895388
     0.055266100  0.870512934  0.518857866
     0.009837398  0.104709696  0.959950251
     0.792642826  0.425422235  0.503576293
     0.389597581  0.109474389  0.230717634
     0.952250397  0.354482401  0.922233859
     0.067364869  0.525301176  0.157782067
     0.371275122  0.222743878  0.466730650
     0.532097263  0.029691729  0.226115105
     0.760485967  0.116993024  0.440910478

  ion indices of the primitive-cell ions
   primitive index   ion index
                 1           1
                 2           2
                 3           3
                 4           4
                 5           5
                 6           6
                 7           7
                 8           8
                 9           9
                10          10
                11          11
                12          12
                13          13
                14          14
                15          15
                16          16
                17          17
                18          18
                19          19
                20          20
                21          21
                22          22
                23          23
                24          24
                25          25
                26          26
                27          27
                28          28
                29          29
                30          30
                31          31
                32          32
                33          33
                34          34
                35          35
                36          36
                37          37
                38          38
                39          39
                40          40
                41          41
                42          42
                43          43
                44          44
                45          45
                46          46
                47          47
                48          48
                49          49
                50          50
                51          51
                52          52
                53          53
                54          54
                55          55
                56          56
                57          57
                58          58
                59          59

----------------------------------------------------------------------------------------


 -----------------------------------------------------------------------------
|                                                                             |
|           W    W    AA    RRRRR   N    N  II  N    N   GGGG   !!!           |
|           W    W   A  A   R    R  NN   N  II  NN   N  G    G  !!!           |
|           W    W  A    A  R    R  N N  N  II  N N  N  G       !!!           |
|           W WW W  AAAAAA  RRRRR   N  N N  II  N  N N  G  GGG   !            |
|           WW  WW  A    A  R   R   N   NN  II  N   NN  G    G                |
|           W    W  A    A  R    R  N    N  II  N    N   GGGG   !!!           |
|                                                                             |
|     The requested file  could not be found or opened for reading            |
|     k-point information. Automatic k-point generation is used as a          |
|     fallback, which may lead to unwanted results.                           |
|                                                                             |
 -----------------------------------------------------------------------------



Automatic generation of k-mesh.
 Grid dimensions derived from KSPACING:
 generate k-points for:    2    2    4

 Generating k-lattice:

  Cartesian coordinates                     Fractional coordinates (reciprocal lattice)
     0.034407082  0.000000000  0.000000000     0.500000000  0.000000000  0.000000000
     0.000000000  0.034407082  0.000000000     0.000000000  0.500000000  0.000000000
     0.000000000  0.000000000  0.033438889     0.000000000  0.000000000  0.250000000

  Length of vectors
     0.034407082  0.034407082  0.033438889

  Shift w.r.t. Gamma in fractional coordinates (k-lattice)
     0.000000000  0.000000000  0.000000000

 
 Subroutine IBZKPT returns following result:
 ===========================================
 
 Found     12 irreducible k-points:
 
 Following reciprocal coordinates:
            Coordinates               Weight
  0.000000  0.000000  0.000000      1.000000
  0.500000  0.000000  0.000000      1.000000
  0.000000  0.500000  0.000000      1.000000
  0.500000  0.500000  0.000000      1.000000
  0.000000  0.000000  0.250000      2.000000
  0.500000  0.000000  0.250000      2.000000
  0.000000  0.500000  0.250000      2.000000
  0.500000  0.500000  0.250000      2.000000
  0.000000  0.000000  0.500000      1.000000
  0.500000  0.000000  0.500000      1.000000
  0.000000  0.500000  0.500000      1.000000
  0.500000  0.500000  0.500000      1.000000
 
 Following cartesian coordinates:
            Coordinates               Weight
  0.000000  0.000000  0.000000      1.000000
  0.034407  0.000000  0.000000      1.000000
  0.000000  0.034407  0.000000      1.000000
  0.034407  0.034407  0.000000      1.000000
  0.000000  0.000000  0.033439      2.000000
  0.034407  0.000000  0.033439      2.000000
  0.000000  0.034407  0.033439      2.000000
  0.034407  0.034407  0.033439      2.000000
  0.000000  0.000000  0.066878      1.000000
  0.034407  0.000000  0.066878      1.000000
  0.000000  0.034407  0.066878      1.000000
  0.034407  0.034407  0.066878      1.000000
 


--------------------------------------------------------------------------------------------------------




 Dimension of arrays:
   k-points           NKPTS =     12   k-points in BZ     NKDIM =     12   number of bands    NBANDS=    144
   number of dos      NEDOS =   2000   number of ions     NIONS =     59
   non local maximal  LDIM  =      4   non local SUM 2l+1 LMDIM =      8
   total plane-waves  NPLWV = ******
   max r-space proj   IRMAX =      1   max aug-charges    IRDMAX= 401810
   dimension x,y,z NGX =   168 NGY =  168 NGZ =   84
   dimension x,y,z NGXF=   336 NGYF=  336 NGZF=  168
   support grid    NGXF=   672 NGYF=  672 NGZF=  336
   ions per type =               3  56
   NGX,Y,Z   is equivalent  to a cutoff of  19.22, 19.22, 18.68 a.u.
   NGXF,Y,Z  is equivalent  to a cutoff of  38.44, 38.44, 37.36 a.u.

 SYSTEM =  a-Si SPC                                
 POSCAR =   H Si                                   

 Startparameter for this run:
   NWRITE =      2    write-flag & timer
   PREC   = accura    normal or accurate (medium, high low for compatibility)
   ISTART =      1    job   : 0-new  1-cont  2-samecut
   ICHARG =      1    charge: 1-file 2-atom 10-const
   ISPIN  =      1    spin polarized calculation?
   LNONCOLLINEAR =      F non collinear calculations
   LSORBIT =      F    spin-orbit coupling
   INIWAV =      1    electr: 0-lowe 1-rand  2-diag
   LASPH  =      T    aspherical Exc in radial PAW
 Electronic Relaxation 1
   ENCUT  = 1200.0 eV  88.20 Ry    9.39 a.u.  41.05 41.05 21.12*2*pi/ulx,y,z
   ENINI  = 1200.0     initial cutoff
   ENAUG  =  400.0 eV  augmentation charge cutoff
   NELM   =    150;   NELMIN=  2; NELMDL=  0     # of ELM steps 
   EDIFF  = 0.1E-05   stopping-criterion for ELM
   LREAL  =      F    real-space projection
   NLSPLINE    = F    spline interpolate recip. space projectors
   LCOMPAT=      F    compatible to vasp.4.4
   GGA_COMPAT  = T    GGA compatible to vasp.4.4-vasp.4.6
   LMAXPAW     = -100 max onsite density
   LMAXMIX     =    2 max onsite mixed and CHGCAR
   VOSKOWN=      0    Vosko Wilk Nusair interpolation
   ROPT   =    0.00000   0.00000
 Ionic relaxation
   EDIFFG = -.1E-01   stopping-criterion for IOM
   NSW    =      0    number of steps for IOM
   NBLOCK =      1;   KBLOCK =      1    inner block; outer block 
   IBRION =     -1    ionic relax: 0-MD 1-quasi-New 2-CG
   NFREE  =      0    steps in history (QN), initial steepest desc. (CG)
   ISIF   =      2    stress and relaxation
   IWAVPR =     10    prediction:  0-non 1-charg 2-wave 3-comb
   ISYM   =      1    0-nonsym 1-usesym 2-fastsym
   LCORR  =      T    Harris-Foulkes like correction to forces

   POTIM  = 0.5000    time-step for ionic-motion
   TEIN   =    0.0    initial temperature
   TEBEG  =    0.0;   TEEND  =   0.0 temperature during run
   SMASS  =  -3.00    Nose mass-parameter (am)
   estimated Nose-frequenzy (Omega)   =  0.10E-29 period in steps = 0.13E+47 mass=  -0.483E-26a.u.
   SCALEE = 1.0000    scale energy and forces
   NPACO  =    256;   APACO  = 10.0  distance and # of slots for P.C.
   PSTRESS=    0.0 pullay stress

  Mass of Ions in am
   POMASS =   1.00 28.09
  Ionic Valenz
   ZVAL   =   1.00  4.00
  Atomic Wigner-Seitz radii
   RWIGS  =  -1.00 -1.00
  virtual crystal weights 
   VCA    =   1.00  1.00
   NELECT =     227.0000    total number of electrons
   NUPDOWN=      -1.0000    fix difference up-down

 DOS related values:
   EMIN   =  10.00;   EMAX   =-10.00  energy-range for DOS
   EFERMI =   0.00;   METHOD = LEGACY      
   ISMEAR =     0;   SIGMA  =   0.10  broadening in eV -4-tet -1-fermi 0-gaus
   EFERMI_NEDOS =   21; number of points for ismear=-14 and -15

 Electronic relaxation 2 (details)
   IALGO  =     38    algorithm
   LDIAG  =      F    sub-space diagonalisation (order eigenvalues)
   LSUBROT=      F    optimize rotation matrix (better conditioning)
   TURBO    =      0    0=normal 1=particle mesh
   IRESTART =      0    0=no restart 2=restart with 2 vectors
   NREBOOT  =      0    no. of reboots
   NMIN     =      0    reboot dimension
   EREF     =   0.00    reference energy to select bands
   IMIX   =      4    mixing-type and parameters
     AMIX     =   0.40;   BMIX     =  1.00
     AMIX_MAG =   1.60;   BMIX_MAG =  1.00
     AMIN     =   0.10
     WC   =   100.;   INIMIX=   1;  MIXPRE=   1;  MAXMIX= -45

 Intra band minimization:
   WEIMIN = 0.0000     energy-eigenvalue tresh-hold
   EBREAK =  0.17E-08  absolut break condition
   DEPER  =   0.30     relativ break condition  

   TIME   =   0.40     timestep for ELM

  volume/ion in A,a.u.               =      26.76       180.58
  Fermi-wavevector in a.u.,A,eV,Ry     =   0.857642  1.620708 10.007758  0.735549
  Thomas-Fermi vector in A             =   1.974726

 Write flags
   LWAVE        =      F    write WAVECAR
   LDOWNSAMPLE  =      F    k-point downsampling of WAVECAR
   LCHARG       =      F    write CHGCAR
   LVTOT        =      F    write LOCPOT, total local potential
   LVHAR        =      F    write LOCPOT, Hartree potential only
   WRT_POTENTIAL= false  ! write potential to hdf5 file
   LELF         =      F    write electronic localiz. function (ELF)
   LORBIT       =     11    0 simple, 1 ext, 2 COOP (PROOUT), +10 PAW based schemes


 Python interface
   PLUGINS active      =      F    recompile with -DPLUGINS to activate

 Dipole corrections
   LMONO      =      F    monopole corrections only (constant potential shift)
   LDIPOL     =      F    correct potential (dipole corrections)
   IDIPOL     =      0    1-x, 2-y, 3-z, 4-all directions 
   EPSILON    =  1.0000000 bulk dielectric constant
   LVACPOTAV  =      F  vacuum potentials using an averaging scheme for the charge density
   VACPOTFLAT =  0.1000000 required flatness to determine vacuum potential

Coulomb truncation method
  LTRUNCATE          =      F  Coulomb kernel truncation to be used
  IDIMENSIONALITY    =      3  Dimensionality of cutoff (0 molecules / 2 surfaces)
  ISURFACE           =     -1  Direction of surface normal
  LCOARSEN           =      F  Coarsen the charge grid before padding, preferred


 Exchange correlation treatment:
   METAGGA = SCAN    functional components
   XC_C    = 1    coefficients multiplying the functional components
   LIBXC   =     F    Libxc                    
   VOSKOWN =     0    Vosko Wilk Nusair interpolation
   LHFCALC =     F    Hartree Fock is set to
   LHFONE  =     F    Hartree Fock one center treatment
   AEXX    =    0.0000 exact exchange contribution

 Parameters of functionals:
   SCAN:
     P1 =  0.000000E+00
     P2 =  0.000000E+00
     P3 =  0.000000E+00

 Accuracy and mixing parameters for tau-dependent meta-GGA functionals:
   LMAXTAU = 6
   LMIXTAU = T

 Van der Waals corrections
   IVDW    =     0    specifies the selected vdW correction

 Linear response parameters
   LEPSILON=     F    determine dielectric tensor
   LRPA    =     F    only Hartree local field effects (RPA)
   LNABLA  =     F    use nabla operator in PAW spheres
   LVEL    =     F    velocity operator in full k-point grid
   CSHIFT  =0.1000    complex shift for real part using Kramers Kronig
   OMEGAMAX=  -1.0    maximum frequency
   DEG_THRESHOLD= 0.2000000E-02 threshold for treating states as degnerate
   RTIME   =   -0.100 relaxation time in fs
  (WPLASMAI=    0.000 imaginary part of plasma frequency in eV, 0.658/RTIME)
   DFIELD  = 0.0000000 0.0000000 0.0000000 field for delta impulse in time

  Optional k-point grid parameters
   LKPOINTS_OPT  =     F    use optional k-point grid
   KPOINTS_OPT_MODE=     1    mode for optional k-point grid

 Orbital magnetization related:
   ORBITALMAG=     F  switch on orbital magnetization
   LCHIMAG   =     F  perturbation theory with respect to B field
   DQ        =  0.001000  dq finite difference perturbation B field
   LLRAUG    =     F  two centre corrections for induced B field
   LBONE     =     F  B-component reconstruction in AE one-centre
   LVGVCALC  =     T  calculate vGv susceptibility
   LVGVAPPL  =     F  apply vGv susceptibility instead of pGv for G=0

 Random number generation:
   RANDOM_GENERATOR = DEFAULT
   PCG_SEED         = not used


--------------------------------------------------------------------------------------------------------


 Static calculation
 charge density and potential will be updated during run
 non-spin polarized calculation
 Variant of blocked Davidson
 perform Loewdin sub-space diagonalisation
    ordering is kept fixed
    before iterative eigenvector-optimisation
 modified Broyden-mixing scheme, WC =      100.0
 initial mixing is a Kerker type mixing with AMIX =  0.4000 and BMIX =      1.0000
 Hartree-type preconditioning will be used
 using additional bands           30
 reciprocal scheme for non local part
 use partial core corrections
 calculate Harris-corrections to forces   (improved forces if not selfconsistent)
 use gradient corrections 
 use of overlap-Matrix (Vanderbilt PP)
 Gauss-broadening in eV      SIGMA  =   0.10


--------------------------------------------------------------------------------------------------------


  energy-cutoff  :     1200.00
  volume of cell :     1578.82
      direct lattice vectors                 reciprocal lattice vectors
    14.531892074  0.000000000  0.000000000     0.068814164  0.000000000  0.000000000
     0.000000000 14.531892074  0.000000000     0.000000000  0.068814164  0.000000000
     0.000000000  0.000000000  7.476324938     0.000000000  0.000000000  0.133755556

  length of vectors
    14.531892074 14.531892074  7.476324938     0.068814164  0.068814164  0.133755556



 old parameters found on file WAVECAR:
  energy-cutoff  :     1200.00
  volume of cell :     1578.82
      direct lattice vectors                 reciprocal lattice vectors
    14.531892074  0.000000000  0.000000000     0.068814164  0.000000000  0.000000000
     0.000000000 14.531892074  0.000000000     0.000000000  0.068814164  0.000000000
     0.000000000  0.000000000  7.476324938     0.000000000  0.000000000  0.133755556

  length of vectors


 k-points in units of 2pi/SCALE and weight: read from INCAR                         
   0.00000000  0.00000000  0.00000000       0.062
   0.03440708  0.00000000  0.00000000       0.062
   0.00000000  0.03440708  0.00000000       0.062
   0.03440708  0.03440708  0.00000000       0.062
   0.00000000  0.00000000  0.03343889       0.125
   0.03440708  0.00000000  0.03343889       0.125
   0.00000000  0.03440708  0.03343889       0.125
   0.03440708  0.03440708  0.03343889       0.125
   0.00000000  0.00000000  0.06687778       0.062
   0.03440708  0.00000000  0.06687778       0.062
   0.00000000  0.03440708  0.06687778       0.062
   0.03440708  0.03440708  0.06687778       0.062

 k-points in reciprocal lattice and weights: read from INCAR                         
   0.00000000  0.00000000  0.00000000       0.062
   0.50000000  0.00000000  0.00000000       0.062
   0.00000000  0.50000000  0.00000000       0.062
   0.50000000  0.50000000  0.00000000       0.062
   0.00000000  0.00000000  0.25000000       0.125
   0.50000000  0.00000000  0.25000000       0.125
   0.00000000  0.50000000  0.25000000       0.125
   0.50000000  0.50000000  0.25000000       0.125
   0.00000000  0.00000000  0.50000000       0.062
   0.50000000  0.00000000  0.50000000       0.062
   0.00000000  0.50000000  0.50000000       0.062
   0.50000000  0.50000000  0.50000000       0.062

 position of ions in fractional coordinates (direct lattice) 
   0.35931866  0.84115681  0.26546733
   0.62603548  0.52478782  0.75587405
   0.54240425  0.93314759  0.18549889
   0.15166779  0.48995134  0.66885402
   0.09497593  0.00552107  0.15393927
   0.94381378  0.61921187  0.73643535
   0.92137348  0.54662049  0.01513511
   0.10506409  0.17579266  0.49650999
   0.37656762  0.11485084  0.71464122
   0.10991549  0.39788969  0.91809145
   0.53137747  0.25214748  0.00294646
   0.05174206  0.44588481  0.42484777
   0.37787784  0.21238184  0.95255491
   0.59149490  0.10003309  0.47422631
   0.00339308  0.28838020  0.41130235
   0.92389896  0.65027871  0.27067443
   0.08600601  0.66724897  0.33326802
   0.28206238  0.88761325  0.64285060
   0.85388743  0.75749943  0.76942215
   0.25405639  0.02699298  0.13650825
   0.51731323  0.03465426  0.73340178
   0.27695843  0.88887255  0.33089520
   0.94855508  0.23744740  0.14059314
   0.69238747  0.44610433  0.74454763
   0.10071366  0.64711670  0.66075245
   0.14470862  0.80102439  0.75140661
   0.08112227  0.86122302  0.01880443
   0.23492605  0.18993466  0.28957677
   0.75459547  0.22447593  0.70493325
   0.23851677  0.03416293  0.81316958
   0.43911419  0.88819129  0.69095980
   0.61395584  0.30158427  0.73506168
   0.89457037  0.85002008  0.53665404
   0.89159071  0.31354417  0.65647093
   0.91209733  0.86919858  0.97807279
   0.59196490  0.09566063  0.97509673
   0.54453061  0.25816115  0.47556387
   0.57282286  0.35374471  0.24010995
   0.88040153  0.02445084  0.87447243
   0.90805794  0.52973212  0.47362174
   0.75062490  0.12472361  0.94750162
   0.02480324  0.03832185  0.44611491
   0.87980285  0.01545029  0.55273547
   0.84889152  0.79702629  0.24595373
   0.73799062  0.36706438  0.22907378
   0.12862743  0.15147649  0.79135137
   0.21937267  0.25643116  0.98312608
   0.78876171  0.21673227  0.18905947
   0.13839836  0.81321138  0.26924057
   0.80289614  0.44556689  0.97889539
   0.05526610  0.87051293  0.51885787
   0.00983740  0.10470970  0.95995025
   0.79264283  0.42542223  0.50357629
   0.38959758  0.10947439  0.23071763
   0.95225040  0.35448240  0.92223386
   0.06736487  0.52530118  0.15778207
   0.37127512  0.22274388  0.46673065
   0.53209726  0.02969173  0.22611511
   0.76048597  0.11699302  0.44091048

 position of ions in cartesian coordinates  (Angst):
   5.22158000 12.22360000  1.98472000
   9.09748000  7.62616000  5.65116000
   7.88216000 13.56040000  1.38685000
   2.20402000  7.11992000  5.00057000
   1.38018000  0.08023160  1.15090000
  13.71540000  8.99832000  5.50583000
  13.38930000  7.94343000  0.11315500
   1.52678000  2.55460000  3.71207000
   5.47224000  1.66900000  5.34289000
   1.59728000  5.78209000  6.86395000
   7.72192000  3.66418000  0.02202870
   0.75191000  6.47955000  3.17630000
   5.49128000  3.08631000  7.12161000
   8.59554000  1.45367000  3.54547000
   0.04930793  4.19071000  3.07503000
  13.42600000  9.44978000  2.02365000
   1.24983000  9.69639000  2.49162000
   4.09890000 12.89870000  4.80616000
  12.40860000 11.00790000  5.75245000
   3.69192000  0.39225900  1.02058000
   7.51754000  0.50359200  5.48315000
   4.02473000 12.91700000  2.47388000
  13.78430000  3.45056000  1.05112000
  10.06170000  6.48274000  5.56648000
   1.46356000  9.40383000  4.94000000
   2.10289000 11.64040000  5.61776000
   1.17886000 12.51520000  0.14058800
   3.41392000  2.76011000  2.16497000
  10.96570000  3.26206000  5.27031000
   3.46610000  0.49645200  6.07952000
   6.38116000 12.90710000  5.16584000
   8.92194000  4.38259000  5.49556000
  12.99980000 12.35240000  4.01220000
  12.95650000  4.55639000  4.90799000
  13.25450000 12.63110000  7.31239000
   8.60237000  1.39013000  7.29014000
   7.91306000  3.75157000  3.55547000
   8.32420000  5.14058000  1.79514000
  12.79390000  0.35531700  6.53784000
  13.19580000  7.69801000  3.54095000
  10.90800000  1.81247000  7.08383000
   0.36043800  0.55688900  3.33530000
  12.78520000  0.22452200  4.13243000
  12.33600000 11.58230000  1.83883000
  10.72440000  5.33414000  1.71263000
   1.86920000  2.20124000  5.91640000
   3.18790000  3.72643000  7.35017000
  11.46220000  3.14953000  1.41347000
   2.01119000 11.81750000  2.01293000
  11.66760000  6.47493000  7.31854000
   0.80312100 12.65020000  3.87915000
   0.14295600  1.52163000  7.17690000
  11.51860000  6.18219000  3.76490000
   5.66159000  1.59087000  1.72492000
  13.83800000  5.15130000  6.89492000
   0.97893900  7.63362000  1.17963000
   5.39533000  3.23689000  3.48943000
   7.73238000  0.43147700  1.69051000
  11.05130000  1.70013000  3.29639000



--------------------------------------------------------------------------------------------------------


 k-point     1 :   0.0000 0.0000 0.0000  plane waves:  148923
 k-point     2 :   0.5000 0.0000 0.0000  plane waves:  148906
 k-point     3 :   0.0000 0.5000 0.0000  plane waves:  148906
 k-point     4 :   0.5000 0.5000 0.0000  plane waves:  149068
 k-point     5 :   0.0000 0.0000 0.2500  plane waves:  148990
 k-point     6 :   0.5000 0.0000 0.2500  plane waves:  149014
 k-point     7 :   0.0000 0.5000 0.2500  plane waves:  149014
 k-point     8 :   0.5000 0.5000 0.2500  plane waves:  149008
 k-point     9 :   0.0000 0.0000 0.5000  plane waves:  148978
 k-point    10 :   0.5000 0.0000 0.5000  plane waves:  149092
 k-point    11 :   0.0000 0.5000 0.5000  plane waves:  149092
 k-point    12 :   0.5000 0.5000 0.5000  plane waves:  149064

 maximum and minimum number of plane-waves per node :      9383     9204

 maximum number of plane-waves:    149092
 maximum index in each direction: 
   IXMAX=   41   IYMAX=   41   IZMAX=   21
   IXMIN=  -41   IYMIN=  -41   IZMIN=  -21


 parallel 3D FFT for wavefunctions:
    minimum data exchange during FFTs selected (reduces bandwidth)
 parallel 3D FFT for charge:
    minimum data exchange during FFTs selected (reduces bandwidth)


 total amount of memory used by VASP MPI-rank0   136652. kBytes
=======================================================================

   base                                    :      30000. kBytes
   nonl-proj                               :      23252. kBytes
   fftplans                                :      28734. kBytes
   grid                                    :      22140. kBytes
   one-center                              :         12. kBytes
   wavefun                                 :      32514. kBytes

     INWAV:  cpu time      6.0354: real time      6.0370
 Broyden mixing: mesh for mixing (old mesh)
   NGX = 83   NGY = 83   NGZ = 43
  (NGX  =336   NGY  =336   NGZ  =168)
  gives a total of 296227 points

 initial charge density was supplied:
 number of electron     226.9999999 magnetization 
 keeping initial charge density in first step


--------------------------------------------------------------------------------------------------------


 Maximum index for augmentation-charges         9635 (set IRDMAX)


--------------------------------------------------------------------------------------------------------


 First call to EWALD:  gamma=   0.152
 Maximum number of real-space cells   2x   2x   4
 Maximum number of reciprocal cells   3x   3x   2

    FEWALD:  cpu time      0.0097: real time      0.0100


--------------------------------------- Ionic step        1  -------------------------------------------




--------------------------------------- Iteration      1(   1)  ---------------------------------------


    POTLOK:  cpu time      0.5016: real time      0.5032
    SETDIJ:  cpu time      0.8968: real time      0.8974
    EDDIAG:  cpu time     11.1915: real time     11.2002
     EDDAV:  cpu time     51.2174: real time     51.2603
       DOS:  cpu time      0.0095: real time      0.0095
    CHARGE:  cpu time      4.0243: real time      4.0277
    MIXING:  cpu time      0.0173: real time      0.0177
    --------------------------------------------
      LOOP:  cpu time     67.8583: real time     67.9160

 eigenvalue-minimisations  :  3480
 total energy-change (2. order) :-0.5845257E+03  (-0.6350208E+00)
 number of electron     226.9999999 magnetization 
 augmentation part      -12.5335114 magnetization 

 Broyden mixing:
  rms(total) = 0.93470E+00    rms(broyden)= 0.52530E+02
  rms(prec ) = 0.10756E+01
  weight for this iteration     100.00
  WARNING: grid for Broyden might be to small

 Free energy of the ion-electron system (eV)
  ---------------------------------------------------
  alpha Z        PSCENC =        68.81119479
  Ewald energy   TEWEN  =     -1699.34961020
  -Hartree energ DENC   =     -4477.79775758
  -exchange      EXHF   =         0.00000000
  -V(xc)+E(xc)   XCENC  =      -266.13274730
  PAW double counting   =     20703.45157426   -20145.00493747
  entropy T*S    EENTRO =        -0.07738702
  eigenvalues    EBANDS =      -577.63392606
  atomic energy  EATOM  =      5809.20788974
  Solvation  Ediel_sol  =         0.00000000
  ---------------------------------------------------
  free energy    TOTEN  =      -584.52570684 eV

  energy without entropy =     -584.44831982  energy(sigma->0) =     -584.48701333


--------------------------------------------------------------------------------------------------------




--------------------------------------- Iteration      1(   2)  ---------------------------------------


    POTLOK:  cpu time      0.4894: real time      0.5034
    SETDIJ:  cpu time      0.8902: real time      0.8907
    EDDIAG:  cpu time     11.2773: real time     11.2863
     EDDAV:  cpu time     51.0642: real time     51.1057
       DOS:  cpu time      0.0037: real time      0.0037
    CHARGE:  cpu time      3.9472: real time      3.9500
    MIXING:  cpu time      0.0117: real time      0.0117
    --------------------------------------------
      LOOP:  cpu time     67.6837: real time     67.7515

 eigenvalue-minimisations  :  3464
 total energy-change (2. order) : 0.4024154E+02  (-0.6003973E+00)
 number of electron     226.9999999 magnetization 
 augmentation part      -12.4837129 magnetization 

 Broyden mixing:
  rms(total) = 0.62737E+00    rms(broyden)= 0.30287E+02
  rms(prec ) = 0.70034E+00
  weight for this iteration     100.00
  WARNING: grid for Broyden might be to small

 eigenvalues of (default mixing * dielectric matrix)
  average eigenvalue GAMMA=   0.6343
  0.6343

 Free energy of the ion-electron system (eV)
  ---------------------------------------------------
  alpha Z        PSCENC =        68.81119479
  Ewald energy   TEWEN  =     -1699.34961020
  -Hartree energ DENC   =     -4471.53405815
  -exchange      EXHF   =         0.00000000
  -V(xc)+E(xc)   XCENC  =      -260.21350886
  PAW double counting   =     24831.02114014   -24272.43407809
  entropy T*S    EENTRO =        -0.07441027
  eigenvalues    EBANDS =      -549.71872732
  atomic energy  EATOM  =      5809.20788974
  Solvation  Ediel_sol  =         0.00000000
  ---------------------------------------------------
  free energy    TOTEN  =      -544.28416822 eV

  energy without entropy =     -544.20975795  energy(sigma->0) =     -544.24696308


--------------------------------------------------------------------------------------------------------




--------------------------------------- Iteration      1(   3)  ---------------------------------------


    POTLOK:  cpu time      0.4924: real time      0.5082
    SETDIJ:  cpu time      0.8903: real time      0.8907
    EDDIAG:  cpu time     11.2606: real time     11.2697
     EDDAV:  cpu time     50.9749: real time     51.0184
       DOS:  cpu time      0.0037: real time      0.0037
    CHARGE:  cpu time      3.9649: real time      3.9678
    MIXING:  cpu time      0.0099: real time      0.0099
    --------------------------------------------
      LOOP:  cpu time     67.5968: real time     67.6683

 eigenvalue-minimisations  :  3456
 total energy-change (2. order) :-0.1948103E+01  (-0.4662164E+00)
 number of electron     226.9999999 magnetization 
 augmentation part      -12.4436665 magnetization 

 Broyden mixing:
  rms(total) = 0.41507E+00    rms(broyden)= 0.13621E+02
  rms(prec ) = 0.44045E+00
  weight for this iteration     100.00
  WARNING: grid for Broyden might be to small

 eigenvalues of (default mixing * dielectric matrix)
  average eigenvalue GAMMA=   0.6671
  0.7178  0.6164

 Free energy of the ion-electron system (eV)
  ---------------------------------------------------
  alpha Z        PSCENC =        68.81119479
  Ewald energy   TEWEN  =     -1699.34961020
  -Hartree energ DENC   =     -4472.81245085
  -exchange      EXHF   =         0.00000000
  -V(xc)+E(xc)   XCENC  =      -263.21279546
  PAW double counting   =     27604.34544287   -27045.80780259
  entropy T*S    EENTRO =        -0.07506411
  eigenvalues    EBANDS =      -547.33907564
  atomic energy  EATOM  =      5809.20788974
  Solvation  Ediel_sol  =         0.00000000
  ---------------------------------------------------
  free energy    TOTEN  =      -546.23227145 eV

  energy without entropy =     -546.15720734  energy(sigma->0) =     -546.19473939


--------------------------------------------------------------------------------------------------------




--------------------------------------- Iteration      1(   4)  ---------------------------------------


    POTLOK:  cpu time      0.5076: real time      0.5079
    SETDIJ:  cpu time      0.8888: real time      0.8899
    EDDIAG:  cpu time     11.2301: real time     11.2387
     EDDAV:  cpu time     53.4370: real time     53.4803
       DOS:  cpu time      0.0031: real time      0.0031
    CHARGE:  cpu time      3.9631: real time      3.9664
    MIXING:  cpu time      0.0098: real time      0.0098
    --------------------------------------------
      LOOP:  cpu time     70.0396: real time     70.0961

 eigenvalue-minimisations  :  3744
 total energy-change (2. order) :-0.2561641E+00  (-0.5694595E-01)
 number of electron     226.9999999 magnetization 
 augmentation part      -12.4345593 magnetization 

 Broyden mixing:
  rms(total) = 0.57450E-01    rms(broyden)= 0.15263E+01
  rms(prec ) = 0.10778E+00
  weight for this iteration     100.00
  WARNING: grid for Broyden might be to small

 eigenvalues of (default mixing * dielectric matrix)
  average eigenvalue GAMMA=   0.8959
  1.3714  0.6936  0.6227

 Free energy of the ion-electron system (eV)
  ---------------------------------------------------
  alpha Z        PSCENC =        68.81119479
  Ewald energy   TEWEN  =     -1699.34961020
  -Hartree energ DENC   =     -4475.77015342
  -exchange      EXHF   =         0.00000000
  -V(xc)+E(xc)   XCENC  =      -263.28704193
  PAW double counting   =     33236.73336373   -32678.24520765
  entropy T*S    EENTRO =        -0.07601292
  eigenvalues    EBANDS =      -544.51285773
  atomic energy  EATOM  =      5809.20788974
  Solvation  Ediel_sol  =         0.00000000
  ---------------------------------------------------
  free energy    TOTEN  =      -546.48843559 eV

  energy without entropy =     -546.41242267  energy(sigma->0) =     -546.45042913


--------------------------------------------------------------------------------------------------------




--------------------------------------- Iteration      1(   5)  ---------------------------------------


    POTLOK:  cpu time      0.4896: real time      0.5068
    SETDIJ:  cpu time      0.8880: real time      0.8889
    EDDIAG:  cpu time     11.2325: real time     11.2408
     EDDAV:  cpu time     56.3376: real time     56.3844
       DOS:  cpu time      0.0033: real time      0.0033
    CHARGE:  cpu time      4.0208: real time      4.0238
    MIXING:  cpu time      0.0102: real time      0.0102
    --------------------------------------------
      LOOP:  cpu time     72.9819: real time     73.0580

 eigenvalue-minimisations  :  4112
 total energy-change (2. order) :-0.2822268E-01  (-0.1068039E-01)
 number of electron     226.9999999 magnetization 
 augmentation part      -12.4359168 magnetization 

 Broyden mixing:
  rms(total) = 0.63034E-01    rms(broyden)= 0.50945E+00
  rms(prec ) = 0.12714E+00
  weight for this iteration     100.00
  WARNING: grid for Broyden might be to small

 eigenvalues of (default mixing * dielectric matrix)
  average eigenvalue GAMMA=   1.0092
  2.0120  0.8105  0.6297  0.5846

 Free energy of the ion-electron system (eV)
  ---------------------------------------------------
  alpha Z        PSCENC =        68.81119479
  Ewald energy   TEWEN  =     -1699.34961020
  -Hartree energ DENC   =     -4476.26700300
  -exchange      EXHF   =         0.00000000
  -V(xc)+E(xc)   XCENC  =      -264.04430560
  PAW double counting   =     33151.62978931   -32593.12919310
  entropy T*S    EENTRO =        -0.07281690
  eigenvalues    EBANDS =      -543.30260332
  atomic energy  EATOM  =      5809.20788974
  Solvation  Ediel_sol  =         0.00000000
  ---------------------------------------------------
  free energy    TOTEN  =      -546.51665826 eV

  energy without entropy =     -546.44384136  energy(sigma->0) =     -546.48024981


--------------------------------------------------------------------------------------------------------




--------------------------------------- Iteration      1(   6)  ---------------------------------------


    POTLOK:  cpu time      0.4915: real time      0.5097
    SETDIJ:  cpu time      0.8879: real time      0.8888
    EDDIAG:  cpu time     11.2725: real time     11.2812
     EDDAV:  cpu time     53.2579: real time     53.3015
       DOS:  cpu time      0.0035: real time      0.0035
    CHARGE:  cpu time      3.9832: real time      3.9861
    MIXING:  cpu time      0.0101: real time      0.0101
    --------------------------------------------
      LOOP:  cpu time     69.9067: real time     69.9809

 eigenvalue-minimisations  :  3712
 total energy-change (2. order) : 0.9316104E-02  (-0.5320620E-02)
 number of electron     226.9999999 magnetization 
 augmentation part      -12.4361810 magnetization 

 Broyden mixing:
  rms(total) = 0.18859E-01    rms(broyden)= 0.38449E+00
  rms(prec ) = 0.24109E-01
  weight for this iteration     100.00
  WARNING: grid for Broyden might be to small

 eigenvalues of (default mixing * dielectric matrix)
  average eigenvalue GAMMA=   1.0146
  2.4975  0.9270  0.6313  0.6313  0.3860

 Free energy of the ion-electron system (eV)
  ---------------------------------------------------
  alpha Z        PSCENC =        68.81119479
  Ewald energy   TEWEN  =     -1699.34961020
  -Hartree energ DENC   =     -4476.14602587
  -exchange      EXHF   =         0.00000000
  -V(xc)+E(xc)   XCENC  =      -264.24267642
  PAW double counting   =     33011.49053357   -32452.98203225
  entropy T*S    EENTRO =        -0.07498989
  eigenvalues    EBANDS =      -543.22162564
  atomic energy  EATOM  =      5809.20788974
  Solvation  Ediel_sol  =         0.00000000
  ---------------------------------------------------
  free energy    TOTEN  =      -546.50734216 eV

  energy without entropy =     -546.43235227  energy(sigma->0) =     -546.46984721


--------------------------------------------------------------------------------------------------------




--------------------------------------- Iteration      1(   7)  ---------------------------------------


    POTLOK:  cpu time      0.4904: real time      0.5099
    SETDIJ:  cpu time      0.8900: real time      0.8908
    EDDIAG:  cpu time     11.2581: real time     11.2663
     EDDAV:  cpu time     52.6271: real time     52.6717
       DOS:  cpu time      0.0034: real time      0.0034
    CHARGE:  cpu time      3.9898: real time      3.9926
    MIXING:  cpu time      0.0102: real time      0.0102
    --------------------------------------------
      LOOP:  cpu time     69.2689: real time     69.3450

 eigenvalue-minimisations  :  3648
 total energy-change (2. order) : 0.1002574E-02  (-0.1543110E-02)
 number of electron     226.9999999 magnetization 
 augmentation part      -12.4358131 magnetization 

 Broyden mixing:
  rms(total) = 0.13189E-01    rms(broyden)= 0.61166E-01
  rms(prec ) = 0.17438E-01
  weight for this iteration     100.00
  WARNING: grid for Broyden might be to small

 eigenvalues of (default mixing * dielectric matrix)
  average eigenvalue GAMMA=   1.0287
  2.5636  1.1473  0.8356  0.6501  0.6270  0.3485

 Free energy of the ion-electron system (eV)
  ---------------------------------------------------
  alpha Z        PSCENC =        68.81119479
  Ewald energy   TEWEN  =     -1699.34961020
  -Hartree energ DENC   =     -4476.23370398
  -exchange      EXHF   =         0.00000000
  -V(xc)+E(xc)   XCENC  =      -264.26418722
  PAW double counting   =     33000.66621857   -32442.15286813
  entropy T*S    EENTRO =        -0.07595702
  eigenvalues    EBANDS =      -543.11531614
  atomic energy  EATOM  =      5809.20788974
  Solvation  Ediel_sol  =         0.00000000
  ---------------------------------------------------
  free energy    TOTEN  =      -546.50633959 eV

  energy without entropy =     -546.43038256  energy(sigma->0) =     -546.46836107


--------------------------------------------------------------------------------------------------------




--------------------------------------- Iteration      1(   8)  ---------------------------------------


    POTLOK:  cpu time      0.4932: real time      0.5080
    SETDIJ:  cpu time      0.8913: real time      0.8915
    EDDIAG:  cpu time     11.2184: real time     11.2273
     EDDAV:  cpu time     53.1814: real time     53.2285
       DOS:  cpu time      0.0033: real time      0.0034
    CHARGE:  cpu time      3.9727: real time      3.9761
    MIXING:  cpu time      0.0106: real time      0.0106
    --------------------------------------------
      LOOP:  cpu time     69.7708: real time     69.8452

 eigenvalue-minimisations  :  3712
 total energy-change (2. order) :-0.9607766E-03  (-0.3902730E-03)
 number of electron     226.9999999 magnetization 
 augmentation part      -12.4349399 magnetization 

 Broyden mixing:
  rms(total) = 0.55588E-02    rms(broyden)= 0.63415E-01
  rms(prec ) = 0.73267E-02
  weight for this iteration     100.00
  WARNING: grid for Broyden might be to small

 eigenvalues of (default mixing * dielectric matrix)
  average eigenvalue GAMMA=   1.0459
  2.5950  1.4321  0.9589  0.3528  0.7121  0.6403  0.6303

 Free energy of the ion-electron system (eV)
  ---------------------------------------------------
  alpha Z        PSCENC =        68.81119479
  Ewald energy   TEWEN  =     -1699.34961020
  -Hartree energ DENC   =     -4476.32957642
  -exchange      EXHF   =         0.00000000
  -V(xc)+E(xc)   XCENC  =      -264.20662595
  PAW double counting   =     32997.61664347   -32439.09695445
  entropy T*S    EENTRO =        -0.07571575
  eigenvalues    EBANDS =      -543.08454561
  atomic energy  EATOM  =      5809.20788974
  Solvation  Ediel_sol  =         0.00000000
  ---------------------------------------------------
  free energy    TOTEN  =      -546.50730036 eV

  energy without entropy =     -546.43158461  energy(sigma->0) =     -546.46944249


--------------------------------------------------------------------------------------------------------




--------------------------------------- Iteration      1(   9)  ---------------------------------------


    POTLOK:  cpu time      0.4878: real time      0.5049
    SETDIJ:  cpu time      0.8911: real time      0.8915
    EDDIAG:  cpu time     11.2777: real time     11.2878
     EDDAV:  cpu time     56.5264: real time     56.5724
       DOS:  cpu time      0.0032: real time      0.0032
    CHARGE:  cpu time      3.9928: real time      3.9960
    MIXING:  cpu time      0.0105: real time      0.0105
    --------------------------------------------
      LOOP:  cpu time     73.1896: real time     73.2664

 eigenvalue-minimisations  :  4112
 total energy-change (2. order) :-0.2360622E-03  (-0.6163233E-04)
 number of electron     226.9999999 magnetization 
 augmentation part      -12.4347355 magnetization 

 Broyden mixing:
  rms(total) = 0.29184E-02    rms(broyden)= 0.27640E-01
  rms(prec ) = 0.49596E-02
  weight for this iteration     100.00
  WARNING: grid for Broyden might be to small

 eigenvalues of (default mixing * dielectric matrix)
  average eigenvalue GAMMA=   1.0951
  2.6443  1.9347  1.0207  0.9028  0.3551  0.6744  0.6182  0.6104

 Free energy of the ion-electron system (eV)
  ---------------------------------------------------
  alpha Z        PSCENC =        68.81119479
  Ewald energy   TEWEN  =     -1699.34961020
  -Hartree energ DENC   =     -4476.28113691
  -exchange      EXHF   =         0.00000000
  -V(xc)+E(xc)   XCENC  =      -264.18707677
  PAW double counting   =     33010.06484922   -32451.54157001
  entropy T*S    EENTRO =        -0.07587577
  eigenvalues    EBANDS =      -543.15620052
  atomic energy  EATOM  =      5809.20788974
  Solvation  Ediel_sol  =         0.00000000
  ---------------------------------------------------
  free energy    TOTEN  =      -546.50753642 eV

  energy without entropy =     -546.43166066  energy(sigma->0) =     -546.46959854


--------------------------------------------------------------------------------------------------------




--------------------------------------- Iteration      1(  10)  ---------------------------------------


    POTLOK:  cpu time      0.4915: real time      0.5085
    SETDIJ:  cpu time      0.8870: real time      0.8875
    EDDIAG:  cpu time     11.2508: real time     11.2597
     EDDAV:  cpu time     54.1429: real time     54.1880
       DOS:  cpu time      0.0031: real time      0.0031
    CHARGE:  cpu time      4.0009: real time      4.0038
    MIXING:  cpu time      0.0105: real time      0.0105
    --------------------------------------------
      LOOP:  cpu time     70.7865: real time     70.8610

 eigenvalue-minimisations  :  3824
 total energy-change (2. order) :-0.6995926E-04  (-0.1895407E-04)
 number of electron     226.9999999 magnetization 
 augmentation part      -12.4347528 magnetization 

 Broyden mixing:
  rms(total) = 0.11135E-02    rms(broyden)= 0.93020E-02
  rms(prec ) = 0.17547E-02
  weight for this iteration     100.00
  WARNING: grid for Broyden might be to small

 eigenvalues of (default mixing * dielectric matrix)
  average eigenvalue GAMMA=   1.1411
  2.9180  2.3890  1.1457  0.9377  0.3550  0.6776  0.6191  0.6140  0.6140

 Free energy of the ion-electron system (eV)
  ---------------------------------------------------
  alpha Z        PSCENC =        68.81119479
  Ewald energy   TEWEN  =     -1699.34961020
  -Hartree energ DENC   =     -4476.21377836
  -exchange      EXHF   =         0.00000000
  -V(xc)+E(xc)   XCENC  =      -264.18842275
  PAW double counting   =     33015.99854334   -32457.47377258
  entropy T*S    EENTRO =        -0.07578114
  eigenvalues    EBANDS =      -543.22386922
  atomic energy  EATOM  =      5809.20788974
  Solvation  Ediel_sol  =         0.00000000
  ---------------------------------------------------
  free energy    TOTEN  =      -546.50760638 eV

  energy without entropy =     -546.43182524  energy(sigma->0) =     -546.46971581


--------------------------------------------------------------------------------------------------------




--------------------------------------- Iteration      1(  11)  ---------------------------------------


    POTLOK:  cpu time      0.4878: real time      0.5047
    SETDIJ:  cpu time      0.8919: real time      0.8922
    EDDIAG:  cpu time     11.2649: real time     11.2740
     EDDAV:  cpu time     52.7146: real time     52.7603
       DOS:  cpu time      0.0038: real time      0.0038
    CHARGE:  cpu time      4.0074: real time      4.0104
    MIXING:  cpu time      0.0107: real time      0.0108
    --------------------------------------------
      LOOP:  cpu time     69.3811: real time     69.4563

 eigenvalue-minimisations  :  3648
 total energy-change (2. order) :-0.8777764E-04  (-0.1451354E-04)
 number of electron     226.9999999 magnetization 
 augmentation part      -12.4347999 magnetization 

 Broyden mixing:
  rms(total) = 0.66003E-03    rms(broyden)= 0.88230E-02
  rms(prec ) = 0.12445E-02
  weight for this iteration     100.00
  WARNING: grid for Broyden might be to small

 eigenvalues of (default mixing * dielectric matrix)
  average eigenvalue GAMMA=   1.1911
  3.3443  2.5700  1.2722  0.9443  0.9443  0.3548  0.6958  0.6242  0.6242  0.5369

 Free energy of the ion-electron system (eV)
  ---------------------------------------------------
  alpha Z        PSCENC =        68.81119479
  Ewald energy   TEWEN  =     -1699.34961020
  -Hartree energ DENC   =     -4476.12296680
  -exchange      EXHF   =         0.00000000
  -V(xc)+E(xc)   XCENC  =      -264.19473026
  PAW double counting   =     33012.60791073   -32454.08225654
  entropy T*S    EENTRO =        -0.07579059
  eigenvalues    EBANDS =      -543.30933503
  atomic energy  EATOM  =      5809.20788974
  Solvation  Ediel_sol  =         0.00000000
  ---------------------------------------------------
  free energy    TOTEN  =      -546.50769416 eV

  energy without entropy =     -546.43190357  energy(sigma->0) =     -546.46979887


--------------------------------------------------------------------------------------------------------




--------------------------------------- Iteration      1(  12)  ---------------------------------------


    POTLOK:  cpu time      0.4925: real time      0.5094
    SETDIJ:  cpu time      0.8864: real time      0.8874
    EDDIAG:  cpu time     11.2408: real time     11.2494
     EDDAV:  cpu time     52.8794: real time     52.9246
       DOS:  cpu time      0.0033: real time      0.0033
    CHARGE:  cpu time      4.0037: real time      4.0072
    MIXING:  cpu time      0.0109: real time      0.0109
    --------------------------------------------
      LOOP:  cpu time     69.5170: real time     69.5922

 eigenvalue-minimisations  :  3672
 total energy-change (2. order) :-0.8395689E-04  (-0.1942211E-04)
 number of electron     226.9999999 magnetization 
 augmentation part      -12.4348911 magnetization 

 Broyden mixing:
  rms(total) = 0.35636E-03    rms(broyden)= 0.13757E-01
  rms(prec ) = 0.80651E-03
  weight for this iteration     100.00
  WARNING: grid for Broyden might be to small

 eigenvalues of (default mixing * dielectric matrix)
  average eigenvalue GAMMA=   1.2134
  3.5103  2.6168  1.4021  1.0796  1.0188  0.3548  0.8483  0.7113  0.5455  0.6311
  0.6288

 Free energy of the ion-electron system (eV)
  ---------------------------------------------------
  alpha Z        PSCENC =        68.81119479
  Ewald energy   TEWEN  =     -1699.34961020
  -Hartree energ DENC   =     -4475.99388925
  -exchange      EXHF   =         0.00000000
  -V(xc)+E(xc)   XCENC  =      -264.20341437
  PAW double counting   =     33011.73471638   -32453.20868612
  entropy T*S    EENTRO =        -0.07579772
  eigenvalues    EBANDS =      -543.43018137
  atomic energy  EATOM  =      5809.20788974
  Solvation  Ediel_sol  =         0.00000000
  ---------------------------------------------------
  free energy    TOTEN  =      -546.50777812 eV

  energy without entropy =     -546.43198040  energy(sigma->0) =     -546.46987926


--------------------------------------------------------------------------------------------------------




--------------------------------------- Iteration      1(  13)  ---------------------------------------


    POTLOK:  cpu time      0.4914: real time      0.5109
    SETDIJ:  cpu time      0.8886: real time      0.8891
    EDDIAG:  cpu time     11.2566: real time     11.2659
     EDDAV:  cpu time     52.6981: real time     52.7408
       DOS:  cpu time      0.0034: real time      0.0034
    CHARGE:  cpu time      3.9784: real time      3.9814
    MIXING:  cpu time      0.0110: real time      0.0110
    --------------------------------------------
      LOOP:  cpu time     69.3275: real time     69.4025

 eigenvalue-minimisations  :  3648
 total energy-change (2. order) :-0.8492827E-04  (-0.1262301E-04)
 number of electron     226.9999999 magnetization 
 augmentation part      -12.4349464 magnetization 

 Broyden mixing:
  rms(total) = 0.23549E-03    rms(broyden)= 0.12388E-01
  rms(prec ) = 0.48169E-03
  weight for this iteration     100.00
  WARNING: grid for Broyden might be to small

 eigenvalues of (default mixing * dielectric matrix)
  average eigenvalue GAMMA=   1.2479
  3.7441  2.5935  2.0110  1.0850  1.0850  0.3548  0.8587  0.7549  0.6582  0.6582
  0.6183  0.5529

 Free energy of the ion-electron system (eV)
  ---------------------------------------------------
  alpha Z        PSCENC =        68.81119479
  Ewald energy   TEWEN  =     -1699.34961020
  -Hartree energ DENC   =     -4475.90055768
  -exchange      EXHF   =         0.00000000
  -V(xc)+E(xc)   XCENC  =      -264.20878587
  PAW double counting   =     33012.20935319   -32453.68353483
  entropy T*S    EENTRO =        -0.07579504
  eigenvalues    EBANDS =      -543.51801714
  atomic energy  EATOM  =      5809.20788974
  Solvation  Ediel_sol  =         0.00000000
  ---------------------------------------------------
  free energy    TOTEN  =      -546.50786305 eV

  energy without entropy =     -546.43206801  energy(sigma->0) =     -546.46996553


--------------------------------------------------------------------------------------------------------




--------------------------------------- Iteration      1(  14)  ---------------------------------------


    POTLOK:  cpu time      0.5060: real time      0.5061
    SETDIJ:  cpu time      0.8893: real time      0.8903
    EDDIAG:  cpu time     11.2660: real time     11.2745
     EDDAV:  cpu time     52.6762: real time     52.7221
       DOS:  cpu time      0.0037: real time      0.0037
    CHARGE:  cpu time      3.9706: real time      3.9732
    MIXING:  cpu time      0.0113: real time      0.0113
    --------------------------------------------
      LOOP:  cpu time     69.3231: real time     69.3811

 eigenvalue-minimisations  :  3648
 total energy-change (2. order) :-0.7644322E-04  (-0.9642073E-05)
 number of electron     226.9999999 magnetization 
 augmentation part      -12.4349811 magnetization 

 Broyden mixing:
  rms(total) = 0.18718E-03    rms(broyden)= 0.45809E-02
  rms(prec ) = 0.33411E-03
  weight for this iteration     100.00
  WARNING: grid for Broyden might be to small

 eigenvalues of (default mixing * dielectric matrix)
  average eigenvalue GAMMA=   1.2791
  3.9042  2.5224  2.4487  1.2012  1.2012  0.3548  0.9392  0.8736  0.7334  0.5473
  0.6597  0.6213  0.6213

 Free energy of the ion-electron system (eV)
  ---------------------------------------------------
  alpha Z        PSCENC =        68.81119479
  Ewald energy   TEWEN  =     -1699.34961020
  -Hartree energ DENC   =     -4475.82963017
  -exchange      EXHF   =         0.00000000
  -V(xc)+E(xc)   XCENC  =      -264.21208178
  PAW double counting   =     33011.73209939   -32453.20659586
  entropy T*S    EENTRO =        -0.07578765
  eigenvalues    EBANDS =      -543.58541775
  atomic energy  EATOM  =      5809.20788974
  Solvation  Ediel_sol  =         0.00000000
  ---------------------------------------------------
  free energy    TOTEN  =      -546.50793949 eV

  energy without entropy =     -546.43215184  energy(sigma->0) =     -546.47004566


--------------------------------------------------------------------------------------------------------




--------------------------------------- Iteration      1(  15)  ---------------------------------------


    POTLOK:  cpu time      0.4902: real time      0.5085
    SETDIJ:  cpu time      0.8871: real time      0.8871
    EDDIAG:  cpu time     11.2627: real time     11.2720
     EDDAV:  cpu time     52.6027: real time     52.6467
       DOS:  cpu time      0.0036: real time      0.0036
    CHARGE:  cpu time      3.9643: real time      3.9673
    MIXING:  cpu time      0.0114: real time      0.0115
    --------------------------------------------
      LOOP:  cpu time     69.2220: real time     69.2966

 eigenvalue-minimisations  :  3648
 total energy-change (2. order) :-0.4203611E-04  (-0.7480489E-05)
 number of electron     226.9999999 magnetization 
 augmentation part      -12.4349822 magnetization 

 Broyden mixing:
  rms(total) = 0.12481E-03    rms(broyden)= 0.21338E-02
  rms(prec ) = 0.22618E-03
  weight for this iteration     100.00
  WARNING: grid for Broyden might be to small

 eigenvalues of (default mixing * dielectric matrix)
  average eigenvalue GAMMA=   1.2901
  3.9751  2.6216  2.6216  1.4606  1.0986  1.0986  0.3548  0.8404  0.8404  0.7233
  0.5425  0.6496  0.6264  0.6079

 Free energy of the ion-electron system (eV)
  ---------------------------------------------------
  alpha Z        PSCENC =        68.81119479
  Ewald energy   TEWEN  =     -1699.34961020
  -Hartree energ DENC   =     -4475.79083212
  -exchange      EXHF   =         0.00000000
  -V(xc)+E(xc)   XCENC  =      -264.21230489
  PAW double counting   =     33011.53369640   -32453.00838630
  entropy T*S    EENTRO =        -0.07579525
  eigenvalues    EBANDS =      -543.62383370
  atomic energy  EATOM  =      5809.20788974
  Solvation  Ediel_sol  =         0.00000000
  ---------------------------------------------------
  free energy    TOTEN  =      -546.50798153 eV

  energy without entropy =     -546.43218628  energy(sigma->0) =     -546.47008390


--------------------------------------------------------------------------------------------------------




--------------------------------------- Iteration      1(  16)  ---------------------------------------


    POTLOK:  cpu time      0.5084: real time      0.5091
    SETDIJ:  cpu time      0.8894: real time      0.8900
    EDDIAG:  cpu time     11.2555: real time     11.2644
     EDDAV:  cpu time     52.2506: real time     52.2944
       DOS:  cpu time      0.0031: real time      0.0031
    CHARGE:  cpu time      4.0443: real time      4.0475
    MIXING:  cpu time      0.0120: real time      0.0120
    --------------------------------------------
      LOOP:  cpu time     68.9634: real time     69.0206

 eigenvalue-minimisations  :  3600
 total energy-change (2. order) :-0.1325391E-04  (-0.3268364E-05)
 number of electron     226.9999999 magnetization 
 augmentation part      -12.4349907 magnetization 

 Broyden mixing:
  rms(total) = 0.54165E-04    rms(broyden)= 0.12228E-02
  rms(prec ) = 0.90470E-04
  weight for this iteration     100.00
  WARNING: grid for Broyden might be to small

 eigenvalues of (default mixing * dielectric matrix)
  average eigenvalue GAMMA=   1.3249
  4.0357  2.7507  2.6361  1.9121  1.2368  1.2368  1.0213  0.3548  0.7862  0.7862
  0.7010  0.5407  0.6388  0.6319  0.6042

 Free energy of the ion-electron system (eV)
  ---------------------------------------------------
  alpha Z        PSCENC =        68.81119479
  Ewald energy   TEWEN  =     -1699.34961020
  -Hartree energ DENC   =     -4475.76974565
  -exchange      EXHF   =         0.00000000
  -V(xc)+E(xc)   XCENC  =      -264.21282318
  PAW double counting   =     33011.80327164   -32453.27804673
  entropy T*S    EENTRO =        -0.07579618
  eigenvalues    EBANDS =      -543.64432902
  atomic energy  EATOM  =      5809.20788974
  Solvation  Ediel_sol  =         0.00000000
  ---------------------------------------------------
  free energy    TOTEN  =      -546.50799478 eV

  energy without entropy =     -546.43219860  energy(sigma->0) =     -546.47009669


--------------------------------------------------------------------------------------------------------




--------------------------------------- Iteration      1(  17)  ---------------------------------------


    POTLOK:  cpu time      0.5066: real time      0.5074
    SETDIJ:  cpu time      0.8879: real time      0.8884
    EDDIAG:  cpu time     11.3070: real time     11.3158
     EDDAV:  cpu time     52.3270: real time     52.3730
       DOS:  cpu time      0.0031: real time      0.0031
    CHARGE:  cpu time      3.9964: real time      3.9996
    MIXING:  cpu time      0.0121: real time      0.0121
    --------------------------------------------
      LOOP:  cpu time     69.0401: real time     69.0994

 eigenvalue-minimisations  :  3592
 total energy-change (2. order) :-0.4225174E-05  (-0.7826786E-06)
 number of electron     226.9999999 magnetization 
 augmentation part      -12.4349947 magnetization 

 Broyden mixing:
  rms(total) = 0.47820E-04    rms(broyden)= 0.17879E-02
  rms(prec ) = 0.88157E-04
  weight for this iteration     100.00
  WARNING: grid for Broyden might be to small

 eigenvalues of (default mixing * dielectric matrix)
  average eigenvalue GAMMA=   1.3744
  4.2102  3.2604  2.5388  2.5388  1.4216  1.1692  0.3548  0.9746  0.8138  0.8138
  0.8172  0.6834  0.5409  0.6264  0.6264  0.5995

 Free energy of the ion-electron system (eV)
  ---------------------------------------------------
  alpha Z        PSCENC =        68.81119479
  Ewald energy   TEWEN  =     -1699.34961020
  -Hartree energ DENC   =     -4475.76250292
  -exchange      EXHF   =         0.00000000
  -V(xc)+E(xc)   XCENC  =      -264.21284645
  PAW double counting   =     33011.78259551   -32453.25734146
  entropy T*S    EENTRO =        -0.07579149
  eigenvalues    EBANDS =      -543.65158653
  atomic energy  EATOM  =      5809.20788974
  Solvation  Ediel_sol  =         0.00000000
  ---------------------------------------------------
  free energy    TOTEN  =      -546.50799901 eV

  energy without entropy =     -546.43220752  energy(sigma->0) =     -546.47010326


--------------------------------------------------------------------------------------------------------




--------------------------------------- Iteration      1(  18)  ---------------------------------------


    POTLOK:  cpu time      0.4956: real time      0.5093
    SETDIJ:  cpu time      0.8866: real time      0.8873
    EDDIAG:  cpu time     11.2666: real time     11.2759
     EDDAV:  cpu time     44.8518: real time     44.8892
       DOS:  cpu time      0.0032: real time      0.0032
    CHARGE:  cpu time      3.9922: real time      3.9949
    MIXING:  cpu time      0.0123: real time      0.0124
    --------------------------------------------
      LOOP:  cpu time     61.5084: real time     61.5721

 eigenvalue-minimisations  :  2704
 total energy-change (2. order) :-0.1405431E-05  (-0.1506276E-06)
 number of electron     226.9999999 magnetization 
 augmentation part      -12.4349952 magnetization 

 Broyden mixing:
  rms(total) = 0.20250E-04    rms(broyden)= 0.68280E-03
  rms(prec ) = 0.35821E-04
  weight for this iteration     100.00
  WARNING: grid for Broyden might be to small

[...]
    OFIELD:  cpu time      0.0018: real time      0.0019

  FORCE on cell =-STRESS in cart. coord.  units (eV):
  Direction    XX          YY          ZZ          XY          YZ          ZX
  --------------------------------------------------------------------------------------
  Alpha Z    68.81119    68.81119    68.81119
  Ewald   -1919.06283 -2190.78852  2410.46872  1180.77332    -2.65066    48.12339
  Hartree   292.09377    90.81704  4092.84747   937.03588    -5.59938    16.70951
  E(xc)    -685.94850  -684.88175  -686.17625    -0.48785     0.02903    -0.44351
  Local   -1138.83623  -671.15327 -9284.32926 -2120.26539    10.57042   -66.22799
  n-local  2093.45242  2082.71427  2105.74900    12.43660    -2.59862     6.97641
  augment  -304.53036  -304.98965  -306.55233    -0.71074     0.34815    -0.37216
  Kinetic  1568.64053  1589.24557  1586.51070    -4.68549    -5.50720    -3.62812
  Fock        0.00000     0.00000     0.00000     0.00000     0.00000     0.00000
  -------------------------------------------------------------------------------------
  Total     -25.38001   -20.22512   -12.67078     4.09633    -5.40826     1.13753
  in kB     -25.75550   -20.52434   -12.85823     4.15693    -5.48827     1.15436
  external pressure =      -19.71 kB  Pullay stress =        0.00 kB


 VOLUME and BASIS-vectors are now :
 -----------------------------------------------------------------------------
  energy-cutoff  :     1200.00
  volume of cell :     1578.82
      direct lattice vectors                 reciprocal lattice vectors
    14.531892074  0.000000000  0.000000000     0.068814164  0.000000000  0.000000000
     0.000000000 14.531892074  0.000000000     0.000000000  0.068814164  0.000000000
     0.000000000  0.000000000  7.476324938     0.000000000  0.000000000  0.133755556

  length of vectors
    14.531892074 14.531892074  7.476324938     0.068814164  0.068814164  0.133755556


 FORCES acting on ions
    electron-ion (+dipol)            ewald-force                    non-local-force                 convergence-correction
 -----------------------------------------------------------------------------------------------
   -.396E+02 0.410E+02 0.108E+02   0.426E+02 -.427E+02 -.120E+02   -.264E+01 0.156E+01 0.109E+01   -.125E-04 0.336E-04 0.749E-05
   0.393E+02 -.426E+02 -.128E+01   -.410E+02 0.450E+02 0.140E+01   0.205E+01 -.233E+01 -.181E+00   0.383E-04 0.342E-04 -.395E-05
   -.610E+01 0.557E+02 0.409E+01   0.625E+01 -.599E+02 -.457E+01   -.447E+00 0.327E+01 0.833E+00   0.646E-04 -.184E-04 0.228E-05
   -.152E+03 -.318E+02 -.146E+01   0.153E+03 0.319E+02 0.848E+00   -.122E+01 -.190E-01 0.256E+00   -.133E-03 0.862E-04 0.477E-06
   -.938E+01 0.248E+02 -.816E+01   0.861E+01 -.242E+02 0.584E+01   -.509E+00 0.526E+00 0.209E+01   -.128E-03 -.138E-03 0.104E-04
   0.395E+02 -.234E+02 -.111E+02   -.393E+02 0.232E+02 0.109E+02   -.544E+00 0.236E+00 0.412E+00   -.172E-03 0.277E-03 0.201E-04
   0.446E+02 -.487E+02 0.243E+01   -.443E+02 0.510E+02 -.274E+01   0.248E+00 -.727E+00 0.705E+00   -.107E-03 0.265E-03 0.335E-04
   -.467E+02 -.354E+02 0.898E+00   0.449E+02 0.355E+02 -.192E+00   0.231E+01 -.195E+00 -.143E+01   -.431E-04 -.139E-03 -.170E-04
   -.180E+02 0.109E+02 0.195E+02   0.181E+02 -.952E+01 -.168E+02   -.765E+00 -.126E+01 -.279E+01   -.201E-04 -.451E-04 -.114E-04
   -.109E+03 -.480E+02 -.709E+01   0.107E+03 0.510E+02 0.726E+01   0.280E+01 -.184E+01 0.862E+00   -.594E-04 -.626E-04 0.124E-03
   0.375E+02 -.910E+02 -.231E+01   -.366E+02 0.909E+02 0.285E+01   0.112E+00 0.605E+00 -.115E+01   -.192E-05 -.987E-04 -.596E-04
   -.869E+02 -.187E+02 0.281E+00   0.866E+02 0.200E+02 -.119E+01   0.593E-01 -.140E+01 0.130E+01   -.974E-04 0.268E-04 -.104E-03
   -.120E+02 -.103E+03 0.246E+01   0.137E+02 0.994E+02 -.493E+01   -.143E+01 0.315E+01 0.330E+01   -.124E-04 -.715E-04 0.102E-04
   -.711E+00 0.711E+02 -.319E+01   -.578E+00 -.702E+02 0.172E+01   0.204E+01 -.114E+01 0.165E+01   0.972E-04 -.165E-03 -.161E-05
   -.319E+02 -.340E+02 -.147E+01   0.320E+02 0.335E+02 0.154E+01   -.378E+00 0.112E+01 0.858E+00   -.199E-04 -.953E-04 -.882E-05
   0.779E+02 -.282E+02 0.101E+02   -.779E+02 0.275E+02 -.104E+02   -.484E+00 0.118E+01 -.579E+00   -.186E-03 0.454E-03 -.296E-04
   -.100E+03 0.247E+02 0.166E+02   0.992E+02 -.227E+02 -.162E+02   0.111E+01 -.253E+01 -.110E+00   -.227E-03 0.239E-03 -.261E-04
   -.809E+02 0.104E+03 -.149E+02   0.835E+02 -.103E+03 0.150E+02   -.354E+01 0.170E-01 0.109E+01   -.171E-03 0.123E-04 -.244E-04
   0.140E+03 0.343E+02 -.123E+02   -.140E+03 -.340E+02 0.116E+02   0.682E+00 -.325E+00 0.109E+01   -.668E-04 0.137E-03 0.319E-04
   -.661E+02 0.560E+02 -.153E+01   0.647E+02 -.566E+02 0.794E+00   0.149E+01 0.112E+00 0.116E+01   -.673E-04 -.498E-04 0.152E-04
   -.252E+02 0.114E+03 0.146E+01   0.244E+02 -.112E+03 -.948E+00   0.182E+00 -.169E+01 -.138E+01   0.134E-03 -.767E-04 0.239E-05
   -.993E+02 0.907E+02 0.834E+01   0.100E+03 -.934E+02 -.884E+01   -.113E+01 0.284E+01 -.982E-01   -.135E-03 0.385E-04 0.963E-05
   -.115E+02 -.556E+01 -.309E+01   0.944E+01 0.632E+01 0.302E+01   0.165E+01 -.145E+01 -.941E+00   -.135E-05 -.114E-03 0.659E-05
   0.111E+03 -.124E+03 -.390E+01   -.112E+03 0.124E+03 0.265E+01   0.895E+00 0.187E-01 0.101E+01   0.623E-04 0.111E-03 0.267E-05
   -.110E+03 0.106E+02 -.239E+02   0.108E+03 -.122E+02 0.231E+02   0.234E+01 0.124E+01 0.303E+00   -.183E-03 0.303E-03 -.448E-04
   -.950E+02 0.777E+02 -.242E+02   0.932E+02 -.761E+02 0.229E+02   0.210E+01 -.120E+01 0.742E+00   -.210E-03 0.111E-03 -.204E-04
   -.268E+02 0.652E+02 0.255E+02   0.268E+02 -.653E+02 -.219E+02   -.121E+01 0.492E+00 -.502E+01   -.240E-03 -.332E-04 0.192E-04
   -.297E+02 -.710E+02 -.151E+02   0.280E+02 0.727E+02 0.154E+02   0.971E+00 -.128E+01 -.248E+00   -.307E-04 -.963E-04 0.591E-06
   0.309E+02 -.605E+01 0.614E+01   -.318E+02 0.455E+01 -.524E+01   0.150E+01 0.419E+00 -.169E+01   0.321E-04 -.116E-03 0.183E-05
   -.448E+02 0.563E+02 0.134E+02   0.450E+02 -.539E+02 -.147E+02   0.106E+01 -.290E+01 0.341E+00   -.944E-04 -.611E-04 -.331E-05
   -.725E+02 0.146E+03 -.956E+01   0.749E+02 -.151E+03 0.840E+01   -.122E+01 0.447E+01 0.111E+01   0.127E-03 0.144E-04 -.182E-04
   0.781E+02 -.958E+02 -.788E+01   -.776E+02 0.951E+02 0.753E+01   -.485E+00 0.137E+01 0.151E+01   0.340E-04 -.352E-04 0.178E-05
   0.101E+03 0.417E+02 0.681E+01   -.100E+03 -.431E+02 -.652E+01   -.918E+00 0.174E+01 -.173E+01   -.120E-03 -.111E-03 -.212E-03
   0.289E+01 -.167E+02 0.766E+01   -.332E+01 0.174E+02 -.625E+01   -.346E+00 -.114E+01 -.281E+01   -.271E-04 -.529E-04 0.926E-05
   0.774E+02 0.390E+02 -.103E+02   -.778E+02 -.412E+02 0.101E+02   0.312E+00 0.122E+01 0.758E+00   -.154E-03 -.179E-03 0.192E-03
   -.192E+01 0.729E+02 -.628E+00   0.372E+00 -.728E+02 0.192E+01   0.160E+01 0.693E+00 -.903E+00   0.944E-04 -.161E-03 0.413E-05
   0.562E+02 -.831E+02 -.754E-01   -.518E+02 0.844E+02 -.111E+01   -.499E+01 -.161E+01 0.506E+00   0.399E-05 -.998E-04 0.736E-04
   0.790E+02 -.151E+03 0.482E+01   -.814E+02 0.153E+03 -.384E+01   0.229E+01 -.950E+00 -.159E+01   0.306E-04 -.296E-04 -.264E-05
   0.670E+02 0.577E+02 -.120E+02   -.656E+02 -.569E+02 0.109E+02   -.185E+01 -.987E+00 0.858E+00   -.324E-04 -.249E-03 0.152E-04
   0.609E+02 -.461E+02 -.100E+01   -.609E+02 0.461E+02 0.103E+01   0.476E+00 0.800E+00 0.704E+00   -.113E-03 0.257E-03 -.280E-04
   0.375E+02 0.719E+02 -.886E+01   -.378E+02 -.681E+02 0.806E+01   0.473E+00 -.390E+01 0.533E+00   0.436E-04 -.205E-03 -.671E-05
   0.430E+01 0.176E+02 0.814E+00   -.480E+01 -.177E+02 -.202E+00   0.168E+01 -.101E+01 -.108E+01   -.783E-04 -.192E-03 -.193E-05
   0.737E+02 0.433E+02 0.134E+02   -.720E+02 -.451E+02 -.128E+02   -.275E+01 0.130E+01 -.366E+00   -.325E-04 -.272E-03 -.341E-04
   0.140E+03 0.283E+02 0.963E+01   -.141E+03 -.282E+02 -.832E+01   0.121E+01 0.831E-01 -.101E+01   -.202E-03 0.364E-04 -.993E-05
   0.781E+02 -.923E+02 0.325E+00   -.786E+02 0.913E+02 -.502E+00   0.265E-01 0.993E+00 0.489E-01   0.991E-04 0.594E-04 -.989E-05
   -.322E+02 -.357E+02 0.111E+02   0.317E+02 0.338E+02 -.112E+02   0.181E+01 0.210E+01 0.626E+00   -.545E-04 -.136E-03 -.485E-05
   -.522E+02 -.110E+03 0.860E+00   0.526E+02 0.108E+03 -.184E+01   -.105E+01 0.181E+01 0.112E+01   -.107E-04 -.958E-04 0.312E-04
   0.408E+02 0.449E+01 -.856E+01   -.396E+02 -.404E+01 0.745E+01   -.470E+00 -.126E+01 0.162E+01   0.367E-04 -.152E-03 -.265E-05
   -.900E+02 0.853E+02 0.110E+02   0.878E+02 -.843E+02 -.119E+02   0.224E+01 -.200E+01 0.236E+01   -.253E-03 0.472E-04 0.168E-04
   0.892E+02 -.879E+02 -.869E+01   -.898E+02 0.887E+02 0.998E+01   0.541E+00 -.160E+01 -.730E+00   0.106E-04 0.148E-03 -.947E-05
   -.151E+02 0.355E+02 -.115E+02   0.148E+02 -.364E+02 0.110E+02   0.675E+00 0.156E+01 0.503E+00   -.213E-03 -.603E-04 -.187E-04
   0.127E+02 0.367E+01 0.892E-01   -.113E+02 -.514E+01 0.421E+00   -.164E+01 0.214E+01 0.129E+01   -.426E-04 -.183E-03 0.665E-05
   0.859E+02 -.873E+02 0.160E+02   -.845E+02 0.878E+02 -.149E+02   -.113E+01 -.805E+00 -.796E+00   0.887E-05 0.114E-03 0.189E-04
   -.319E+02 0.288E+02 -.820E+01   0.337E+02 -.267E+02 0.721E+01   -.165E+01 -.128E+01 0.353E-01   -.168E-04 -.706E-04 0.137E-05
   -.180E+02 -.418E+02 -.375E+01   0.174E+02 0.381E+02 0.276E+01   0.805E-01 0.349E+01 0.148E+01   -.612E-04 -.130E-04 0.914E-05
   -.116E+03 -.277E+02 0.217E+02   0.114E+03 0.262E+02 -.209E+02   0.216E+01 0.328E+00 -.166E+01   -.111E-03 0.159E-03 0.943E-05
   -.532E+01 -.115E+03 -.121E+02   0.514E+01 0.115E+03 0.136E+02   0.551E+00 -.139E+00 -.123E+01   -.201E-04 -.868E-04 -.901E-05
   -.773E+01 0.119E+03 -.698E+01   0.107E+02 -.118E+03 0.564E+01   -.289E+01 0.111E+00 0.128E+01   0.123E-03 -.124E-03 -.211E-05
   0.371E+02 0.680E+02 0.122E+02   -.369E+02 -.662E+02 -.119E+02   -.727E+00 -.971E+00 0.716E+00   0.454E-04 -.224E-03 0.317E-05
 -----------------------------------------------------------------------------------------------
   -.327E+01 -.308E+01 -.663E+01   0.995E-13 0.000E+00 0.497E-13   0.329E+01 0.309E+01 0.663E+01   -.288E-02 -.115E-02 -.332E-04


 POSITION                                       TOTAL-FORCE (eV/Angst)
 -----------------------------------------------------------------------------------
      5.22158     12.22360      1.98472         0.364903     -0.179708     -0.121818
      9.09748      7.62616      5.65116         0.355331      0.048505     -0.058440
      7.88216     13.56040      1.38685        -0.295458     -0.928517      0.344524
      2.20402      7.11992      5.00057        -0.503392      0.056499     -0.325028
      1.38018      0.08023      1.15090        -1.285748      1.189441     -0.150447
     13.71540      8.99832      5.50583        -0.299503      0.038373      0.205753
     13.38930      7.94343      0.11316         0.495045      1.483865      0.434668
      1.52678      2.55460      3.71207         0.586351     -0.080558     -0.796099
      5.47224      1.66900      5.34289        -0.781029      0.084148     -0.278141
      1.59728      5.78209      6.86395         0.859510      1.046298      1.035184
      7.72192      3.66418      0.02203         0.958514      0.559980     -0.722799
      0.75191      6.47955      3.17630        -0.321622     -0.088686      0.454702
      5.49128      3.08631      7.12161         0.202208     -0.113688      1.035722
      8.59554      1.45367      3.54547         0.852236     -0.302538      0.250721
      0.04931      4.19071      3.07503        -0.285684      0.674532      0.972196
     13.42600      9.44978      2.02365        -0.437788      0.485005     -0.862818
      1.24983      9.69639      2.49162        -0.184092     -0.701688      0.262314
      4.09890     12.89870      4.80616        -1.117461      0.999694      1.277547
     12.40860     11.00790      5.75245         0.455189      0.007121      0.356009
      3.69192      0.39226      1.02058         0.095511     -0.425228      0.509474
      7.51754      0.50359      5.48315        -0.677012     -0.195592     -0.960534
      4.02473     12.91700      2.47388        -0.310097      0.302213     -0.631455
     13.78430      3.45056      1.05112        -0.334306     -0.724165     -1.067683
     10.06170      6.48274      5.56648        -0.324555     -0.102354     -0.190230
      1.46356      9.40383      4.94000         0.014419     -0.290726     -0.509128
      2.10289     11.64040      5.61776         0.356825      0.401994     -0.609459
      1.17886     12.51520      0.14059        -1.293365      0.437810     -1.630435
      3.41392      2.76011      2.16497        -0.684858      0.316554      0.037968
     10.96570      3.26206      5.27031         0.669515     -1.057490     -0.863558
      3.46610      0.49645      6.07952         1.310745     -0.658107     -0.849950
      6.38116     12.90710      5.16584         0.965012     -0.306444      0.005165
      8.92194      4.38259      5.49556         0.103593      0.698471      1.207226
     12.99980     12.35240      4.01220        -0.443528      0.466535     -1.541071
     12.95650      4.55639      4.90799        -0.820947     -0.427700     -1.555581
     13.25450     12.63110      7.31239        -0.043940     -0.877444      0.614320
      8.60237      1.39013      7.29014         0.109754      0.781650      0.326798
      7.91306      3.75157      3.55547        -0.893609     -0.479000     -0.627341
      8.32420      5.14058      1.79514         0.159169     -0.049730     -0.687187
     12.79390      0.35532      6.53784        -0.495309     -0.175459     -0.191623
     13.19580      7.69801      3.54095         0.578838      0.781734      0.776852
     10.90800      1.81247      7.08383         0.275598     -0.189915     -0.244561
      0.36044      0.55689      3.33530         1.289942     -1.178369     -0.528561
     12.78520      0.22452      4.13243        -1.125855     -0.375719      0.186684
     12.33600     11.58230      1.83883         0.632849      0.113927      0.273452
     10.72440      5.33414      1.71263        -0.461673      0.013620     -0.122339
      1.86920      2.20124      5.91640         1.398575      0.312288      0.558137
      3.18790      3.72643      7.35017        -0.700627      0.330726      0.229694
     11.46220      3.14953      1.41347         0.687276     -0.899818      0.595358
      2.01119     11.81750      2.01293         0.127162     -1.099825      1.584738
     11.66760      6.47493      7.31854         0.064312     -0.898749      0.525269
      0.80312     12.65020      3.87915         0.396337      0.730308     -0.008092
      0.14296      1.52163      7.17690        -0.324215      0.785504      1.882027
     11.51860      6.18219      3.76490         0.218257     -0.387783      0.328102
      5.66159      1.59087      1.72492        -0.088132      0.752492     -0.985252
     13.83800      5.15130      6.89492        -0.569395      0.064647      0.546103
      0.97894      7.63362      1.17963         0.793802     -1.157754     -0.838584
      5.39533      3.23689      3.48943         0.441435     -0.931963      0.047939
      7.73238      0.43148      1.69051        -0.088611      0.498134     -0.027135
     11.05130      1.70013      3.29639        -0.626403      0.822645      1.120700
 -----------------------------------------------------------------------------------
    total drift:                                0.014762      0.000607     -0.000301


--------------------------------------------------------------------------------------------------------



  FREE ENERGIE OF THE ION-ELECTRON SYSTEM (eV)
  ---------------------------------------------------
  free  energy   TOTEN  =      -546.50800107 eV

  energy  without entropy=     -546.43220573  energy(sigma->0) =     -546.47010340



--------------------------------------------------------------------------------------------------------


    POTLOK:  cpu time      1.3688: real time      1.3699


--------------------------------------------------------------------------------------------------------


     LOOP+:  cpu time   1393.6841: real time   1395.0708
    4ORBIT:  cpu time      0.0000: real time      0.0000



 total charge

# of ion       s       p       d       tot
------------------------------------------
    1        0.574   0.017   0.000   0.591
    2        0.559   0.015   0.000   0.574
    3        0.581   0.018   0.000   0.599
    4        0.800   0.819   0.000   1.619
    5        0.770   0.895   0.000   1.664
    6        0.762   0.894   0.000   1.656
    7        0.747   0.931   0.000   1.678
    8        0.752   0.963   0.000   1.715
    9        0.759   0.927   0.000   1.686
   10        0.782   0.816   0.000   1.598
   11        0.755   0.895   0.000   1.649
   12        0.753   0.917   0.000   1.670
   13        0.759   0.915   0.000   1.675
   14        0.757   0.906   0.000   1.663
   15        0.750   0.938   0.000   1.688
   16        0.762   0.907   0.000   1.669
   17        0.761   0.887   0.000   1.648
   18        0.764   0.881   0.000   1.645
   19        0.802   0.851   0.000   1.653
   20        0.749   0.904   0.000   1.653
   21        0.754   0.932   0.000   1.686
   22        0.751   0.943   0.000   1.694
   23        0.753   0.933   0.000   1.686
   24        0.738   0.952   0.000   1.689
   25        0.759   0.872   0.000   1.631
   26        0.755   0.877   0.000   1.632
   27        0.757   0.966   0.000   1.723
   28        0.778   0.796   0.000   1.574
   29        0.755   0.925   0.000   1.680
   30        0.768   0.864   0.000   1.633
   31        0.859   0.736   0.000   1.595
   32        0.750   0.953   0.000   1.702
   33        0.759   0.929   0.000   1.688
   34        0.756   0.908   0.000   1.665
   35        0.757   0.865   0.000   1.622
   36        0.755   0.960   0.000   1.715
   37        0.759   0.904   0.000   1.664
   38        0.802   0.861   0.000   1.663
   39        0.751   0.909   0.000   1.659
   40        0.757   0.931   0.000   1.688
   41        0.749   0.942   0.000   1.691
   42        0.757   0.907   0.000   1.664
   43        0.752   0.913   0.000   1.665
   44        0.802   0.812   0.000   1.614
   45        0.745   0.930   0.000   1.675
   46        0.758   0.957   0.000   1.715
   47        0.763   0.827   0.000   1.590
   48        0.754   0.940   0.000   1.694
   49        0.754   1.007   0.000   1.762
   50        0.747   0.918   0.000   1.666
   51        0.771   0.880   0.000   1.651
   52        0.753   0.949   0.000   1.702
   53        0.750   0.952   0.000   1.701
   54        0.769   0.876   0.000   1.645
   55        0.754   0.918   0.000   1.672
   56        0.778   0.846   0.000   1.624
   57        0.779   0.845   0.000   1.624
   58        0.746   1.011   0.000   1.757
   59        0.751   0.875   0.000   1.626
--------------------------------------------------
tot         44.403  50.618   0.000  95.021


 total amount of memory used by VASP MPI-rank0   136652. kBytes
=======================================================================

   base                                    :      30000. kBytes
   nonl-proj                               :      23252. kBytes
   fftplans                                :      28734. kBytes
   grid                                    :      22140. kBytes
   one-center                              :         12. kBytes
   wavefun                                 :      32514. kBytes

  
  
 General timing and accounting informations for this job:
 ========================================================
  
                  Total CPU time used (sec):     1438.819
                            User time (sec):     1432.273
                          System time (sec):        6.546
                         Elapsed time (sec):     1440.180
  
                   Maximum memory used (kb):      312404.
                   Average memory used (kb):          N/A
  
                          Minor page faults:       285931
                          Major page faults:         1154
                 Voluntary context switches:         2647
