ITEM: TIMESTEP
41252
ITEM: NUMBER OF ATOMS
10000
ITEM: BOX BOUNDS pp pp pp
-4.0355857172209764e-01 5.8324742177898550e+01
-4.0355857172209764e-01 5.8324742177898550e+01
-4.0355857172209764e-01 6.3855148688661330e+01
ITEM: ATOMS id type xs ys zs
1 1 0.965044 0.0378512 0.267351
2 1 0.770967 0.412378 0.269446
3 1 0.462956 0.517797 0.464936
4 1 0.894404 0.98498 0.478524
5 1 0.274015 0.12455 0.427085
6 1 0.321683 0.874487 0.16796
7 1 0.0186537 0.292965 0.582306
8 1 0.41797 0.152535 0.264354
9 1 0.195521 0.356041 0.463615
10 1 0.143856 0.103783 0.309629
11 1 0.338414 0.204901 0.127848
12 1 0.248277 0.318525 0.187241
13 1 0.18591 0.438395 0.0952437
14 1 0.0600832 0.386063 0.593961
15 1 0.546477 0.250095 0.445942
16 1 0.358953 0.138978 0.68966
17 1 0.294658 0.2399 0.0969867
18 1 0.0459135 0.139866 0.92674
19 1 0.0739381 0.357889 0.494552
20 1 0.277992 0.145826 0.205097
21 1 0.035804 0.0744525 0.174813
22 1 0.451872 0.0702202 0.498586
23 1 0.868744 0.0701634 0.633136
24 1 0.592398 0.0823461 0.464098
25 1 0.142806 0.336683 0.397047
26 1 0.723794 0.207571 0.143542
27 1 0.811509 0.11456 0.0718238
28 1 0.213418 0.330906 0.30605
29 1 0.173601 0.133934 0.0780345
30 1 0.15929 0.240885 0.5578
31 1 0.414931 0.144832 0.440023
32 1 0.30796 0.428414 0.120382
33 1 0.150441 0.459976 0.243989
34 1 0.232706 0.0727323 0.701701
35 1 0.134729 0.287633 0.966911
36 1 0.328715 0.941391 0.0230692
37 1 0.518809 0.0380394 0.0794135
38 1 0.314573 0.547828 0.661731
39 1 0.934189 0.65591 0.191695
40 1 0.947722 0.202493 0.441506
41 1 0.775941 0.484828 0.0739991
42 1 0.887768 0.67472 0.135152
43 1 0.0774462 0.205218 0.0742075
44 1 0.363921 0.317807 0.151972
45 1 0.990629 0.794659 0.139995
46 1 0.918654 0.468515 0.14785
47 1 0.00444044 0.708296 0.511758
48 1 0.362103 0.525026 0.478564
49 1 0.200155 0.0264946 0.0595733
50 1 0.251346 0.138545 0.232961
51 1 0.54234 0.0639689 0.517518
52 1 0.267904 0.0888644 0.620052
53 1 0.345923 0.895535 0.275084
54 1 0.412339 0.4407 0.295654
55 1 0.91509 0.429097 0.530035
56 1 0.150997 0.410875 0.731903
57 1 0.501138 0.23104 0.818302
58 1 0.0992232 0.243279 0.586312
59 1 0.71533 0.438238 0.399545
60 1 0.323873 0.180244 0.471929
61 1 0.0636594 0.172872 0.506922
62 1 0.356322 0.389674 0.445288
63 1 0.903213 0.407847 0.280718
64 1 0.960058 0.753452 0.968822
65 1 0.565593 0.472414 0.793768
66 1 0.508872 0.253541 0.173502
67 1 0.288647 0.198305 0.307583
68 1 0.734643 0.338174 0.0801411
69 1 0.870641 0.70383 0.382075
70 1 0.553184 0.304117 0.168553
71 1 0.320086 0.522607 0.203907
72 1 0.040512 0.147599 0.240091
73 1 0.271514 0.0230551 0.378799
74 1 0.473559 0.352164 0.453317
75 1 0.513622 0.47405 0.22585
76 1 0.462106 0.19699 0.189276
77 1 0.394767 0.255797 0.260768
78 1 0.0429826 0.187173 0.0609512
79 1 0.235725 0.0457262 0.262883
80 1 0.493747 0.231694 0.289319
81 1 0.153805 0.551766 0.037762
82 1 0.182381 0.434877 0.193385
83 1 0.275016 0.912588 0.0330342
84 1 0.852415 0.399208 0.0759604
85 1 0.149013 0.490848 0.150069
86 1 0.329207 0.32419 0.0974409
87 1 0.574419 0.604989 0.246183
88 1 0.672647 0.185174 0.609119
89 1 0.401146 0.358213 0.240562
90 1 0.297483 0.140462 0.285794
91 1 0.22727 0.222617 0.25842
92 1 0.408352 0.173459 0.651556
93 1 0.381448 0.300108 0.18103
94 1 0.321845 0.206826 0.374493
95 1 0.141053 0.642168 0.0753787
96 1 0.132111 0.404091 0.507478
97 1 0.809468 0.388749 0.194155
98 1 0.39751 0.41489 0.803699
99 1 0.755263 0.911707 0.485576
100 1 0.151366 0.614913 0.312902
101 1 0.354434 0.37105 0.196107
102 1 0.538309 0.0942791 0.271301
103 1 0.418029 0.088636 0.354313
104 1 0.306506 0.0013384 0.536325
105 1 0.483503 0.228648 0.514365
106 1 0.187137 0.0711553 0.884103
107 1 0.39251 0.375529 0.982662
108 1 0.217932 0.876369 0.277973
109 1 0.216148 0.657341 0.0117149
110 1 0.4213 0.384512 0.436215
111 1 0.278164 0.435677 0.20227
112 1 0.488444 0.381019 0.677864
113 1 0.291962 0.404705 0.181688
114 1 0.293387 0.572122 0.359057
115 1 0.833963 0.967376 0.224237
116 1 0.885218 0.971843 0.304042
117 1 0.453746 0.379407 0.549165
118 1 0.286687 0.244215 0.754554
119 1 0.117141 0.455354 0.268207
120 1 0.409524 0.0927193 0.293048
121 1 0.284135 0.875123 0.301435
122 1 0.918269 0.494931 0.486091
123 1 0.846775 0.817146 0.226355
124 1 0.735789 0.388399 0.327887
125 1 0.196866 0.270879 0.29243
126 1 0.222846 0.114515 0.178807
127 1 0.283415 0.616666 0.1933
128 1 0.549397 0.354304 0.315758
129 1 0.3635 0.348624 0.567577
130 1 0.911812 0.894757 0.460359
131 1 0.0167637 0.327198 0.919402
132 1 0.415645 0.331066 0.78397
133 1 0.73605 0.694392 0.49243
134 1 0.410122 0.552677 0.58998
135 1 0.142761 0.674293 0.907671
136 1 0.693736 0.161096 0.304158
137 1 0.125684 0.123932 0.55976
138 1 0.287703 0.104781 0.303826
139 1 0.360291 0.514029 0.209027
140 1 0.306277 0.252585 0.537284
141 1 0.921062 0.29821 0.637531
142 1 0.0132624 0.733551 0.482568
143 1 0.0978578 0.0706523 0.171456
144 1 0.962606 0.495707 0.405824
145 1 0.202016 0.3087 0.149921
146 1 0.258206 0.024308 0.239086
147 1 0.099976 0.346266 0.343229
148 1 0.371015 0.361287 0.503038
149 1 0.527309 0.210308 0.559149
150 1 0.12417 0.226678 0.340097
151 1 0.835587 0.305034 0.957353
152 1 0.47568 0.474974 0.915399
153 1 0.301155 0.153834 0.414745
154 1 0.247358 0.301124 0.40111
155 1 0.488525 0.146886 0.849753
156 1 0.373822 0.159155 0.561069
157 1 0.44793 0.524724 0.269297
158 1 0.167202 0.481969 0.724282
159 1 0.0822991 0.120988 0.0890296
160 1 0.332265 0.916682 0.211986
161 1 0.23478 0.309553 0.253932
162 1 0.971414 0.261808 0.393673
163 1 0.534968 0.57532 0.198521
164 1 0.010152 0.08876 0.244563
165 1 0.231418 0.130163 0.12406
166 1 0.287289 0.582721 0.541873
167 1 0.786584 0.227826 0.0416751
168 1 0.320444 0.0906658 0.361324
169 1 0.903 0.588091 0.36537
170 1 0.53666 0.305484 0.913481
171 1 0.454631 0.306424 0.242794
172 1 0.131498 0.0270487 0.908541
173 1 0.376593 0.22399 0.471346
174 1 0.370904 0.188979 0.0217847
175 1 0.239124 0.243262 0.419801
176 1 0.269753 0.257695 0.925809
177 1 0.603908 0.162337 0.430097
178 1 0.886195 0.280713 0.257294
179 1 0.378749 0.78366 0.199464
180 1 0.365029 0.323372 0.600746
181 1 0.977255 0.353403 0.10976
182 1 0.518495 0.337342 0.112935
183 1 0.0482662 0.32908 0.314591
184 1 0.384961 0.269238 0.428844
185 1 0.0165322 0.947351 0.502083
186 1 0.170198 0.492204 0.256772
187 1 0.433808 0.294272 0.212753
188 1 0.165179 0.154056 0.998607
189 1 0.331998 0.29413 0.220171
190 1 0.245972 0.213179 0.226572
191 1 0.185379 0.309154 0.74753
192 1 0.283526 0.790472 0.131913
193 1 0.580416 0.47425 0.568232
194 1 0.42367 0.626191 0.513035
195 1 0.207851 0.190812 0.438921
196 1 0.644636 0.0309466 0.00885495
197 1 0.231061 0.143744 0.0120874
198 1 0.773379 0.144759 0.725192
199 1 0.0758 0.433462 0.728748
200 1 0.317137 0.221623 0.852359
201 1 0.330696 0.555344 0.0929264
202 1 0.756814 0.282743 0.239615
203 1 0.884896 0.172956 0.0519539
204 1 0.686388 0.0958032 0.435663
205 1 0.19912 0.458733 0.430638
206 1 0.25656 0.666465 0.262382
207 1 0.179874 0.908505 0.0218379
208 1 0.0795413 0.932592 0.179779
209 1 0.412805 0.880048 0.481817
210 1 0.980233 0.498093 0.869564
211 1 0.0459342 0.980539 0.576769
212 1 0.982617 0.961078 0.634407
213 1 0.357844 0.409747 0.320798
214 1 0.488005 0.19745 0.95265
215 1 0.984846 0.918311 0.237031
216 1 0.174777 0.962568 0.120862
217 1 0.15509 0.866046 0.326746
218 1 0.884024 0.221097 0.338883
219 1 0.262244 0.0835312 0.880174
220 1 0.236042 0.128687 0.377385
221 1 0.84426 0.270749 0.823313
222 1 0.814498 0.203858 0.0261125
223 1 0.171629 0.051996 0.369567
224 1 0.340636 0.849289 0.18907
225 1 0.4029 0.630906 0.274263
226 1 0.425306 0.370343 0.783235
227 1 0.21863 0.504672 0.166039
228 1 0.129209 0.198647 0.700854
229 1 0.759829 0.350196 0.254404
230 1 0.486124 0.404616 0.417521
231 1 0.213786 0.322675 0.474561
232 1 0.322739 0.232955 0.261335
233 1 0.169675 0.940179 0.568443
234 1 0.513361 0.615241 0.638376
235 1 0.30212 0.844504 0.0478797
236 1 0.356504 0.989604 0.596528
237 1 0.0532722 0.892576 0.284332
238 1 0.161448 0.394769 0.238966
239 1 0.946224 0.206138 0.0742766
240 1 0.854962 0.429746 0.909287
241 1 0.203103 0.307234 0.27728
242 1 0.106928 0.327759 0.281332
243 1 0.764558 0.275039 0.150918
244 1 0.431633 0.424217 0.0907922
245 1 0.919951 0.291856 0.598564
246 1 0.108523 0.21947 0.241231
247 1 0.450843 0.70936 0.346641
248 1 0.222212 0.373451 0.0301054
249 1 0.516207 0.83212 0.298161
250 1 0.948608 0.645418 0.439444
251 1 0.658833 0.968636 0.0895942
252 1 0.284144 0.88644 0.00106491
253 1 0.366007 0.942558 0.971099
254 1 0.231058 0.0843506 0.509523
255 1 0.613664 0.358927 0.242606
256 1 0.134877 0.562161 0.118888
257 1 0.486806 0.0879748 0.50398
258 1 0.517438 0.908224 0.894711
259 1 0.573884 0.572083 0.269507
260 1 0.480478 0.305281 0.326065
261 1 0.107885 0.0669234 0.0225448
262 1 0.226534 0.261267 0.183257
263 1 0.350889 0.397504 0.604691
264 1 0.410991 0.850001 0.906642
265 1 0.443143 0.976687 0.833166
266 1 0.502723 0.119678 0.152515
267 1 0.289318 0.387923 0.827858
268 1 0.232568 0.411646 0.457914
269 1 0.887177 0.0191936 0.586838
270 1 0.149023 0.682153 0.294114
271 1 0.319741 0.0583661 0.178887
272 1 0.331087 0.56551 0.130403
273 1 0.504299 0.243072 0.102388
274 1 0.276983 0.0776893 0.278687
275 1 0.368235 0.409183 0.197504
276 1 0.599964 0.933698 0.495851
277 1 0.76507 0.349293 0.136301
278 1 0.620556 0.52459 0.475482
279 1 0.705266 0.242994 0.387988
280 1 0.0104654 0.324539 0.425079
281 1 0.949972 0.515427 0.11095
282 1 0.283582 0.528473 0.147322
283 1 0.323221 0.959123 0.471168
284 1 0.506958 0.919385 0.495876
285 1 0.54525 0.226928 0.478654
286 1 0.154629 0.170353 0.479348
287 1 0.108828 0.179863 0.380952
288 1 0.424998 0.726451 0.189871
289 1 0.324511 0.311638 0.253443
290 1 0.287703 0.0351734 0.92289
291 1 0.816767 0.474713 0.194509
292 1 0.259512 0.347729 0.128342
293 1 0.414306 0.87671 0.258836
294 1 0.163695 0.487603 0.333249
295 1 0.495281 0.266208 0.270852
296 1 0.981573 0.921998 0.274936
297 1 0.468605 0.223887 0.568846
298 1 0.140458 0.996126 0.190252
299 1 0.397576 0.355935 0.299468
300 1 0.597504 0.970033 0.332276
301 1 0.0444358 0.522862 0.158684
302 1 0.439836 0.116787 0.127078
303 1 0.16534 0.185493 0.685899
304 1 0.25231 0.318899 0.00256907
305 1 0.449855 0.0319465 0.377498
306 1 0.0203391 0.299517 0.10874
307 1 0.343732 0.560977 0.561993
308 1 0.17599 0.294244 0.178045
309 1 0.369406 0.681118 0.144378
310 1 0.885534 0.428455 0.0212533
311 1 0.817254 0.359897 0.767272
312 1 0.117742 0.398997 0.567588
313 1 0.27767 0.414542 0.37287
314 1 0.745705 0.0220454 0.877662
315 1 0.491829 0.36435 0.228215
316 1 0.380876 0.389117 0.0788451
317 1 0.24266 0.312318 0.907212
318 1 0.0341202 0.120744 0.516567
319 1 0.164122 0.100457 0.234687
320 1 0.440112 0.157001 0.56415
321 1 0.341656 0.791886 0.187554
322 1 0.0690569 0.285688 0.267184
323 1 0.317292 0.0845942 0.322986
324 1 0.924431 0.190562 0.381311
325 1 0.190786 0.22843 0.331109
326 1 0.420124 0.323548 0.254483
327 1 0.432791 0.0699598 0.269795
328 1 0.490678 0.181476 0.333516
329 1 0.182807 0.359268 0.189105
330 1 0.337578 0.36267 0.285242
331 1 0.195207 0.349508 0.150153
332 1 0.907029 0.585326 0.200067
333 1 0.109617 0.359816 0.0149329
334 1 0.613075 0.323201 0.364478
335 1 0.531244 0.602242 0.99944
336 1 0.956002 0.96929 0.227866
337 1 0.972572 0.177736 0.752732
338 1 0.407751 0.349646 0.117578
339 1 0.339267 0.151017 0.150655
340 1 0.338407 0.487469 0.412828
341 1 0.178952 0.983384 0.187988
342 1 0.283065 0.368791 0.104262
343 1 0.489695 0.0248298 0.379307
344 1 0.720429 0.496209 0.0865998
345 1 0.385784 0.203285 0.179377
346 1 0.315172 0.0326115 0.264904
347 1 0.520643 0.53837 0.206666
348 1 0.956939 0.415313 0.408097
349 1 0.956668 0.597975 0.948739
350 1 0.873249 0.45824 0.0759122
351 1 0.312387 0.185014 0.869927
352 1 0.153992 0.957663 0.271999
353 1 0.33161 0.889023 0.637322
354 1 0.166012 0.0109846 0.610497
355 1 0.386225 0.158245 0.466261
356 1 0.709081 0.495745 0.284551
357 1 0.404674 0.519469 0.172258
358 1 0.230501 0.761173 0.684918
359 1 0.667693 0.102447 0.491823
360 1 0.0812109 0.128679 0.169584
361 1 0.897463 0.776515 0.379319
362 1 0.420713 0.30141 0.576678
363 1 0.721719 0.264664 0.416667
364 1 0.362188 0.147013 0.213004
365 1 0.537444 0.354446 0.459735
366 1 0.190496 0.53692 0.757817
367 1 0.369054 0.0135982 0.298957
368 1 0.462181 0.984807 0.0149818
369 1 0.2604 0.982651 0.329433
370 1 0.94888 0.171251 0.0148276
371 1 0.694028 0.266284 0.359018
372 1 0.0304478 0.150121 0.0739166
373 1 0.16068 0.111391 0.198705
374 1 0.185112 0.362356 0.25124
375 1 0.52218 0.977435 0.282134
376 1 0.274455 0.447319 0.719155
377 1 0.3039 0.205145 0.0774256
378 1 0.311837 0.67057 0.0769969
379 1 0.257732 0.241205 0.275546
380 1 0.370268 0.306104 0.216559
381 1 0.270741 0.992358 0.260246
382 1 0.323005 0.0824294 0.53472
383 1 0.41178 0.404786 0.378915
384 1 0.973246 0.356343 0.380226
385 1 0.327279 0.0174968 0.4104
386 1 0.121542 0.396446 0.289547
387 1 0.293194 0.303305 0.277004
388 1 0.586372 0.46829 0.310392
389 1 0.313342 0.404277 0.88861
390 1 0.98493 0.562262 0.90633
391 1 0.429235 0.54606 0.624198
392 1 0.168834 0.327734 0.2623
393 1 0.116644 0.173196 0.112152
394 1 0.988593 0.582442 0.577217
395 1 0.239479 0.92781 0.0250173
396 1 0.531824 0.114874 0.476614
397 1 0.991812 0.814884 0.300123
398 1 0.700454 0.0180566 0.115207
399 1 0.559797 0.257154 0.130873
400 1 0.819067 0.974333 0.0712441
401 1 0.515886 0.0632919 0.41387
402 1 0.266362 0.489914 0.0419364
403 1 0.533535 0.414106 0.710192
404 1 0.703372 0.346457 0.28999
405 1 0.715715 0.103048 0.706669
406 1 0.53965 0.982213 0.246521
407 1 0.599498 0.43788 0.425523
408 1 0.135481 0.0655617 0.601761
409 1 0.131153 0.33276 0.929076
410 1 0.840956 0.763046 0.0274773
411 1 0.308818 0.164762 0.316555
412 1 0.955412 0.35177 0.914636
413 1 0.276253 0.661575 0.541075
414 1 0.182806 0.306343 0.857584
415 1 0.0975034 0.039617 0.295438
416 1 0.904728 0.959976 0.785294
417 1 0.0505683 0.074944 0.304508
418 1 0.118459 0.204258 0.304864
419 1 0.544635 0.55181 0.522608
420 1 0.0843181 0.209496 0.882165
421 1 0.165804 0.0341081 0.113725
422 1 0.566056 0.943907 0.531892
423 1 0.82977 0.200244 0.506404
424 1 0.0291349 0.109662 0.300238
425 1 0.169658 0.113565 0.338458
426 1 0.00965885 0.344409 0.0269251
427 1 0.104629 0.976167 0.678121
428 1 0.0556665 0.000677473 0.327816
429 1 0.0985067 0.244776 0.125096
430 1 0.300839 0.610722 0.0684061
431 1 0.415381 0.986666 0.483932
432 1 0.27872 0.417655 0.0658219
433 1 0.747351 0.974324 0.107354
434 1 0.40181 0.304789 0.341199
435 1 0.107508 0.135857 0.265722
436 1 0.0280907 0.187464 0.432253
437 1 0.278379 0.311728 0.209784
438 1 0.230966 0.403248 0.148973
439 1 0.973361 0.222267 0.178476
440 1 0.249452 0.212958 0.476122
441 1 0.292325 0.087268 0.172083
442 1 0.172625 0.505433 0.121998
443 1 0.217002 0.241088 0.612557
444 1 0.122687 0.896248 0.475384
445 1 0.520791 0.405819 0.181427
446 1 0.0459101 0.487339 0.495452
447 1 0.220346 0.0765091 0.949028
448 1 0.237276 0.450998 0.341391
449 1 0.36206 0.597685 0.57144
450 1 0.393317 0.427483 0.327612
451 1 0.632676 0.994893 0.267445
452 1 0.253244 0.573767 0.491578
453 1 0.0507323 0.140228 0.104425
454 1 0.697932 0.985926 0.320371
455 1 0.574478 0.381849 0.15474
456 1 0.316474 0.476207 0.157751
457 1 0.226269 0.130326 0.306518
458 1 0.548993 0.339092 0.279164
459 1 0.353429 0.096862 0.128593
460 1 0.438659 0.311857 0.4113
461 1 0.794411 0.79213 0.885969
462 1 0.486571 0.400294 0.010889
463 1 0.00876387 0.948308 0.28904
464 1 0.0584951 0.240866 0.316231
465 1 0.97814 0.19175 0.879711
466 1 0.554967 0.320071 0.409641
467 1 0.384685 0.0555055 0.97644
468 1 0.621867 0.171919 0.825718
469 1 0.15095 0.475819 0.609203
470 1 0.302054 0.177294 0.216996
471 1 0.428932 0.992924 0.447577
472 1 0.99201 0.061012 0.134284
473 1 0.236912 0.0735515 0.341141
474 1 0.377901 0.0861016 0.352348
475 1 0.424508 0.140836 0.0513121
476 1 0.758986 0.149676 0.279702
477 1 0.828243 0.682931 0.440635
478 1 0.267021 0.282698 0.135459
479 1 0.286334 0.0183448 0.12979
480 1 0.728684 0.152015 0.439915
481 1 0.41627 0.161157 0.08286
482 1 0.68462 0.194725 0.188517
483 1 0.753898 0.165177 0.33642
484 1 0.386077 0.287907 0.899087
485 1 0.11509 0.280189 0.405258
486 1 0.454909 0.2668 0.194184
487 1 0.325083 0.234812 0.757322
488 1 0.857728 0.181142 0.38171
489 1 0.756709 0.605389 0.332166
490 1 0.407171 0.481448 0.476753
491 1 0.322386 0.0257532 0.562678
492 1 0.378386 0.426577 0.386618
493 1 0.342321 0.441676 0.640924
494 1 0.203387 0.488269 0.0375622
495 1 0.312135 0.0929349 0.695347
496 1 0.194487 0.303761 0.784793
497 1 0.0171004 0.220424 0.786417
498 1 0.0306528 0.434334 0.366212
499 1 0.299229 0.356973 0.63034
500 1 0.606356 0.481093 0.126633
501 1 0.982316 0.192439 0.062649
502 1 0.0402867 0.117059 0.0511475
503 1 0.25487 0.00636602 0.108901
504 1 0.735015 0.977206 0.393745
505 1 0.494674 0.0180861 0.836985
506 1 0.232087 0.301037 0.621103
507 1 0.375328 0.315548 0.743938
508 1 0.181228 0.328941 0.0695906
509 1 0.0400038 0.545767 0.880041
510 1 0.319354 0.363611 0.993809
511 1 0.299601 0.251487 0.0374792
512 1 0.961573 0.348256 0.162011
513 1 0.900802 0.341383 0.275477
514 1 0.650864 0.336355 0.985614
515 1 0.287681 0.0403642 0.29281
516 1 0.3407 0.390761 0.0826309
517 1 0.113919 0.216674 0.945546
518 1 0.28801 0.531654 0.413485
519 1 0.157857 0.783345 0.298874
520 1 0.595744 0.443564 0.387007
521 1 0.328035 0.134344 0.261256
522 1 0.344938 0.844506 0.105029
523 1 0.0336016 0.408046 0.420498
524 1 0.136193 0.331584 0.819004
525 1 0.374574 0.760612 0.258451
526 1 0.382937 0.962794 0.796908
527 1 0.140259 0.289184 0.499241
528 1 0.512646 0.433971 0.229748
529 1 0.544926 0.184364 0.244778
530 1 0.294163 0.963884 0.0741689
531 1 0.101752 0.329692 0.0741905
532 1 0.482495 0.752427 0.377445
533 1 0.110614 0.545466 0.144781
534 1 0.183448 0.218856 0.211827
535 1 0.565463 0.218508 0.547218
536 1 0.939137 0.327736 0.137308
537 1 0.140495 0.131158 0.861343
538 1 0.606494 0.918684 0.210587
539 1 0.495835 0.0406754 0.322504
540 1 0.203223 0.0977378 0.768768
541 1 0.92007 0.961524 0.821278
542 1 0.178886 0.369254 0.0288064
543 1 0.230501 0.455182 0.27884
544 1 0.191662 0.209309 0.665007
545 1 0.331722 0.426497 0.0324742
546 1 0.4829 0.422189 0.178863
547 1 0.384108 0.266268 0.644446
548 1 0.662599 0.358207 0.291245
549 1 0.719049 0.93772 0.742746
550 1 0.88954 0.20611 0.655243
551 1 0.260671 0.585143 0.240578
552 1 0.255002 0.386318 0.177706
553 1 0.774518 0.10317 0.99174
554 1 0.587814 0.958716 0.963776
555 1 0.466229 0.38378 0.840362
556 1 0.203047 0.292631 0.114978
557 1 0.269966 0.370526 0.908575
558 1 0.939986 0.392729 0.238335
559 1 0.601727 0.31908 0.248591
560 1 0.697141 0.111167 0.348653
561 1 0.833372 0.299799 0.770165
562 1 0.171512 0.408637 0.505
563 1 0.328427 0.14293 0.484582
564 1 0.180996 0.0180294 0.251667
565 1 0.0922263 0.198986 0.167691
566 1 0.418424 0.592615 0.337263
567 1 0.415839 0.320522 0.640625
568 1 0.15468 0.894784 0.235386
569 1 0.971237 0.326666 0.274172
570 1 0.232849 0.0763404 0.40953
571 1 0.411585 0.53272 0.959846
572 1 0.100828 0.289015 0.289534
573 1 0.553734 0.34401 0.377539
574 1 0.457006 0.4286 0.961764
575 1 0.985439 0.113752 0.0247422
576 1 0.254105 0.107832 0.325331
577 1 0.814225 0.584708 0.315447
578 1 0.409804 0.882175 0.126774
579 1 0.683178 0.167254 0.783353
580 1 0.0841964 0.312659 0.211726
581 1 0.569272 0.16902 0.508836
582 1 0.128313 0.188013 0.222171
583 1 0.264464 0.857219 0.238489
584 1 0.482744 0.150911 0.0943524
585 1 0.121465 0.540448 0.784559
586 1 0.344913 0.541277 0.382506
587 1 0.553414 0.483397 0.224681
588 1 0.0469174 0.580338 0.315673
589 1 0.899892 0.396592 0.925759
590 1 0.403002 0.818478 0.443192
591 1 0.283172 0.0880445 0.37384
592 1 0.105602 0.514947 0.0711053
593 1 0.0419283 0.830399 0.0111781
594 1 0.108166 0.636771 0.685295
595 1 0.930555 0.889152 0.0659366
596 1 0.905235 0.160674 0.320446
597 1 0.115426 0.432938 0.161759
598 1 0.198262 0.665771 0.570313
599 1 0.108816 0.142372 0.88282
600 1 0.89668 0.296723 0.967399
601 1 0.437753 0.204227 0.298314
602 1 0.936617 0.349499 0.365105
603 1 0.426356 0.585679 0.155015
604 1 0.308303 0.542553 0.261506
605 1 0.0365837 0.589816 0.0512757
606 1 0.624326 0.516776 0.12864
607 1 0.416992 0.371834 0.399421
608 1 0.123559 0.580154 0.860959
609 1 0.174071 0.429359 0.256284
610 1 0.134216 0.332183 0.130713
611 1 0.267086 0.997756 0.0731047
612 1 0.198631 0.15252 0.130946
613 1 0.366765 0.302956 0.86716
614 1 0.205441 0.257158 0.507324
615 1 0.129396 0.30642 0.712355
616 1 0.482109 0.958681 0.106369
617 1 0.179232 0.26012 0.402642
618 1 0.968853 0.000316239 0.0774957
619 1 0.164917 0.35803 0.125397
620 1 0.174766 0.529717 0.478876
621 1 0.309865 0.250885 0.161936
622 1 0.0902179 0.485842 0.271937
623 1 0.518394 0.622616 0.335105
624 1 0.409282 0.482053 0.18715
625 1 0.232177 0.314582 0.527195
626 1 0.0929009 0.0928467 0.505486
627 1 0.384978 0.210731 0.937513
628 1 0.367053 0.839168 0.240194
629 1 0.782973 0.288402 0.41376
630 1 0.592802 0.183608 0.620441
631 1 0.471692 0.206105 0.826763
632 1 0.2017 0.214737 0.365836
633 1 0.089743 0.305626 0.650127
634 1 0.725682 0.692528 0.233262
635 1 0.684518 0.413693 0.896826
636 1 0.304664 0.423804 0.577072
637 1 0.336139 0.288607 0.947635
638 1 0.141464 0.0349533 0.200341
639 1 0.153254 0.263715 0.1312
640 1 0.363698 0.471271 0.437483
641 1 0.494997 0.00684603 0.447476
642 1 0.117863 0.398429 0.467578
643 1 0.438367 0.955242 0.435339
644 1 0.756603 0.261408 0.863557
645 1 0.341565 0.608247 0.28131
646 1 0.0489959 0.172659 0.620112
647 1 0.439272 0.0328803 0.28415
648 1 0.386758 0.460873 0.274311
649 1 0.142143 0.274126 0.23936
650 1 0.335671 0.997173 0.153774
651 1 0.236136 0.365639 0.966084
652 1 0.109507 0.837728 0.994735
653 1 0.337024 0.13672 0.983817
654 1 0.250199 0.36925 0.33914
655 1 0.474841 0.33815 0.940158
656 1 0.160266 0.248352 0.737264
657 1 0.247697 0.14083 0.91007
658 1 0.196299 0.508486 0.943309
659 1 0.990339 0.0095335 0.0455856
660 1 0.145737 0.45583 0.577722
661 1 0.329959 0.183384 0.929063
662 1 0.254379 0.344814 0.26324
663 1 0.764746 0.895388 0.337093
664 1 0.404837 0.278418 0.37001
665 1 0.47744 0.42575 0.278294
666 1 0.981658 0.665661 0.0838019
667 1 0.272531 0.315822 0.351235
668 1 0.910268 0.303796 0.19385
669 1 0.320473 0.391216 0.853792
670 1 0.838991 0.128112 0.531931
671 1 0.146857 0.580801 0.332979
672 1 0.872484 0.576809 0.520974
673 1 0.076172 0.524995 0.321187
674 1 0.529179 0.213936 0.295011
675 1 0.416931 0.0901576 0.10399
676 1 0.191611 0.374786 0.497782
677 1 0.173288 0.808593 0.124798
678 1 0.0158256 0.645472 0.890297
679 1 0.278111 0.272507 0.224394
680 1 0.957411 0.332257 0.611495
681 1 0.911988 0.377578 0.588023
682 1 0.207821 0.114391 0.0659824
683 1 0.0874389 0.638987 0.40301
684 1 0.0039099 0.664557 0.258881
685 1 0.286396 0.95396 0.130063
686 1 0.598363 0.395863 0.4706
687 1 0.43312 0.567775 0.963458
688 1 0.0620907 0.341556 0.699596
689 1 0.556905 0.246872 0.819162
690 1 0.0481703 0.0530676 0.516609
691 1 0.475807 0.206049 0.390438
692 1 0.60416 0.245327 0.498637
693 1 0.277514 0.336767 0.292335
694 1 0.217566 0.489606 0.296141
695 1 0.383587 0.258373 0.131036
696 1 0.844033 0.120936 0.824206
697 1 0.050118 0.432946 0.212187
698 1 0.576985 0.938937 0.907624
699 1 0.271668 0.117593 0.973066
700 1 0.221486 0.31517 0.217282
701 1 0.601095 0.722948 0.70978
702 1 0.915035 0.352284 0.113354
703 1 0.611714 0.439245 0.524193
704 1 0.371433 0.322309 0.409717
705 1 0.184922 0.0289351 0.341375
706 1 0.177296 0.262733 0.0699726
707 1 0.995847 0.174098 0.909779
708 1 0.148732 0.507481 0.88427
709 1 0.10165 0.49288 0.105767
710 1 0.25476 0.506554 0.514441
711 1 0.822555 0.91504 0.917667
712 1 0.307052 0.32031 0.643728
713 1 0.873679 0.240464 0.167604
714 1 0.35647 0.397528 0.28363
715 1 0.630771 0.0621056 0.255691
716 1 0.0255716 0.536693 0.101759
717 1 0.244889 0.886185 0.304838
718 1 0.220207 0.901998 0.213843
719 1 0.0691417 0.340309 0.123104
720 1 0.0442278 0.376556 0.355012
721 1 0.10745 0.462625 0.571927
722 1 0.468412 0.334336 0.726525
723 1 0.167941 0.277368 0.800033
724 1 0.484244 0.100906 0.753325
725 1 0.846514 0.720776 0.239082
726 1 0.488522 0.0798503 0.437705
727 1 0.101975 0.367418 0.22933
728 1 0.591172 0.0815963 0.124777
729 1 0.234913 0.848349 0.556767
730 1 0.186433 0.203053 0.299034
731 1 0.399159 0.132529 0.0231876
732 1 0.298875 0.150312 0.353197
733 1 0.511772 0.616912 0.248471
734 1 0.133042 0.397127 0.171619
735 1 0.0903424 0.238982 0.161937
736 1 0.923227 0.710977 0.455328
737 1 0.973843 0.778129 0.200367
738 1 0.222538 0.226698 0.451613
739 1 0.132321 0.160551 0.0206916
740 1 0.429107 0.335242 0.346686
741 1 0.23091 0.786525 0.167107
742 1 0.45931 0.387471 0.230919
743 1 0.100954 0.302731 0.177957
744 1 0.429599 0.823372 0.128694
745 1 0.0018208 0.298143 0.455197
746 1 0.762574 0.42168 0.456735
747 1 0.351428 0.429331 0.226633
748 1 0.523499 0.141746 0.392289
749 1 0.92457 0.0698311 0.658705
750 1 0.0562289 0.594992 0.12189
751 1 0.844918 0.214279 0.399804
752 1 0.081613 0.190677 0.291966
753 1 0.402146 0.291065 0.237158
754 1 0.895651 0.982126 0.999541
755 1 0.324445 0.0587129 0.0276885
756 1 0.472447 0.441973 0.0515828
757 1 0.262749 0.212709 0.141916
758 1 0.0889919 0.281897 0.588254
759 1 0.433831 0.321885 0.606541
760 1 0.392843 0.119578 0.26684
761 1 0.0252614 0.260577 0.938211
762 1 0.479489 0.200375 0.151259
763 1 0.00141908 0.138723 0.621537
764 1 0.107815 0.0974929 0.324018
765 1 0.929564 0.561755 0.153039
766 1 0.342881 0.543436 0.327456
767 1 0.993324 0.0266412 0.485178
768 1 0.288824 0.402398 0.296707
769 1 0.0732451 0.350614 0.00112721
770 1 0.425476 0.00147716 0.260018
771 1 0.513466 0.419893 0.26408
772 1 0.261024 0.63919 0.32154
773 1 0.228321 0.0371271 0.114582
774 1 0.204578 0.578322 0.216957
775 1 0.252375 0.333 0.32162
776 1 0.668342 0.292437 0.374121
777 1 0.0762277 0.304469 0.91676
778 1 0.0915291 0.589388 0.991875
779 1 0.983596 0.273523 0.593705
780 1 0.821415 0.401325 0.147
781 1 0.343431 0.624906 0.595715
782 1 0.982624 0.173147 0.252989
783 1 0.315888 0.967173 0.371169
784 1 0.873968 0.0863465 0.177747
785 1 0.442763 0.326376 0.448675
786 1 0.982507 0.879345 0.817032
787 1 0.130982 0.0564284 0.415388
788 1 0.4867 0.0243679 0.131279
789 1 0.160901 0.381846 0.838981
790 1 0.396278 0.138592 0.610499
791 1 0.249447 0.993898 0.182402
792 1 0.128174 0.426465 0.404751
793 1 0.240317 0.429859 0.0587091
794 1 0.472382 0.115602 0.427264
795 1 0.562978 0.033871 0.533761
796 1 0.188513 0.163934 0.165266
797 1 0.429308 0.251958 0.168756
798 1 0.390369 0.21397 0.0469247
799 1 0.0485604 0.474797 0.983103
800 1 0.0940476 0.251323 0.990255
801 1 0.452724 0.0582642 0.439377
802 1 0.388541 0.614298 0.397153
803 1 0.934605 0.504852 0.0118401
804 1 0.374504 0.0406684 0.180482
805 1 0.719786 0.144846 0.128811
806 1 0.542646 0.27511 0.312361
807 1 0.120197 0.310848 0.344173
808 1 0.864965 0.333231 0.0862606
809 1 0.987912 0.14486 0.455862
810 1 0.141481 0.600107 0.387194
811 1 0.186909 0.311963 0.0100643
812 1 0.209871 0.186691 0.116855
813 1 0.751032 0.189454 0.276225
814 1 0.249899 0.194812 0.319129
815 1 0.137425 0.993707 0.396969
816 1 0.562203 0.165408 0.830676
817 1 0.375425 0.472179 0.944125
818 1 0.479652 0.38942 0.358378
819 1 0.047908 0.000834315 0.495667
820 1 0.55318 0.617296 0.137259
821 1 0.176058 0.128485 0.262998
822 1 0.242322 0.465837 0.98594
823 1 0.380201 0.717256 0.507414
824 1 0.297802 0.939145 0.163968
825 1 0.269838 0.175762 0.755701
826 1 0.257492 0.244139 0.202807
827 1 0.455803 0.2706 0.263325
828 1 0.318962 0.724413 0.227391
829 1 0.15104 0.261934 0.16912
830 1 0.922561 0.535795 0.393465
831 1 0.170459 0.196659 0.383902
832 1 0.872991 0.131931 0.644256
833 1 0.449077 0.169256 0.648885
834 1 0.935198 0.197431 0.137957
835 1 0.0334961 0.347192 0.254972
836 1 0.522307 0.168151 0.182518
837 1 0.0420114 0.972736 0.0927335
838 1 0.308723 0.470981 0.987475
839 1 0.953571 0.867064 0.0892669
840 1 0.219244 0.0979796 0.142585
841 1 0.237902 0.292058 0.161711
842 1 0.190547 0.164583 0.249901
843 1 0.0761925 0.583566 0.433555
844 1 0.303741 0.289673 0.154635
845 1 0.91557 0.912629 0.589185
846 1 0.36261 0.336633 0.300825
847 1 0.523601 0.258052 0.383111
848 1 0.237579 0.112252 0.817958
849 1 0.303984 0.365394 0.304875
850 1 0.329547 0.128053 0.367519
851 1 0.693135 0.329994 0.761385
852 1 0.975734 0.0478463 0.322685
853 1 0.253068 0.445695 0.753973
854 1 0.320324 0.239878 0.685851
855 1 0.204099 0.00208539 0.365283
856 1 0.290445 0.99524 0.930442
857 1 0.720443 0.0475505 0.0598706
858 1 0.179225 0.161678 0.718543
859 1 0.884137 0.375248 0.126363
860 1 0.590056 0.234529 0.57533
861 1 0.258281 0.174781 0.607486
862 1 0.141741 0.45268 0.138987
863 1 0.546318 0.296932 0.48568
864 1 0.617479 0.186348 0.182605
865 1 0.0485994 0.800799 0.704801
866 1 0.28324 0.121856 0.792619
867 1 0.33602 0.407095 0.691772
868 1 0.178965 0.897736 0.328802
869 1 0.976911 0.975943 0.145493
870 1 0.121775 0.441913 0.335732
871 1 0.949182 0.60449 0.69317
872 1 0.555306 0.0832436 0.960319
873 1 0.910237 0.489839 0.203961
874 1 0.190429 0.625768 0.175743
875 1 0.357273 0.826136 0.0726323
876 1 0.108494 0.329817 0.239793
877 1 0.068505 0.646781 0.259537
878 1 0.956749 0.93049 0.431
879 1 0.114804 0.387361 0.106465
880 1 0.0192184 0.249361 0.0518484
881 1 0.0481443 0.348311 0.604896
882 1 0.579945 0.949731 0.209891
883 1 0.72254 0.068594 0.481716
884 1 0.989155 0.293628 0.25891
885 1 0.167349 0.960357 0.844428
886 1 0.200482 0.255748 0.469241
887 1 0.654491 0.93354 0.472345
888 1 0.187252 0.955828 0.0551236
889 1 0.0064874 0.234605 0.990335
890 1 0.453786 0.146913 0.373757
891 1 0.25072 0.395922 0.307211
892 1 0.171415 0.982179 0.299912
893 1 0.137621 0.0348006 0.292105
894 1 0.311491 0.566384 0.465001
895 1 0.134519 0.260115 0.678352
896 1 0.974796 0.935123 0.605764
897 1 0.368182 0.478163 0.192455
898 1 0.228323 0.429872 0.31062
899 1 0.44255 0.342756 0.38437
900 1 0.473029 0.87079 0.517572
901 1 0.254262 0.550426 0.296405
902 1 0.0325637 0.249202 0.0159927
903 1 0.570734 0.216125 0.336269
904 1 0.617365 0.379321 0.553831
905 1 0.887265 0.293752 0.510023