ITEM: TIMESTEP
146544
ITEM: NUMBER OF ATOMS
10000
ITEM: BOX BOUNDS pp pp pp
-4.0355857172209764e-01 5.8324742177898550e+01
-4.0355857172209764e-01 5.8324742177898550e+01
-4.0355857172209764e-01 7.6527389156680584e+01
ITEM: ATOMS id type xs ys zs
1 1 0.964651 0.0380714 0.201022
2 1 0.769413 0.411699 0.203293
3 1 0.460422 0.517186 0.353199
4 1 0.89329 0.986525 0.361475
5 1 0.268784 0.119944 0.561993
6 1 0.325642 0.868973 0.121215
7 1 0.0183029 0.298092 0.683854
8 1 0.418201 0.151628 0.19758
9 1 0.197971 0.349403 0.351804
10 1 0.143199 0.103226 0.233364
11 1 0.337972 0.205292 0.0960153
12 1 0.248961 0.317883 0.141514
13 1 0.186493 0.439389 0.0713902
14 1 0.0646787 0.386894 0.693116
15 1 0.548162 0.250382 0.334457
16 1 0.3609 0.140985 0.759026
17 1 0.294576 0.239384 0.071797
18 1 0.0459313 0.13944 0.942314
19 1 0.0691976 0.357657 0.375068
20 1 0.278889 0.144855 0.154364
21 1 0.0358001 0.0734058 0.132069
22 1 0.450718 0.074293 0.620968
23 1 0.870911 0.0729713 0.718223
24 1 0.573233 0.130343 0.354138
25 1 0.143485 0.334863 0.300643
26 1 0.723845 0.207394 0.106182
27 1 0.812232 0.114149 0.0513645
28 1 0.213415 0.330437 0.232253
29 1 0.173686 0.133848 0.0563834
30 1 0.159481 0.245477 0.660514
31 1 0.425156 0.15928 0.58587
32 1 0.306934 0.429155 0.0906812
33 1 0.150984 0.459013 0.18475
34 1 0.233896 0.0737052 0.772918
35 1 0.135631 0.28862 0.973275
36 1 0.327928 0.941234 0.0164893
37 1 0.519087 0.0384759 0.0583314
38 1 0.314659 0.548172 0.739836
39 1 0.93463 0.65597 0.144806
40 1 0.947077 0.202775 0.334908
41 1 0.776387 0.484141 0.0560742
42 1 0.889271 0.674203 0.102492
43 1 0.077505 0.20483 0.0531791
44 1 0.363131 0.317874 0.113575
45 1 0.99078 0.794 0.104967
46 1 0.918848 0.469532 0.110857
47 1 0.00104519 0.706336 0.629387
48 1 0.377139 0.528921 0.350754
49 1 0.199593 0.0269347 0.0435963
50 1 0.251116 0.137467 0.176024
51 1 0.540089 0.06588 0.63372
52 1 0.269372 0.0891024 0.710069
53 1 0.345994 0.894395 0.212253
54 1 0.411632 0.441774 0.222252
55 1 0.913477 0.417334 0.405108
56 1 0.150439 0.411894 0.793501
57 1 0.500822 0.231539 0.859598
58 1 0.099948 0.247416 0.680499
59 1 0.711952 0.436149 0.306129
60 1 0.321709 0.185581 0.596564
61 1 0.0644277 0.182962 0.384829
62 1 0.356287 0.390773 0.339273
63 1 0.902182 0.408853 0.210639
64 1 0.959799 0.753624 0.974064
65 1 0.567181 0.471424 0.839917
66 1 0.509362 0.253913 0.129439
67 1 0.288835 0.197361 0.233557
68 1 0.735429 0.338707 0.0588628
69 1 0.872163 0.703459 0.289747
70 1 0.553614 0.304018 0.12675
71 1 0.319952 0.521583 0.153599
72 1 0.0404541 0.147988 0.180587
73 1 0.269748 0.0214383 0.280231
74 1 0.468316 0.352669 0.340424
75 1 0.517515 0.47196 0.168291
76 1 0.464223 0.196601 0.140526
77 1 0.394028 0.255312 0.195687
78 1 0.0430435 0.186972 0.0442629
79 1 0.235828 0.0442807 0.197561
80 1 0.492929 0.231588 0.215958
81 1 0.151609 0.550181 0.0259967
82 1 0.181918 0.435118 0.145905
83 1 0.274542 0.911691 0.0225528
84 1 0.85283 0.40074 0.0564342
85 1 0.148329 0.489889 0.114395
86 1 0.328322 0.324665 0.0727082
87 1 0.574338 0.605593 0.185051
88 1 0.676662 0.183322 0.700788
89 1 0.399792 0.35753 0.180785
90 1 0.297315 0.139408 0.215001
91 1 0.226811 0.221889 0.196302
92 1 0.410554 0.179135 0.73286
93 1 0.380183 0.300329 0.136944
94 1 0.325167 0.206227 0.284
95 1 0.141012 0.641805 0.056715
96 1 0.160802 0.402517 0.631237
97 1 0.808904 0.388452 0.144108
98 1 0.398994 0.416457 0.848879
99 1 0.746877 0.910134 0.366619
100 1 0.15218 0.616241 0.237725
101 1 0.353779 0.370223 0.148288
102 1 0.539067 0.0934493 0.200968
103 1 0.42018 0.088159 0.264847
104 1 0.310588 0.00332911 0.645629
105 1 0.4897 0.240209 0.383732
106 1 0.187345 0.0711114 0.911044
107 1 0.392237 0.376271 0.985153
108 1 0.218493 0.875387 0.209864
109 1 0.21626 0.656074 0.00644104
110 1 0.419103 0.382165 0.33154
111 1 0.27732 0.435211 0.151658
112 1 0.489868 0.38077 0.752322
113 1 0.291841 0.404007 0.136791
114 1 0.292798 0.571653 0.2708
115 1 0.833453 0.966738 0.168047
116 1 0.885894 0.970632 0.22879
117 1 0.454271 0.38138 0.654494
118 1 0.288614 0.245518 0.809552
119 1 0.117682 0.454902 0.20288
120 1 0.411047 0.0919225 0.218815
121 1 0.28434 0.873584 0.231104
122 1 0.898777 0.509479 0.383423
123 1 0.846965 0.816174 0.171733
124 1 0.73519 0.387748 0.247696
125 1 0.197501 0.271525 0.2217
126 1 0.222519 0.114487 0.134183
127 1 0.283508 0.615865 0.145672
128 1 0.549134 0.355216 0.237588
129 1 0.364037 0.352399 0.670449
130 1 0.911506 0.8992 0.350794
131 1 0.0168069 0.328188 0.935517
132 1 0.416656 0.331493 0.834827
133 1 0.749143 0.699066 0.613251
134 1 0.410478 0.553 0.683833
135 1 0.142034 0.673994 0.928277
136 1 0.69497 0.161908 0.227082
137 1 0.129033 0.11747 0.662914
138 1 0.28838 0.104102 0.22856
139 1 0.360237 0.512583 0.156596
140 1 0.306284 0.255937 0.646842
141 1 0.923 0.295715 0.721915
142 1 0.00673338 0.733904 0.608576
143 1 0.0983096 0.0694641 0.129293
144 1 0.957573 0.489866 0.311986
145 1 0.202605 0.309215 0.113195
146 1 0.258808 0.0226712 0.179225
147 1 0.0995946 0.345374 0.259738
148 1 0.360039 0.364438 0.62045
149 1 0.53258 0.211166 0.661855
150 1 0.124408 0.226557 0.256111
151 1 0.835822 0.30436 0.966566
152 1 0.475768 0.474658 0.932186
153 1 0.299648 0.140505 0.304612
154 1 0.247769 0.297911 0.306755
155 1 0.487705 0.146111 0.883888
156 1 0.371793 0.163076 0.666757
157 1 0.449159 0.520331 0.204716
158 1 0.167695 0.483219 0.786331
159 1 0.0827231 0.121 0.0665309
160 1 0.323206 0.927619 0.152489
161 1 0.235553 0.309261 0.192553
162 1 0.970881 0.26079 0.296936
163 1 0.534355 0.575192 0.148854
164 1 0.010299 0.0882582 0.184563
165 1 0.232237 0.129557 0.0922982
166 1 0.282737 0.575465 0.648399
167 1 0.787536 0.227821 0.0291373
168 1 0.321764 0.0901022 0.271067
169 1 0.90245 0.588809 0.271555
170 1 0.536875 0.305965 0.932375
171 1 0.454059 0.307545 0.181427
172 1 0.131662 0.0268582 0.928728
173 1 0.368897 0.230302 0.596502
174 1 0.3728 0.188716 0.0140044
175 1 0.240434 0.238427 0.318922
176 1 0.270129 0.2573 0.94299
177 1 0.608092 0.167312 0.324652
178 1 0.885257 0.280627 0.193548
179 1 0.377062 0.785855 0.149131
180 1 0.365858 0.325973 0.6939
181 1 0.977597 0.35412 0.0800501
182 1 0.51816 0.338465 0.0840068
183 1 0.0477331 0.328671 0.237254
184 1 0.387856 0.266596 0.327336
185 1 0.0170535 0.951762 0.379836
186 1 0.170076 0.491455 0.194857
187 1 0.433174 0.293672 0.157578
188 1 0.167174 0.15308 0.99715
189 1 0.331407 0.292357 0.165798
190 1 0.246221 0.212408 0.170956
191 1 0.185818 0.310107 0.804402
192 1 0.282333 0.789271 0.0976802
193 1 0.584623 0.47746 0.665507
194 1 0.424475 0.628987 0.624583
195 1 0.210386 0.189936 0.582244
196 1 0.645195 0.030075 0.00493358
197 1 0.231127 0.143026 0.00751195
198 1 0.773863 0.145721 0.788504
199 1 0.0773297 0.434917 0.78981
200 1 0.317952 0.222172 0.885767
201 1 0.330398 0.554495 0.0691822
202 1 0.756995 0.282562 0.179793
203 1 0.885513 0.172997 0.0371038
204 1 0.690081 0.0962315 0.323056
205 1 0.198254 0.461005 0.325623
206 1 0.256626 0.666081 0.197366
207 1 0.179082 0.908073 0.0152629
208 1 0.0795123 0.931616 0.135037
209 1 0.415246 0.881142 0.605686
210 1 0.980041 0.499106 0.89888
211 1 0.0475598 0.98126 0.669549
212 1 0.983707 0.963781 0.717846
213 1 0.357625 0.409737 0.243095
214 1 0.48498 0.196697 0.963549
215 1 0.98531 0.918471 0.178313
216 1 0.175026 0.962024 0.0908365
217 1 0.154764 0.865307 0.247904
218 1 0.883135 0.220555 0.254828
219 1 0.257714 0.0799409 0.907772
220 1 0.236735 0.122184 0.28873
221 1 0.846086 0.270472 0.861559
222 1 0.815905 0.204112 0.0183977
223 1 0.169185 0.0523206 0.277371
224 1 0.320543 0.864853 0.159466
225 1 0.402772 0.630474 0.206118
226 1 0.425853 0.370064 0.833809
227 1 0.218474 0.504622 0.125063
228 1 0.134863 0.209784 0.755521
229 1 0.75895 0.350493 0.191447
230 1 0.484386 0.405941 0.317997
231 1 0.216046 0.316997 0.362324
232 1 0.322309 0.231927 0.196816
233 1 0.165374 0.939548 0.668686
234 1 0.514259 0.612856 0.721904
235 1 0.301993 0.843373 0.0335452
236 1 0.357936 0.990616 0.694307
237 1 0.0520866 0.89274 0.216187
238 1 0.161553 0.393681 0.180318
239 1 0.946706 0.205106 0.0536243
240 1 0.855136 0.428924 0.929211
241 1 0.202745 0.306984 0.209205
242 1 0.106972 0.326639 0.211933
243 1 0.764974 0.274526 0.111088
244 1 0.430958 0.424328 0.0660753
245 1 0.909502 0.299057 0.675628
246 1 0.108454 0.219217 0.181019
247 1 0.450141 0.70842 0.261652
248 1 0.220941 0.373911 0.0210491
249 1 0.516356 0.831703 0.225355
250 1 0.93747 0.656285 0.589067
251 1 0.657074 0.965939 0.0604782
252 1 0.283798 0.885593 0.998848
253 1 0.365564 0.941396 0.976453
254 1 0.231288 0.0821662 0.627887
255 1 0.613533 0.358904 0.18424
256 1 0.134336 0.563654 0.0918684
257 1 0.485249 0.0920682 0.626548
258 1 0.517194 0.907494 0.91766
259 1 0.573795 0.572846 0.203076
260 1 0.479113 0.30476 0.245615
261 1 0.107873 0.0668978 0.0150496
262 1 0.226459 0.260774 0.138405
263 1 0.349221 0.401048 0.697161
264 1 0.406581 0.849792 0.92669
265 1 0.442512 0.976438 0.870835
266 1 0.502988 0.119194 0.113757
267 1 0.289714 0.389211 0.86799
268 1 0.223857 0.415952 0.350419
269 1 0.883648 0.024817 0.681339
270 1 0.148814 0.682014 0.221469
271 1 0.320695 0.0564265 0.133165
272 1 0.331186 0.565719 0.0985935
273 1 0.504802 0.243698 0.0765329
274 1 0.276759 0.0750531 0.210214
275 1 0.367915 0.407364 0.149154
276 1 0.605391 0.933655 0.613145
277 1 0.765467 0.348363 0.10257
278 1 0.608106 0.545506 0.58967
279 1 0.703403 0.243058 0.292383
280 1 0.00815387 0.322824 0.320561
281 1 0.949934 0.516085 0.083101
282 1 0.284088 0.528194 0.109628
283 1 0.322892 0.958994 0.600539
284 1 0.506667 0.921703 0.61622
285 1 0.547336 0.227954 0.359955
286 1 0.150205 0.160383 0.618246
287 1 0.108296 0.179119 0.284729
288 1 0.425549 0.726681 0.140474
289 1 0.320771 0.311556 0.190926
290 1 0.287541 0.0356583 0.940966
291 1 0.817163 0.473399 0.146541
292 1 0.259106 0.347157 0.0959733
293 1 0.413252 0.874802 0.195231
294 1 0.164187 0.487543 0.251965
295 1 0.493885 0.266691 0.202757
296 1 0.981708 0.921771 0.208359
297 1 0.471525 0.224985 0.668759
298 1 0.140887 0.995207 0.143404
299 1 0.396214 0.354787 0.225114
300 1 0.596677 0.969783 0.249782
301 1 0.0439731 0.521924 0.119267
302 1 0.440693 0.117737 0.0928478
303 1 0.167338 0.186996 0.754888
304 1 0.252519 0.320385 0.000934988
305 1 0.448719 0.0277369 0.283451
306 1 0.0207978 0.300141 0.0798541
307 1 0.344833 0.561672 0.662059
308 1 0.175924 0.29413 0.133925
309 1 0.368653 0.681891 0.107945
310 1 0.885702 0.4293 0.0133186
311 1 0.816653 0.362275 0.821046
312 1 0.12203 0.400336 0.668267
313 1 0.27611 0.413897 0.284681
314 1 0.74529 0.0229389 0.90263
315 1 0.490297 0.363563 0.171606
316 1 0.37988 0.388595 0.0588457
317 1 0.243071 0.312187 0.928387
318 1 0.0411007 0.130331 0.387431
319 1 0.163784 0.100162 0.176998
320 1 0.435616 0.162642 0.672223
321 1 0.340372 0.796723 0.140514
322 1 0.0692857 0.28503 0.201818
323 1 0.319133 0.0840006 0.241091
324 1 0.923461 0.190353 0.288636
325 1 0.191602 0.228766 0.250811
326 1 0.419219 0.323234 0.189987
327 1 0.434079 0.0691362 0.201069
328 1 0.488931 0.180493 0.248617
329 1 0.183159 0.359582 0.142291
330 1 0.33707 0.361953 0.217291
331 1 0.195983 0.349421 0.113332
332 1 0.907732 0.585182 0.152701
333 1 0.10936 0.359764 0.00942427
334 1 0.612925 0.325595 0.275334
335 1 0.529945 0.601367 0.997219
336 1 0.956254 0.968858 0.17177
337 1 0.973662 0.178237 0.809005
338 1 0.408745 0.348885 0.0872508
339 1 0.33973 0.151124 0.112602
340 1 0.341482 0.486174 0.313641
341 1 0.178553 0.982146 0.141721
342 1 0.282881 0.369097 0.0782317
343 1 0.488071 0.0266543 0.285989
344 1 0.721387 0.498144 0.0623595
345 1 0.383267 0.203583 0.135098
346 1 0.315548 0.0296118 0.197837
347 1 0.520078 0.539121 0.156069
348 1 0.95531 0.414006 0.306996
349 1 0.955775 0.598728 0.95997
350 1 0.87447 0.45944 0.0565816
351 1 0.31369 0.185972 0.898944
352 1 0.154402 0.956457 0.204836
353 1 0.332617 0.888217 0.724034
354 1 0.170545 0.00892953 0.705564
355 1 0.386462 0.16589 0.594824
356 1 0.707918 0.493442 0.21348
357 1 0.406216 0.51865 0.128699
358 1 0.230955 0.760505 0.758923
359 1 0.660988 0.101605 0.616338
360 1 0.0805634 0.128678 0.125418
361 1 0.898225 0.774614 0.287688
362 1 0.421732 0.304289 0.672738
363 1 0.718332 0.265615 0.314315
364 1 0.362027 0.146465 0.160595
365 1 0.53218 0.354964 0.348227
366 1 0.190192 0.537306 0.813013
367 1 0.369433 0.012091 0.223608
368 1 0.461164 0.984354 0.0104796
369 1 0.261285 0.981246 0.249644
370 1 0.949581 0.171539 0.00824388
371 1 0.692485 0.267541 0.270223
372 1 0.0305308 0.149989 0.0537358
373 1 0.160434 0.111838 0.148409
374 1 0.184982 0.361877 0.189842
375 1 0.52186 0.976094 0.210784
376 1 0.275256 0.448981 0.783611
377 1 0.304235 0.204827 0.056616
378 1 0.311105 0.669851 0.0579953
379 1 0.257774 0.240407 0.209206
380 1 0.368887 0.304871 0.165328
381 1 0.27103 0.990505 0.195681
382 1 0.324083 0.0862247 0.645951
383 1 0.410593 0.402564 0.287012
384 1 0.972013 0.355462 0.285942
385 1 0.328717 0.0153733 0.556422
386 1 0.121714 0.395567 0.218761
387 1 0.29143 0.302662 0.211129
388 1 0.586116 0.468823 0.234055
389 1 0.312838 0.405736 0.914126
390 1 0.985109 0.561914 0.927299
391 1 0.430836 0.545459 0.709975
392 1 0.169313 0.326844 0.197247
393 1 0.116502 0.172967 0.0832832
394 1 0.981236 0.582519 0.676025
395 1 0.238929 0.926554 0.0169744
396 1 0.507574 0.122317 0.344716
397 1 0.992062 0.815775 0.227466
398 1 0.699714 0.0172516 0.0824551
399 1 0.560335 0.25684 0.0970081
400 1 0.819603 0.973665 0.0523558
401 1 0.517927 0.0748356 0.312688
402 1 0.265629 0.489405 0.0304959
403 1 0.536767 0.413619 0.777035
404 1 0.702783 0.347008 0.217897
405 1 0.719684 0.104369 0.772825
406 1 0.540708 0.981324 0.183866
407 1 0.596976 0.439883 0.32383
408 1 0.138805 0.0645271 0.695334
409 1 0.131663 0.334285 0.943584
410 1 0.841347 0.76201 0.0196472
411 1 0.309101 0.163967 0.238119
412 1 0.955625 0.35208 0.932624
413 1 0.276535 0.659625 0.644974
414 1 0.18396 0.306254 0.889516
415 1 0.0978127 0.0393266 0.223769
416 1 0.904468 0.960394 0.833461
417 1 0.0502062 0.0752802 0.228891
418 1 0.118569 0.203122 0.230305
419 1 0.577579 0.571234 0.5892
420 1 0.084728 0.210666 0.909604
421 1 0.165609 0.0342861 0.0845531
422 1 0.564445 0.944623 0.642375
423 1 0.82612 0.198371 0.383841
424 1 0.0291107 0.109812 0.22585
425 1 0.170117 0.112877 0.254644
426 1 0.011218 0.344574 0.0189957
427 1 0.108809 0.976113 0.753994
428 1 0.0567987 0.000650616 0.248458
429 1 0.0984432 0.244886 0.0922651
430 1 0.299956 0.609317 0.0498528
431 1 0.414904 0.989621 0.609318
432 1 0.278594 0.418431 0.0476832
433 1 0.746419 0.973329 0.0807149
434 1 0.401313 0.303452 0.258881
435 1 0.107328 0.135479 0.20029
436 1 0.0279463 0.188637 0.326359
437 1 0.279068 0.311183 0.159711
438 1 0.230435 0.403291 0.113452
439 1 0.973847 0.222155 0.133169
440 1 0.246425 0.214708 0.60375
441 1 0.293144 0.0856305 0.130084
442 1 0.171336 0.505248 0.0928827
443 1 0.218073 0.243982 0.702343
444 1 0.131415 0.892063 0.59026
445 1 0.516944 0.408232 0.139214
446 1 0.0486945 0.483941 0.371478
447 1 0.2203 0.0765825 0.960081
448 1 0.237008 0.450914 0.259723
449 1 0.36328 0.597844 0.667918
450 1 0.392971 0.427334 0.247042
451 1 0.632919 0.994838 0.19979
452 1 0.261959 0.571652 0.622205
453 1 0.0513266 0.140123 0.0780145
454 1 0.69691 0.985853 0.240559
455 1 0.573697 0.383145 0.11553
456 1 0.31809 0.475575 0.117851
457 1 0.227295 0.129591 0.23133
458 1 0.548108 0.33832 0.20938
459 1 0.353013 0.0967611 0.0947507
460 1 0.43748 0.30814 0.306795
461 1 0.79498 0.791766 0.910463
462 1 0.486942 0.400366 0.0057964
463 1 0.00895467 0.948131 0.218685
464 1 0.0590523 0.240259 0.238487
465 1 0.978436 0.192305 0.906094
466 1 0.553133 0.321944 0.309367
467 1 0.383564 0.0539158 0.9804
468 1 0.622741 0.172592 0.865346
469 1 0.151901 0.477738 0.6986
470 1 0.30245 0.175913 0.163629
471 1 0.426238 0.997771 0.580159
472 1 0.992865 0.0614496 0.0991813
473 1 0.239058 0.0723518 0.255078
474 1 0.380393 0.08642 0.262927
475 1 0.426244 0.142371 0.0355192
476 1 0.759325 0.149786 0.207967
477 1 0.827739 0.688101 0.3375
478 1 0.267439 0.28217 0.101378
479 1 0.28676 0.0181281 0.0962035
480 1 0.720005 0.150127 0.3308
481 1 0.416454 0.163037 0.0601732
482 1 0.685283 0.194643 0.141101
483 1 0.754467 0.164957 0.252007
484 1 0.386146 0.288794 0.922149
485 1 0.113432 0.278278 0.305657
486 1 0.455617 0.265907 0.145031
487 1 0.326642 0.236439 0.812356
488 1 0.856668 0.180898 0.28808
489 1 0.757478 0.604074 0.249738
490 1 0.404833 0.478538 0.599829
491 1 0.323828 0.0274291 0.667662
492 1 0.37805 0.4251 0.292572
493 1 0.342336 0.443771 0.724473
494 1 0.202549 0.486927 0.0268342
495 1 0.312928 0.0952538 0.767354
496 1 0.195896 0.304371 0.833664
497 1 0.018194 0.220019 0.834197
498 1 0.0300049 0.433063 0.277002
499 1 0.29962 0.358429 0.715556
500 1 0.607107 0.48102 0.091478
501 1 0.982904 0.192142 0.0458348
502 1 0.0397928 0.116955 0.0362384
503 1 0.254135 0.00718248 0.0808275
504 1 0.733687 0.978378 0.299386
505 1 0.493754 0.0176787 0.874778
506 1 0.233 0.303691 0.707883
507 1 0.376432 0.316856 0.803137
508 1 0.181296 0.330402 0.0519596
509 1 0.0393483 0.546196 0.905024
510 1 0.318489 0.364404 0.992619
511 1 0.299004 0.251301 0.0256323
512 1 0.962156 0.349995 0.121748
513 1 0.900062 0.341053 0.207144
514 1 0.65032 0.337383 0.986243
515 1 0.288206 0.0377753 0.219773
516 1 0.340509 0.391464 0.0623926
517 1 0.113561 0.216193 0.954385
518 1 0.289423 0.530388 0.314071
519 1 0.158125 0.783383 0.226327
520 1 0.593982 0.444941 0.293139
521 1 0.328319 0.133864 0.196476
522 1 0.344284 0.844259 0.0768225
523 1 0.0321507 0.40546 0.317211
524 1 0.137016 0.332281 0.858721
525 1 0.374794 0.760852 0.194836
526 1 0.383062 0.964762 0.844342
527 1 0.135768 0.288609 0.379813
528 1 0.516454 0.431258 0.166519
529 1 0.543296 0.184661 0.183532
530 1 0.293171 0.963837 0.0529749
531 1 0.102501 0.330198 0.0543055
532 1 0.482049 0.750492 0.285575
533 1 0.108631 0.544298 0.109617
534 1 0.183747 0.218098 0.160447
535 1 0.570065 0.212943 0.652704
536 1 0.93998 0.329022 0.10246
537 1 0.140558 0.131421 0.893759
538 1 0.607792 0.918647 0.155076
539 1 0.495801 0.0397276 0.241639
540 1 0.205734 0.0993208 0.823779
541 1 0.920906 0.962319 0.86127
542 1 0.17847 0.369832 0.0202009
543 1 0.230264 0.454334 0.211203
544 1 0.194129 0.21176 0.742379
545 1 0.331953 0.426036 0.0224967
546 1 0.480614 0.421581 0.132479
547 1 0.385431 0.269652 0.727247
548 1 0.663245 0.358287 0.220627
549 1 0.719519 0.938562 0.802428
550 1 0.892267 0.208925 0.735741
551 1 0.260102 0.584876 0.182397
552 1 0.255566 0.385862 0.134045
553 1 0.774996 0.10279 0.992287
554 1 0.587491 0.958971 0.971774
555 1 0.467679 0.383636 0.876762
556 1 0.202989 0.292495 0.0860236
557 1 0.271282 0.370668 0.928401
558 1 0.940595 0.391763 0.179186
559 1 0.602223 0.319754 0.186376
560 1 0.69692 0.111621 0.26231
561 1 0.832764 0.299152 0.819897
562 1 0.195946 0.408333 0.372606
563 1 0.327141 0.147629 0.605174
564 1 0.180766 0.0169734 0.190289
565 1 0.0924651 0.199836 0.12713
566 1 0.418393 0.592472 0.255435
567 1 0.417297 0.321401 0.723785
568 1 0.155551 0.893988 0.175995
569 1 0.970963 0.327119 0.206228
570 1 0.225004 0.0621236 0.559399
571 1 0.411663 0.53228 0.966985
572 1 0.101564 0.288277 0.218642
573 1 0.552452 0.346351 0.284868
574 1 0.456517 0.428223 0.967554
575 1 0.985594 0.113973 0.0161869
576 1 0.255244 0.107529 0.245692
577 1 0.813648 0.585007 0.238837
578 1 0.408762 0.881783 0.0939162
579 1 0.684983 0.167807 0.832634
580 1 0.0832812 0.312315 0.159965
581 1 0.579245 0.148454 0.629044
582 1 0.12855 0.187373 0.167712
583 1 0.265234 0.856468 0.181403
584 1 0.482629 0.150817 0.0694112
585 1 0.120631 0.541636 0.83286
586 1 0.344941 0.538433 0.28813
587 1 0.555452 0.487012 0.174011
588 1 0.0463021 0.579779 0.240947
589 1 0.900449 0.396394 0.942459
590 1 0.402274 0.826715 0.575663
591 1 0.286086 0.0865107 0.282445
592 1 0.11764 0.522559 0.0633395
593 1 0.041196 0.829831 0.00642683
594 1 0.107244 0.637418 0.758396
595 1 0.930592 0.888504 0.0480254
596 1 0.904279 0.160576 0.241088
597 1 0.115008 0.431926 0.122818
598 1 0.197013 0.665227 0.669402
599 1 0.108648 0.142798 0.909874
600 1 0.897246 0.297521 0.972879
601 1 0.435998 0.204297 0.223209
602 1 0.935316 0.348734 0.27528
603 1 0.426104 0.585507 0.116119
604 1 0.30825 0.542654 0.197583
605 1 0.039384 0.58959 0.0384005
606 1 0.623484 0.516845 0.0931119
607 1 0.416533 0.369024 0.302604
608 1 0.122379 0.58086 0.891213
609 1 0.174255 0.427887 0.193695
610 1 0.134743 0.332546 0.098566
611 1 0.267056 0.997639 0.0529608
612 1 0.200357 0.152963 0.0955658
613 1 0.366676 0.303217 0.897358
614 1 0.212855 0.247175 0.618721
615 1 0.130913 0.308348 0.777632
616 1 0.480579 0.957581 0.0796411
617 1 0.179761 0.257563 0.305232
618 1 0.96815 0.000244003 0.056676
619 1 0.164925 0.358279 0.0948413
620 1 0.172123 0.530179 0.362969
621 1 0.308974 0.251146 0.122647
622 1 0.0914786 0.485379 0.206157
623 1 0.518078 0.620843 0.250251
624 1 0.410003 0.481918 0.139968
625 1 0.230778 0.314598 0.629593
626 1 0.0790898 0.0894087 0.441752
627 1 0.384941 0.211688 0.952158
628 1 0.364911 0.839663 0.182055
629 1 0.780854 0.2879 0.312624
630 1 0.594611 0.183484 0.709887
631 1 0.47257 0.20596 0.866336
632 1 0.203016 0.212436 0.277201
633 1 0.0898414 0.307857 0.733183
634 1 0.726748 0.691587 0.174916
635 1 0.685883 0.413339 0.919318
636 1 0.294166 0.424572 0.676236
637 1 0.335434 0.288912 0.958716
638 1 0.141839 0.0337905 0.150629
639 1 0.153052 0.263383 0.0980454
640 1 0.367798 0.469218 0.332446
641 1 0.493297 0.0088162 0.582499
642 1 0.114115 0.395173 0.351246
643 1 0.437169 0.959954 0.571639
644 1 0.756641 0.260745 0.893741
645 1 0.341749 0.608862 0.211609
646 1 0.048893 0.17258 0.705725
647 1 0.440622 0.0318472 0.21082
648 1 0.385366 0.461921 0.205862
649 1 0.142193 0.273803 0.179873
650 1 0.335739 0.995936 0.113735
651 1 0.234775 0.366537 0.971567
652 1 0.109138 0.836586 0.99362
653 1 0.337376 0.135898 0.985417
654 1 0.249391 0.369024 0.258181
655 1 0.474715 0.338085 0.952045
656 1 0.162679 0.248044 0.796861
657 1 0.247824 0.13991 0.930648
658 1 0.195258 0.508204 0.952652
659 1 0.990629 0.0093956 0.0323231
660 1 0.149821 0.457915 0.672569
661 1 0.329245 0.184072 0.944778
662 1 0.254009 0.344433 0.200057
663 1 0.764385 0.895003 0.253536
664 1 0.40437 0.274007 0.279486
665 1 0.478229 0.425098 0.207958
666 1 0.982077 0.66585 0.0630073
667 1 0.27161 0.316253 0.269539
668 1 0.910409 0.303495 0.146225
669 1 0.321724 0.391171 0.886959
670 1 0.83491 0.124312 0.40506
671 1 0.147511 0.58179 0.252827
672 1 0.860194 0.590379 0.644797
673 1 0.0759845 0.524302 0.243727
674 1 0.527842 0.214312 0.220006
675 1 0.417469 0.0911356 0.0767927
676 1 0.188117 0.3706 0.375611
677 1 0.172906 0.808211 0.0940319
678 1 0.0154029 0.645857 0.913665
679 1 0.278078 0.271874 0.170203
680 1 0.958199 0.335316 0.700223
681 1 0.912508 0.378748 0.681958
682 1 0.207716 0.114397 0.0479433
683 1 0.0907846 0.639611 0.308569
684 1 0.00489457 0.664702 0.197049
685 1 0.284247 0.955778 0.0942355
686 1 0.595972 0.397835 0.36101
687 1 0.433152 0.566682 0.970213
688 1 0.0627806 0.342848 0.770201
689 1 0.557917 0.246763 0.860586
690 1 0.0458359 0.063921 0.394464
691 1 0.476679 0.20125 0.292809
692 1 0.601552 0.249726 0.379465
693 1 0.277396 0.336244 0.223129
694 1 0.21756 0.488804 0.224043
695 1 0.382943 0.257671 0.0990147
696 1 0.845045 0.121438 0.863384
697 1 0.0503379 0.432849 0.158663
698 1 0.575913 0.938565 0.927471
699 1 0.271799 0.117711 0.978006
700 1 0.221381 0.315214 0.164094
701 1 0.6025 0.723402 0.776957
702 1 0.915101 0.351681 0.0847111
703 1 0.59607 0.444073 0.636829
704 1 0.370164 0.31895 0.309654
705 1 0.183957 0.0292396 0.255914
706 1 0.17699 0.264372 0.0511229
707 1 0.996352 0.174205 0.929503
708 1 0.148839 0.508113 0.909098
709 1 0.102481 0.492544 0.0808399
710 1 0.256509 0.511219 0.622009
711 1 0.823141 0.91497 0.935622
712 1 0.307313 0.322386 0.725982
713 1 0.874703 0.239556 0.12601
714 1 0.35552 0.396515 0.214211
715 1 0.630294 0.0618384 0.189855
716 1 0.0259571 0.537164 0.0751148
717 1 0.245486 0.885484 0.231426
718 1 0.221223 0.90117 0.160947
719 1 0.0696984 0.340136 0.0917253
720 1 0.0435052 0.375544 0.268334
721 1 0.111086 0.463372 0.66758
722 1 0.470022 0.333513 0.788703
723 1 0.169551 0.278141 0.845187
724 1 0.48453 0.102707 0.811221
725 1 0.846625 0.721334 0.180957
726 1 0.494408 0.0839182 0.597638
727 1 0.101804 0.366394 0.17288
728 1 0.591548 0.0809946 0.0937899
729 1 0.236327 0.84604 0.660866
730 1 0.186312 0.201928 0.228226
731 1 0.399898 0.132299 0.0147429
732 1 0.298927 0.149243 0.266456
733 1 0.511249 0.616802 0.187548
734 1 0.132623 0.396994 0.130382
735 1 0.0904429 0.239149 0.121922
736 1 0.922264 0.718423 0.580246
737 1 0.974682 0.777861 0.150926
738 1 0.213827 0.229151 0.591024
739 1 0.13327 0.159408 0.013001
740 1 0.428348 0.334268 0.261667
741 1 0.23013 0.785782 0.124241
742 1 0.458139 0.386608 0.172244
743 1 0.101985 0.302933 0.133937
744 1 0.427983 0.824093 0.0960073
745 1 0.999568 0.296779 0.343782
746 1 0.760503 0.419466 0.346743
747 1 0.349798 0.428929 0.170711
748 1 0.527255 0.14375 0.29129
749 1 0.928201 0.073 0.736557
750 1 0.0565964 0.594845 0.0915625
751 1 0.843264 0.213923 0.301456
752 1 0.08177 0.190144 0.220977
753 1 0.402397 0.289369 0.178134
754 1 0.895426 0.981968 0.997593
755 1 0.325129 0.0578013 0.0202026
756 1 0.472903 0.441341 0.0378136
757 1 0.263337 0.211888 0.106701
758 1 0.0889789 0.284789 0.687787
759 1 0.436114 0.322979 0.696996
760 1 0.393942 0.119207 0.199934
761 1 0.0267909 0.264081 0.952297
762 1 0.481221 0.200942 0.111645
763 1 0.0016739 0.126334 0.700525
764 1 0.106909 0.0970259 0.243725
765 1 0.930099 0.56203 0.115986
766 1 0.342014 0.542953 0.246757
767 1 0.989889 0.0313256 0.365503
768 1 0.288881 0.401985 0.226667
769 1 0.0730972 0.350358 0.999017
770 1 0.425726 0.000285953 0.193977
771 1 0.514231 0.419366 0.195874
772 1 0.26147 0.639957 0.244524
773 1 0.228152 0.0370523 0.0859504
774 1 0.205017 0.576905 0.165119
775 1 0.251196 0.332426 0.245685
776 1 0.666411 0.293648 0.281629
777 1 0.0763084 0.305481 0.934964
778 1 0.0915636 0.588836 0.991312
779 1 0.981643 0.28044 0.688716
780 1 0.822287 0.401572 0.109015
781 1 0.341265 0.619684 0.687924
782 1 0.981681 0.173746 0.19053
783 1 0.318525 0.970398 0.282651
784 1 0.873599 0.085179 0.132251
785 1 0.440358 0.326257 0.332859
786 1 0.981968 0.880017 0.858367
787 1 0.13189 0.0586612 0.313582
788 1 0.485209 0.0240932 0.0952352
789 1 0.161752 0.38241 0.874052
790 1 0.392121 0.140174 0.711986
791 1 0.25041 0.992342 0.136638
792 1 0.128487 0.426103 0.306095
793 1 0.240599 0.43021 0.04288
794 1 0.49219 0.107134 0.317891
795 1 0.560342 0.0349537 0.645761
796 1 0.188449 0.164874 0.123014
797 1 0.427914 0.252155 0.126281
798 1 0.391175 0.214673 0.0329807
799 1 0.048779 0.475659 0.985521
800 1 0.0945914 0.251541 0.990127
801 1 0.462144 0.0634265 0.584725
802 1 0.385557 0.609428 0.290789
803 1 0.93216 0.502881 0.00719776
804 1 0.375972 0.0369211 0.133059
805 1 0.720315 0.145679 0.0958363
806 1 0.541368 0.275917 0.235141
807 1 0.119693 0.310719 0.26024
808 1 0.865437 0.333505 0.0639181
809 1 0.987686 0.146668 0.344823
810 1 0.142291 0.600493 0.295527
811 1 0.186813 0.312442 0.00580276
812 1 0.211888 0.187067 0.0831162
813 1 0.751727 0.189379 0.206337
814 1 0.250362 0.19285 0.242746
815 1 0.142011 0.992967 0.301046
816 1 0.563403 0.165821 0.869566
817 1 0.375112 0.47274 0.955754
818 1 0.478458 0.389259 0.270837
819 1 0.0442019 0.00479374 0.378482
820 1 0.552869 0.616321 0.102198
821 1 0.175777 0.128143 0.198534
822 1 0.241867 0.465622 0.987585
823 1 0.355565 0.733746 0.606324
824 1 0.29654 0.937743 0.118363
825 1 0.270727 0.177475 0.810761
826 1 0.257205 0.24413 0.153738
827 1 0.454853 0.271272 0.196782
828 1 0.318709 0.724331 0.169865
829 1 0.151434 0.261554 0.12818
830 1 0.919239 0.536136 0.298435
831 1 0.170486 0.195208 0.289696
832 1 0.874991 0.135652 0.727258
833 1 0.4498 0.167694 0.726033
834 1 0.936101 0.196774 0.102304
835 1 0.0337788 0.347324 0.19296
836 1 0.522513 0.1685 0.136998
837 1 0.0422703 0.9733 0.0691265
838 1 0.308163 0.471356 0.98908
839 1 0.953467 0.866442 0.0660756
840 1 0.2194 0.0973338 0.106199
841 1 0.238043 0.291452 0.121286
842 1 0.190312 0.163858 0.189423
843 1 0.080039 0.58214 0.327555
844 1 0.303016 0.289317 0.11677
845 1 0.91493 0.914837 0.682229
846 1 0.362175 0.334972 0.227466
847 1 0.522856 0.259069 0.288154
848 1 0.240502 0.115023 0.859817
849 1 0.303266 0.364773 0.23219
850 1 0.329913 0.127428 0.275503
851 1 0.692806 0.330567 0.814518
852 1 0.973868 0.0475303 0.243745
853 1 0.253141 0.447362 0.809859
854 1 0.322487 0.242855 0.759645
855 1 0.203631 0.00305693 0.272972
856 1 0.286725 0.994603 0.940002
857 1 0.720741 0.0457622 0.043772
858 1 0.17897 0.165812 0.780972
859 1 0.885279 0.375636 0.0939618
860 1 0.593323 0.230882 0.673252
861 1 0.259632 0.176337 0.700057
862 1 0.142252 0.451792 0.105772
863 1 0.544534 0.298896 0.3655
864 1 0.617297 0.185025 0.138226
865 1 0.0484736 0.802791 0.773527
866 1 0.286308 0.123635 0.839614
867 1 0.33798 0.408595 0.763981
868 1 0.178901 0.896354 0.24924
869 1 0.977024 0.974795 0.108857
870 1 0.121732 0.44085 0.254869
871 1 0.949492 0.60498 0.765942
872 1 0.555134 0.0829314 0.968793
873 1 0.911722 0.489197 0.156147
874 1 0.192235 0.625212 0.135119
875 1 0.357116 0.824787 0.0522961
876 1 0.108731 0.329047 0.180717
877 1 0.0693921 0.645722 0.196523
878 1 0.956216 0.932308 0.326658
879 1 0.11509 0.38749 0.0802681
880 1 0.019991 0.249405 0.0373912
881 1 0.0519277 0.34973 0.698418
882 1 0.581268 0.948795 0.155954
883 1 0.721362 0.0708243 0.364141
884 1 0.988229 0.294308 0.194905
885 1 0.167283 0.959948 0.878592
886 1 0.189871 0.258321 0.362683
887 1 0.64549 0.921318 0.351618
888 1 0.186867 0.955236 0.0403438
889 1 0.00750427 0.234279 0.989247
890 1 0.453888 0.141258 0.281218
891 1 0.250907 0.395873 0.234379
892 1 0.171067 0.980505 0.227008
893 1 0.137195 0.0342864 0.221203
894 1 0.32372 0.573895 0.349153
895 1 0.135778 0.264118 0.752779
896 1 0.97461 0.938292 0.695085
897 1 0.370733 0.475132 0.148811
898 1 0.228255 0.428884 0.235705
899 1 0.442699 0.341837 0.28991
900 1 0.473472 0.872074 0.632173
901 1 0.253931 0.549817 0.22371
902 1 0.0333658 0.249697 0.00876005
903 1 0.57009 0.218139 0.251596