ITEM: TIMESTEP
63752
ITEM: NUMBER OF ATOMS
10000
ITEM: BOX BOUNDS pp pp pp
-4.0355857172209764e-01 5.8324742177898550e+01
-4.0355857172209764e-01 5.8324742177898550e+01
-4.0355857172209764e-01 6.6477462527300432e+01
ITEM: ATOMS id type xs ys zs
1 1 0.965139 0.0380803 0.234077
2 1 0.769578 0.411742 0.235844
3 1 0.461138 0.518454 0.408433
4 1 0.895261 0.98607 0.420217
5 1 0.268363 0.119385 0.495707
6 1 0.32578 0.869044 0.140737
7 1 0.0177594 0.297934 0.637281
8 1 0.418738 0.152189 0.229786
9 1 0.198784 0.349733 0.406375
10 1 0.14361 0.103174 0.27043
11 1 0.338289 0.205386 0.112183
12 1 0.249267 0.317937 0.164423
13 1 0.186542 0.439332 0.0834635
14 1 0.0643905 0.386627 0.64782
15 1 0.546456 0.254303 0.39029
16 1 0.360246 0.140838 0.723136
17 1 0.294796 0.239418 0.0841385
18 1 0.0458393 0.139322 0.934948
19 1 0.0700037 0.358061 0.433292
20 1 0.279215 0.145024 0.179212
21 1 0.0359553 0.0735026 0.153915
22 1 0.450111 0.0739647 0.564508
23 1 0.870344 0.0728065 0.677135
24 1 0.579181 0.141054 0.429988
25 1 0.144109 0.334997 0.347434
26 1 0.72388 0.207421 0.124542
27 1 0.812233 0.114148 0.0611906
28 1 0.213747 0.33064 0.26885
29 1 0.173739 0.133832 0.0663748
30 1 0.158715 0.244872 0.609026
31 1 0.425589 0.158824 0.523496
32 1 0.307109 0.429106 0.105867
33 1 0.151083 0.459122 0.214097
34 1 0.233131 0.0738022 0.73877
35 1 0.135581 0.288503 0.970497
36 1 0.327919 0.941229 0.0201058
37 1 0.519209 0.03858 0.0688831
38 1 0.314525 0.547849 0.701193
39 1 0.934795 0.656057 0.167949
40 1 0.948369 0.202937 0.388402
41 1 0.776342 0.484087 0.0659199
42 1 0.8893 0.674308 0.119152
43 1 0.0775406 0.204758 0.0628143
44 1 0.36345 0.317911 0.132614
45 1 0.990836 0.794156 0.122176
46 1 0.918917 0.469435 0.129048
47 1 0.000802808 0.706488 0.572732
48 1 0.377104 0.529553 0.40523
49 1 0.19966 0.0268458 0.0515432
50 1 0.251463 0.137597 0.204143
51 1 0.539551 0.0655441 0.579545
52 1 0.268288 0.0892528 0.666079
53 1 0.346333 0.894536 0.245574
54 1 0.411993 0.441969 0.258116
55 1 0.915325 0.424403 0.469427
56 1 0.150377 0.411658 0.763179
57 1 0.500542 0.231332 0.83953
58 1 0.0993611 0.247194 0.632836
59 1 0.712304 0.436813 0.35389
60 1 0.322818 0.18589 0.534602
61 1 0.0680199 0.183606 0.446422
62 1 0.356215 0.391382 0.392789
63 1 0.902452 0.408834 0.24409
64 1 0.959627 0.753549 0.971192
65 1 0.566836 0.4712 0.816676
66 1 0.509492 0.254028 0.151387
67 1 0.289259 0.197577 0.270446
68 1 0.735367 0.338511 0.069587
69 1 0.872538 0.703848 0.334645
70 1 0.553687 0.304109 0.148116
71 1 0.320164 0.521632 0.178293
72 1 0.0407215 0.147909 0.210071
73 1 0.270271 0.0214116 0.323795
74 1 0.469549 0.351558 0.398653
75 1 0.517585 0.47213 0.195816
76 1 0.464229 0.197153 0.16414
77 1 0.394705 0.255684 0.227644
78 1 0.043054 0.1869 0.0525455
79 1 0.236108 0.0443546 0.22884
80 1 0.493253 0.23219 0.25198
81 1 0.151546 0.550137 0.0310316
82 1 0.182069 0.435161 0.169359
83 1 0.274492 0.911722 0.0270907
84 1 0.852797 0.40059 0.0665045
85 1 0.148394 0.489917 0.133017
86 1 0.328531 0.324688 0.0852803
87 1 0.574545 0.605763 0.214891
88 1 0.676231 0.183058 0.656995
89 1 0.400237 0.357688 0.210556
90 1 0.29775 0.139636 0.249082
91 1 0.227175 0.222014 0.22752
92 1 0.409947 0.17874 0.692865
93 1 0.380637 0.30041 0.159522
94 1 0.325293 0.206237 0.328472
95 1 0.140971 0.641796 0.0663797
96 1 0.160589 0.402247 0.576572
97 1 0.808986 0.388336 0.167723
98 1 0.398769 0.416128 0.826743
99 1 0.749098 0.909603 0.424943
100 1 0.15204 0.616253 0.275064
101 1 0.354142 0.370339 0.172495
102 1 0.539486 0.094243 0.234253
103 1 0.4203 0.0883893 0.306229
104 1 0.309221 0.00344433 0.592331
105 1 0.487779 0.241918 0.449843
106 1 0.187168 0.0710375 0.898572
107 1 0.392206 0.37616 0.98424
108 1 0.218731 0.875445 0.242849
109 1 0.21617 0.656067 0.00847247
110 1 0.419018 0.382571 0.385003
111 1 0.277568 0.435284 0.176151
112 1 0.489744 0.380068 0.715089
113 1 0.292128 0.404055 0.15907
114 1 0.292798 0.57186 0.312997
115 1 0.833938 0.967021 0.195826
116 1 0.886533 0.970966 0.266101
117 1 0.45348 0.379912 0.598988
118 1 0.288271 0.245305 0.78137
119 1 0.117781 0.455 0.235018
120 1 0.411592 0.0925365 0.253742
121 1 0.284637 0.873658 0.267197
122 1 0.909047 0.512535 0.450603
123 1 0.847232 0.816467 0.199268
124 1 0.735469 0.387955 0.287013
125 1 0.197802 0.271622 0.256694
126 1 0.222731 0.114536 0.155969
127 1 0.283611 0.615889 0.168927
128 1 0.549147 0.355492 0.2765
129 1 0.363818 0.351618 0.620803
130 1 0.911274 0.900477 0.407167
131 1 0.016708 0.328039 0.927118
132 1 0.416422 0.331228 0.810534
133 1 0.745462 0.698141 0.55428
134 1 0.410475 0.552139 0.636247
135 1 0.141795 0.673939 0.918295
136 1 0.695049 0.162293 0.26475
137 1 0.127489 0.117819 0.611366
138 1 0.288793 0.104239 0.264542
139 1 0.360459 0.512662 0.181868
140 1 0.308354 0.254628 0.591161
141 1 0.92264 0.295386 0.681424
142 1 0.00660109 0.734298 0.548682
143 1 0.0984186 0.0694661 0.15055
144 1 0.95866 0.488213 0.360842
145 1 0.20281 0.309209 0.131745
146 1 0.259096 0.0227937 0.207701
147 1 0.100029 0.345455 0.300421
148 1 0.359206 0.363661 0.563257
149 1 0.532361 0.210678 0.611728
150 1 0.124834 0.22654 0.296628
151 1 0.8357 0.304245 0.963075
152 1 0.475657 0.474497 0.923131
153 1 0.299733 0.140471 0.35207
154 1 0.248187 0.298192 0.354424
155 1 0.487421 0.146046 0.867567
156 1 0.371264 0.162734 0.616478
157 1 0.449368 0.520803 0.237476
158 1 0.16746 0.483 0.754911
159 1 0.0827474 0.120953 0.0781628
160 1 0.32344 0.927734 0.176822
161 1 0.235911 0.309393 0.223211
162 1 0.971623 0.260768 0.344685
163 1 0.534519 0.575298 0.173057
164 1 0.0106041 0.0882792 0.214788
165 1 0.232366 0.129612 0.107709
166 1 0.28268 0.575031 0.596102
167 1 0.787431 0.227699 0.0354288
168 1 0.322174 0.0902615 0.313417
169 1 0.902925 0.589129 0.313649
170 1 0.536669 0.305794 0.923568
171 1 0.454391 0.307725 0.211468
172 1 0.13148 0.0267772 0.919036
173 1 0.367156 0.231845 0.51334
174 1 0.372803 0.188765 0.0175402
175 1 0.240663 0.238507 0.368563
176 1 0.270065 0.257212 0.935441
177 1 0.606491 0.167013 0.380634
178 1 0.88555 0.280582 0.224993
179 1 0.377264 0.785932 0.17289
180 1 0.36579 0.325412 0.647912
181 1 0.977632 0.353975 0.0937979
182 1 0.518242 0.338449 0.0986965
183 1 0.0481464 0.328528 0.274704
184 1 0.385141 0.266441 0.378686
185 1 0.0191673 0.951394 0.441141
186 1 0.170108 0.491612 0.225724
187 1 0.433531 0.294104 0.183834
188 1 0.167097 0.153043 0.998038
189 1 0.331887 0.29262 0.192692
190 1 0.246535 0.21252 0.198334
191 1 0.18569 0.309805 0.775636
192 1 0.282418 0.789327 0.113607
193 1 0.582563 0.47402 0.615866
194 1 0.423837 0.628704 0.56855
195 1 0.211314 0.189895 0.518295
196 1 0.645113 0.0300402 0.00738125
197 1 0.231142 0.143024 0.00994849
198 1 0.773453 0.145441 0.758112
199 1 0.0770191 0.434768 0.759053
200 1 0.317752 0.222101 0.86942
201 1 0.330456 0.554493 0.0809117
202 1 0.757133 0.282587 0.209366
203 1 0.885485 0.172897 0.0445902
204 1 0.691054 0.0970189 0.375509
205 1 0.198233 0.461378 0.376283
206 1 0.256702 0.666119 0.228358
207 1 0.179019 0.908049 0.0187312
208 1 0.0795862 0.931783 0.157055
209 1 0.414404 0.88108 0.547079
210 1 0.979807 0.499011 0.884597
211 1 0.0461014 0.981131 0.620227
212 1 0.982956 0.96356 0.676129
213 1 0.358015 0.409928 0.281932
214 1 0.484904 0.196679 0.95952
215 1 0.985547 0.918581 0.207314
216 1 0.17506 0.962073 0.105901
217 1 0.155005 0.865307 0.286745
218 1 0.883795 0.220697 0.296241
219 1 0.257501 0.0798657 0.894849
220 1 0.237274 0.122186 0.333836
221 1 0.845822 0.270284 0.8422
222 1 0.815798 0.204003 0.0229953
223 1 0.169858 0.0522399 0.320941
224 1 0.320819 0.864966 0.184776
225 1 0.40307 0.630606 0.238736
226 1 0.425672 0.369817 0.809392
227 1 0.218575 0.504625 0.145312
228 1 0.13445 0.209653 0.719011
229 1 0.759127 0.350476 0.2225
230 1 0.48427 0.407125 0.369537
231 1 0.216845 0.317273 0.418452
232 1 0.322722 0.23222 0.228299
233 1 0.163562 0.940192 0.61822
234 1 0.513924 0.612296 0.680258
235 1 0.301967 0.843404 0.0397304
236 1 0.356883 0.990692 0.648706
237 1 0.0524054 0.892815 0.250558
238 1 0.161786 0.393802 0.209011
239 1 0.94671 0.205025 0.0635679
240 1 0.854935 0.428837 0.919741
241 1 0.203081 0.307118 0.242361
242 1 0.107281 0.326608 0.245479
243 1 0.764996 0.274425 0.130076
244 1 0.431098 0.424302 0.0777248
245 1 0.908978 0.298589 0.628005
246 1 0.108679 0.219161 0.210132
247 1 0.450209 0.708704 0.302528
248 1 0.221052 0.373832 0.0255446
249 1 0.51676 0.831806 0.260846
250 1 0.948599 0.648159 0.516666
251 1 0.657264 0.966286 0.071441
252 1 0.283679 0.885612 0.999731
253 1 0.365444 0.94143 0.973987
254 1 0.229487 0.0820466 0.571094
255 1 0.613661 0.358947 0.21433
256 1 0.134346 0.563646 0.106939
257 1 0.484693 0.0916103 0.571098
258 1 0.516969 0.907417 0.906416
259 1 0.573899 0.573115 0.235803
260 1 0.479595 0.305323 0.286356
261 1 0.107815 0.066855 0.0187172
262 1 0.226738 0.26083 0.16083
263 1 0.349827 0.400585 0.651588
264 1 0.406368 0.849746 0.916625
265 1 0.442176 0.976373 0.852375
266 1 0.503163 0.119511 0.133064
267 1 0.289611 0.388953 0.848855
268 1 0.223986 0.416441 0.404759
269 1 0.882919 0.0247689 0.634548
270 1 0.148846 0.682045 0.256237
271 1 0.320941 0.0566306 0.154811
272 1 0.331314 0.565667 0.114798
273 1 0.504882 0.243738 0.0900908
274 1 0.277111 0.0752077 0.243427
275 1 0.368217 0.40753 0.173446
276 1 0.604791 0.933569 0.555818
277 1 0.765481 0.348262 0.11991
278 1 0.607291 0.542162 0.523335
279 1 0.7039 0.243904 0.339952
280 1 0.00868415 0.323037 0.370873
281 1 0.949962 0.516035 0.0969578
282 1 0.284199 0.528151 0.127601
283 1 0.321693 0.958966 0.540836
284 1 0.505988 0.921519 0.559291
285 1 0.546183 0.231622 0.41915
286 1 0.144671 0.158677 0.55635
287 1 0.109039 0.178988 0.329817
288 1 0.425768 0.726715 0.163016
289 1 0.321497 0.311675 0.221778
290 1 0.287338 0.0356316 0.93311
291 1 0.817278 0.473413 0.170136
292 1 0.259319 0.347176 0.111963
293 1 0.413605 0.874958 0.226053
294 1 0.164078 0.487858 0.291523
295 1 0.494269 0.267141 0.236491
296 1 0.982038 0.92192 0.241982
297 1 0.471255 0.224368 0.619313
298 1 0.141025 0.995258 0.166653
299 1 0.396852 0.355119 0.261994
300 1 0.597264 0.96999 0.289215
301 1 0.0440254 0.521971 0.138663
302 1 0.440872 0.117896 0.108702
303 1 0.166903 0.186869 0.718014
304 1 0.252549 0.320248 0.00230125
305 1 0.449328 0.0277112 0.327994
306 1 0.020837 0.300017 0.0935565
307 1 0.344843 0.561159 0.6116
308 1 0.176164 0.294133 0.155665
309 1 0.368767 0.681884 0.12547
310 1 0.885607 0.429142 0.0167655
311 1 0.816374 0.362062 0.795402
312 1 0.121827 0.400032 0.619136
313 1 0.276348 0.414272 0.329252
314 1 0.745054 0.0227872 0.889452
315 1 0.490586 0.363722 0.199971
316 1 0.38003 0.388613 0.0692683
317 1 0.242982 0.312046 0.918601
318 1 0.0508703 0.129971 0.453063
319 1 0.16397 0.100181 0.205379
320 1 0.435057 0.162227 0.6232
321 1 0.340555 0.796783 0.162947
322 1 0.0695671 0.28489 0.233984
323 1 0.31956 0.0841354 0.278942
324 1 0.924588 0.190381 0.335154
325 1 0.191943 0.22883 0.290194
326 1 0.419679 0.323503 0.221623
327 1 0.434619 0.0695928 0.233401
328 1 0.489612 0.181537 0.290205
329 1 0.183375 0.359595 0.165251
330 1 0.33754 0.362144 0.252042
331 1 0.196123 0.349424 0.131875
332 1 0.907853 0.585226 0.177046
333 1 0.109366 0.359662 0.0121581
334 1 0.61302 0.326164 0.31992
335 1 0.52993 0.601304 0.998018
336 1 0.956551 0.969011 0.199999
337 1 0.973387 0.178032 0.781506
338 1 0.408918 0.348967 0.102191
339 1 0.33994 0.151232 0.131186
340 1 0.341612 0.486596 0.362624
341 1 0.178719 0.982222 0.164563
342 1 0.283067 0.369114 0.0915053
343 1 0.488679 0.0267272 0.331223
344 1 0.721325 0.498081 0.0732343
345 1 0.384086 0.20378 0.15742
346 1 0.315927 0.0297794 0.229139
347 1 0.520273 0.539214 0.181436
348 1 0.955837 0.414129 0.354059
349 1 0.955615 0.598643 0.954832
350 1 0.874406 0.459335 0.0665289
351 1 0.313491 0.185885 0.88462
352 1 0.154673 0.956484 0.237369
353 1 0.331766 0.888272 0.682956
354 1 0.169294 0.00906752 0.660632
355 1 0.386758 0.165655 0.533195
356 1 0.70811 0.49361 0.247206
357 1 0.406378 0.518665 0.149764
358 1 0.230277 0.760556 0.723123
359 1 0.660428 0.101664 0.559838
360 1 0.080742 0.12856 0.146127
361 1 0.898657 0.774833 0.332767
362 1 0.42167 0.303541 0.623944
363 1 0.719012 0.266558 0.365164
364 1 0.362405 0.146742 0.186571
365 1 0.533236 0.358044 0.406591
366 1 0.189883 0.537166 0.785584
367 1 0.369912 0.0123011 0.258848
368 1 0.461182 0.984417 0.0134399
369 1 0.261672 0.981265 0.28867
370 1 0.949514 0.171424 0.0112202
371 1 0.69283 0.268084 0.314216
372 1 0.0305356 0.149939 0.0635395
373 1 0.16063 0.111862 0.172463
374 1 0.185256 0.361993 0.219987
375 1 0.522287 0.976358 0.244205
376 1 0.275112 0.448678 0.751686
377 1 0.304438 0.204846 0.0666532
378 1 0.31113 0.669848 0.0678702
379 1 0.258145 0.240564 0.242389
380 1 0.369415 0.305145 0.192222
381 1 0.27137 0.990613 0.226599
382 1 0.322841 0.0862566 0.592505
383 1 0.410932 0.402889 0.333106
384 1 0.972618 0.355344 0.33071
385 1 0.327579 0.0151238 0.490222
386 1 0.122005 0.395726 0.253273
387 1 0.291906 0.302841 0.244792
388 1 0.586217 0.469158 0.271613
389 1 0.312708 0.405555 0.902041
390 1 0.984875 0.561841 0.917193
391 1 0.430667 0.544969 0.666508
392 1 0.169608 0.326951 0.22856
393 1 0.11659 0.172931 0.097456
394 1 0.980829 0.581967 0.626891
395 1 0.238864 0.926594 0.0206985
396 1 0.516328 0.133487 0.413429
397 1 0.992346 0.81595 0.263559
398 1 0.699943 0.0174335 0.0970842
399 1 0.560398 0.256977 0.113876
400 1 0.819645 0.973766 0.0620155
401 1 0.518639 0.0752819 0.362981
402 1 0.26568 0.489365 0.0363095
403 1 0.536264 0.413207 0.744149
404 1 0.702961 0.34705 0.253129
405 1 0.719184 0.104075 0.739963
406 1 0.541183 0.981637 0.213303
407 1 0.597248 0.441634 0.374721
408 1 0.137618 0.0644011 0.648776
409 1 0.1316 0.334142 0.936267
410 1 0.841306 0.762014 0.0237562
411 1 0.309576 0.164204 0.275716
412 1 0.955486 0.35195 0.923791
413 1 0.276172 0.659472 0.592224
414 1 0.183843 0.306106 0.87383
415 1 0.0981471 0.0392656 0.259593
416 1 0.904156 0.960096 0.809515
417 1 0.0506767 0.075107 0.266078
418 1 0.118962 0.203131 0.266908
419 1 0.583824 0.572256 0.513602
420 1 0.0846178 0.210495 0.897164
421 1 0.165674 0.0342924 0.0987769
422 1 0.563849 0.944415 0.589457
423 1 0.827821 0.199789 0.445236
424 1 0.0295957 0.109683 0.262588
425 1 0.170629 0.112854 0.294818
426 1 0.011157 0.344483 0.0232683
427 1 0.108034 0.976057 0.716962
428 1 0.0572495 0.000620386 0.288449
429 1 0.0985627 0.244801 0.107801
430 1 0.299984 0.60934 0.0585515
431 1 0.413987 0.989405 0.551191
432 1 0.278686 0.418398 0.0562822
433 1 0.7466 0.973535 0.0947652
434 1 0.401651 0.303901 0.301006
435 1 0.107575 0.135413 0.232479
436 1 0.0296951 0.188175 0.378836
437 1 0.27937 0.311308 0.1854
438 1 0.230636 0.403299 0.131998
439 1 0.97398 0.22209 0.155296
440 1 0.247119 0.214783 0.543371
441 1 0.293348 0.0857915 0.151247
442 1 0.171384 0.50523 0.108193
443 1 0.217489 0.243454 0.657063
444 1 0.129578 0.891617 0.528092
445 1 0.517127 0.408323 0.162324
446 1 0.0473086 0.482933 0.428996
447 1 0.220172 0.0765218 0.955214
448 1 0.237187 0.451164 0.300432
449 1 0.363044 0.597454 0.618534
450 1 0.393425 0.427384 0.286702
451 1 0.633499 0.995369 0.23222
452 1 0.261906 0.571331 0.565987
453 1 0.0513709 0.140085 0.0914716
454 1 0.697694 0.986267 0.279402
455 1 0.573727 0.383134 0.135032
456 1 0.318248 0.475601 0.137147
457 1 0.22767 0.129654 0.267777
458 1 0.548301 0.338612 0.243904
459 1 0.353269 0.096891 0.110689
460 1 0.437324 0.309437 0.359649
461 1 0.794791 0.791503 0.897855
462 1 0.486897 0.400274 0.00819127
463 1 0.00928873 0.948188 0.25412
464 1 0.0594303 0.240189 0.276539
465 1 0.978304 0.192154 0.893321
466 1 0.55316 0.32322 0.360087
467 1 0.383526 0.0539915 0.978711
468 1 0.622397 0.172357 0.846446
469 1 0.151692 0.477533 0.653937
470 1 0.302825 0.176086 0.189973
471 1 0.425421 0.997503 0.517671
472 1 0.992904 0.061438 0.11619
473 1 0.239537 0.0723675 0.295025
474 1 0.380573 0.0866518 0.304193
475 1 0.42627 0.14246 0.0424346
476 1 0.759674 0.150004 0.242525
477 1 0.82816 0.688948 0.389444
478 1 0.267737 0.282229 0.118237
479 1 0.286905 0.0181995 0.112103
480 1 0.720871 0.150877 0.384048
481 1 0.416673 0.163116 0.0709086
482 1 0.685344 0.194789 0.164922
483 1 0.754975 0.165299 0.293378
484 1 0.385994 0.288666 0.911452
485 1 0.114082 0.27843 0.353486
486 1 0.455792 0.266207 0.169339
487 1 0.326306 0.236229 0.784617
488 1 0.857653 0.181065 0.33467
489 1 0.757957 0.604294 0.288727
490 1 0.40389 0.477846 0.538355
491 1 0.32261 0.0275006 0.617684
492 1 0.378285 0.425389 0.339091
493 1 0.342359 0.443256 0.683096
494 1 0.202575 0.486866 0.032062
495 1 0.312181 0.095191 0.732474
496 1 0.195709 0.304153 0.809365
497 1 0.01802 0.219847 0.810411
498 1 0.0306644 0.433171 0.320056
499 1 0.29964 0.358183 0.672971
500 1 0.607145 0.480987 0.106936
501 1 0.982895 0.192058 0.0544717
502 1 0.0398021 0.116915 0.0433393
503 1 0.254281 0.00723739 0.0943637
504 1 0.734544 0.978426 0.346786
505 1 0.49342 0.0176015 0.857052
506 1 0.232661 0.303166 0.664052
507 1 0.376201 0.316559 0.773928
508 1 0.181404 0.330308 0.0611432
509 1 0.0391322 0.546097 0.891633
510 1 0.318566 0.364298 0.992862
511 1 0.299148 0.251263 0.0309239
512 1 0.96223 0.349833 0.141833
513 1 0.900352 0.341002 0.240408
514 1 0.650226 0.33721 0.985842
515 1 0.288581 0.0379045 0.254384
516 1 0.340623 0.391443 0.0732236
517 1 0.113541 0.216106 0.948802
518 1 0.289396 0.530736 0.362808
519 1 0.158191 0.783435 0.261779
520 1 0.594381 0.445817 0.339427
521 1 0.328769 0.134103 0.227807
522 1 0.344399 0.84434 0.0896378
523 1 0.0331439 0.405396 0.365603
524 1 0.136892 0.332082 0.838416
525 1 0.375013 0.760947 0.225478
526 1 0.382591 0.964666 0.821627
527 1 0.136667 0.289213 0.438733
528 1 0.516391 0.431384 0.193964
529 1 0.54363 0.18511 0.214301
530 1 0.293287 0.963889 0.0622273
531 1 0.102516 0.330106 0.0639394
532 1 0.481997 0.751003 0.330136
533 1 0.108707 0.544338 0.127472
534 1 0.184002 0.218127 0.186214
535 1 0.569856 0.212444 0.601287
536 1 0.939987 0.32887 0.119657
537 1 0.140365 0.131284 0.878738
538 1 0.608297 0.919046 0.180242
539 1 0.496415 0.0401261 0.280219
540 1 0.2052 0.0992265 0.797631
541 1 0.920589 0.962097 0.841526
542 1 0.178536 0.369741 0.0245434
543 1 0.230432 0.454516 0.244591
544 1 0.193663 0.211492 0.703367
545 1 0.331998 0.426012 0.0272226
546 1 0.480761 0.421671 0.154592
547 1 0.385112 0.269285 0.686361
548 1 0.663355 0.358413 0.25622
549 1 0.719148 0.938153 0.773676
550 1 0.891875 0.208633 0.69737
551 1 0.260206 0.58493 0.211249
552 1 0.255825 0.385935 0.155776
553 1 0.774887 0.102678 0.992884
554 1 0.587447 0.958882 0.96891
555 1 0.467406 0.383431 0.859118
556 1 0.203143 0.292487 0.100455
557 1 0.271023 0.370494 0.918665
558 1 0.940789 0.391756 0.207825
559 1 0.602254 0.319796 0.217174
560 1 0.69748 0.11207 0.305148
561 1 0.83248 0.298898 0.794227
562 1 0.196164 0.408738 0.430287
563 1 0.327122 0.147704 0.544943
564 1 0.181003 0.0170035 0.22056
565 1 0.0926089 0.199741 0.148009
566 1 0.418705 0.592736 0.295722
567 1 0.417339 0.32122 0.682169
568 1 0.155694 0.894078 0.204037
569 1 0.971263 0.326956 0.239311
570 1 0.22407 0.0618264 0.492438
571 1 0.411583 0.53217 0.963156
572 1 0.10187 0.288252 0.253311
573 1 0.552527 0.347239 0.331432
574 1 0.456459 0.42812 0.964028
575 1 0.985547 0.11391 0.0203062
576 1 0.255653 0.107583 0.284244
577 1 0.814021 0.585267 0.276161
578 1 0.40896 0.881899 0.10943
579 1 0.684552 0.167541 0.808828
580 1 0.0835004 0.312257 0.185715
581 1 0.579071 0.147953 0.5742
582 1 0.128751 0.187323 0.194741
583 1 0.265438 0.856556 0.209994
584 1 0.482784 0.150975 0.0818344
585 1 0.120324 0.541503 0.808426
586 1 0.344997 0.538654 0.333063
587 1 0.555576 0.487132 0.202254
588 1 0.0461774 0.57984 0.279283
589 1 0.900265 0.396301 0.935047
590 1 0.401443 0.826704 0.512554
591 1 0.286542 0.0865394 0.326532
592 1 0.117662 0.522535 0.0741456
593 1 0.041129 0.829858 0.00855057
594 1 0.106686 0.637304 0.722341
595 1 0.930586 0.88856 0.0567475
596 1 0.904927 0.16056 0.28047
597 1 0.115104 0.431933 0.14274
598 1 0.196486 0.665263 0.620198
599 1 0.108512 0.142653 0.897407
600 1 0.897142 0.297367 0.97036
601 1 0.436702 0.204775 0.26015
602 1 0.935793 0.348734 0.318806
603 1 0.426279 0.585505 0.135159
604 1 0.30847 0.542775 0.228873
605 1 0.0392998 0.589562 0.0453221
606 1 0.623506 0.516844 0.108708
607 1 0.416349 0.369646 0.351674
608 1 0.122133 0.580759 0.875662
609 1 0.174421 0.428047 0.224446
610 1 0.134854 0.332502 0.1149
611 1 0.267109 0.997675 0.062238
612 1 0.200456 0.152984 0.11155
613 1 0.366533 0.303097 0.882848
614 1 0.213509 0.246047 0.561123
615 1 0.130702 0.308082 0.744921
616 1 0.480822 0.957789 0.0931219
617 1 0.18029 0.257726 0.352836
618 1 0.96819 0.000240551 0.0669704
619 1 0.165046 0.358246 0.110561
620 1 0.171858 0.530471 0.419212
621 1 0.309368 0.251232 0.142792
622 1 0.091558 0.48548 0.238795
623 1 0.518577 0.621252 0.2909
624 1 0.410257 0.48198 0.162932
625 1 0.230558 0.314188 0.574109
626 1 0.0895946 0.0784535 0.517844
627 1 0.384788 0.211628 0.946063
628 1 0.365164 0.839773 0.210809
629 1 0.781673 0.288576 0.362827
630 1 0.59428 0.183183 0.667221
631 1 0.472168 0.205849 0.847227
632 1 0.203429 0.212547 0.32054
633 1 0.0895684 0.307645 0.693811
634 1 0.726886 0.691759 0.202756
635 1 0.685612 0.413209 0.908464
636 1 0.294547 0.424097 0.62755
637 1 0.335403 0.288856 0.953688
638 1 0.141988 0.033841 0.175028
639 1 0.1532 0.26336 0.11435
640 1 0.367842 0.469848 0.384498
641 1 0.492679 0.0085095 0.520489
642 1 0.115238 0.395085 0.405634
643 1 0.436345 0.959672 0.507991
644 1 0.756416 0.260573 0.87928
645 1 0.342006 0.608942 0.244924
646 1 0.0482354 0.172511 0.662222
647 1 0.441183 0.0321932 0.244436
648 1 0.385792 0.461988 0.238983
649 1 0.142461 0.273796 0.208638
650 1 0.335955 0.996113 0.132283
651 1 0.234819 0.366409 0.968523
652 1 0.109011 0.836614 0.993778
653 1 0.337346 0.135912 0.98452
654 1 0.249739 0.369342 0.298735
655 1 0.47461 0.337996 0.946112
656 1 0.162432 0.247716 0.766817
657 1 0.247686 0.139882 0.921215
658 1 0.195175 0.508128 0.946602
659 1 0.990588 0.00936378 0.0388323
660 1 0.14964 0.45763 0.624034
661 1 0.329161 0.183966 0.937569
662 1 0.254369 0.344578 0.231878
663 1 0.765136 0.895346 0.294011
664 1 0.404715 0.274957 0.325165
665 1 0.47848 0.42528 0.241887
666 1 0.982069 0.665847 0.0736671
667 1 0.271918 0.316647 0.311942
668 1 0.910529 0.303386 0.170211
669 1 0.321595 0.391001 0.870758
670 1 0.8372 0.124968 0.469333
671 1 0.147286 0.581847 0.292559
672 1 0.86024 0.588823 0.590174
673 1 0.0757846 0.524395 0.282495
674 1 0.528222 0.215006 0.256823
675 1 0.417659 0.0912873 0.0900414
676 1 0.188931 0.370924 0.433781
677 1 0.172926 0.808272 0.109409
678 1 0.0151554 0.64576 0.901467
679 1 0.278469 0.272016 0.197532
680 1 0.957788 0.33497 0.656312
681 1 0.912134 0.378023 0.635251
682 1 0.207777 0.114395 0.0565799
683 1 0.0906725 0.639473 0.356818
684 1 0.00502866 0.664753 0.228151
685 1 0.284421 0.955827 0.109754
686 1 0.596199 0.400002 0.418252
687 1 0.43308 0.566597 0.966832
688 1 0.0625716 0.342637 0.736565
689 1 0.557572 0.246597 0.840754
690 1 0.0523932 0.0649355 0.460236
691 1 0.476757 0.202646 0.342056
692 1 0.602724 0.252637 0.440715
693 1 0.277781 0.336475 0.258456
694 1 0.217575 0.488967 0.259334
695 1 0.383184 0.257794 0.115716
696 1 0.844782 0.121234 0.844316
697 1 0.0504825 0.432861 0.184125
698 1 0.575789 0.938448 0.917838
699 1 0.271734 0.117645 0.975905
700 1 0.221693 0.315277 0.190433
701 1 0.602122 0.722954 0.743753
702 1 0.915107 0.351561 0.0991526
703 1 0.596924 0.439502 0.579853
704 1 0.370244 0.31977 0.35981
705 1 0.184441 0.0292135 0.296137
706 1 0.177084 0.264277 0.0602664
707 1 0.996234 0.174067 0.920275
708 1 0.148636 0.507988 0.896344
709 1 0.102516 0.492535 0.094361
710 1 0.256562 0.510882 0.565761
711 1 0.822974 0.914799 0.927198
712 1 0.307179 0.322015 0.684801
713 1 0.874754 0.239526 0.147118
714 1 0.355943 0.39674 0.24866
715 1 0.630777 0.0622817 0.221073
716 1 0.0259702 0.537136 0.0877441
717 1 0.245775 0.885531 0.267627
718 1 0.221376 0.901235 0.186548
719 1 0.0697666 0.340051 0.107081
720 1 0.0440888 0.375477 0.310017
721 1 0.110898 0.463096 0.618299
722 1 0.469739 0.333244 0.757425
723 1 0.169385 0.277904 0.822691
724 1 0.484011 0.102522 0.78374
725 1 0.846887 0.721518 0.209577
726 1 0.493963 0.0834057 0.537876
727 1 0.102037 0.366416 0.200498
728 1 0.591656 0.0813802 0.109885
729 1 0.235044 0.846459 0.610152
730 1 0.186671 0.20195 0.264235
731 1 0.399929 0.132354 0.0184577
732 1 0.299291 0.149327 0.308212
733 1 0.511501 0.616908 0.21761
734 1 0.132756 0.39699 0.151478
735 1 0.0906038 0.23907 0.141959
736 1 0.92048 0.713634 0.520114
737 1 0.974843 0.778048 0.17513
738 1 0.214418 0.229044 0.528634
739 1 0.133241 0.15939 0.0163946
740 1 0.428814 0.334468 0.305129
741 1 0.230205 0.785834 0.144191
742 1 0.458415 0.38676 0.200754
743 1 0.102143 0.302872 0.155718
744 1 0.428155 0.824153 0.111798
745 1 0.000375589 0.29722 0.397917
746 1 0.761335 0.420367 0.400561
747 1 0.35019 0.42906 0.198333
748 1 0.525825 0.144281 0.340695
749 1 0.92765 0.0728328 0.698126
750 1 0.0566001 0.594871 0.106644
751 1 0.844357 0.214255 0.350091
752 1 0.0821263 0.190074 0.25634
753 1 0.402786 0.289861 0.207491
754 1 0.895372 0.981941 0.998783
755 1 0.325146 0.0578581 0.0245167
756 1 0.472909 0.441331 0.045023
757 1 0.263577 0.211989 0.124384
758 1 0.0885142 0.284539 0.641517
759 1 0.436321 0.323003 0.651354
760 1 0.394429 0.11973 0.231971
761 1 0.0267004 0.2639 0.946472
762 1 0.481212 0.201184 0.130805
763 1 0.000954422 0.126193 0.656441
764 1 0.107439 0.0969348 0.282646
765 1 0.930179 0.562033 0.134791
766 1 0.342224 0.543272 0.285525
767 1 0.994127 0.0292476 0.427302
768 1 0.289208 0.402172 0.262561
769 1 0.0730741 0.350267 0.000189414
770 1 0.42621 0.000625546 0.224916
771 1 0.514458 0.419584 0.227877
772 1 0.261515 0.640052 0.282652
773 1 0.228279 0.0371209 0.100309
774 1 0.205071 0.576953 0.191347
775 1 0.251547 0.33273 0.284386
776 1 0.666672 0.294242 0.32727
777 1 0.0762419 0.30534 0.926373
778 1 0.0914407 0.588803 0.99106
779 1 0.981084 0.280283 0.642994
780 1 0.822313 0.401498 0.127175
781 1 0.340991 0.619326 0.641562
782 1 0.982041 0.173604 0.221678
783 1 0.31897 0.970392 0.326612
784 1 0.873891 0.085317 0.154639
785 1 0.439982 0.324869 0.391819
786 1 0.98164 0.879753 0.837872
787 1 0.133083 0.0582885 0.362993
788 1 0.485493 0.0243441 0.111408
789 1 0.161614 0.382244 0.856048
790 1 0.39134 0.139947 0.668713
791 1 0.250583 0.992434 0.158639
792 1 0.128753 0.426378 0.353887
793 1 0.240674 0.430153 0.0506504
794 1 0.48949 0.106406 0.368989
795 1 0.559787 0.0346561 0.593466
796 1 0.188648 0.164889 0.143168
797 1 0.428391 0.252426 0.147418
798 1 0.391236 0.214674 0.039498
799 1 0.0486811 0.475593 0.984522
800 1 0.094555 0.251439 0.990006
801 1 0.461634 0.0629667 0.522976
802 1 0.385644 0.609724 0.336144
803 1 0.932051 0.50278 0.00948209
804 1 0.376129 0.0373499 0.154828
805 1 0.720365 0.145713 0.112492
806 1 0.541644 0.276404 0.27401
807 1 0.120103 0.310795 0.301087
808 1 0.865379 0.333366 0.0752575
809 1 0.990688 0.145793 0.400308
810 1 0.142028 0.600584 0.341675
811 1 0.186853 0.31235 0.00796747
812 1 0.212046 0.187063 0.097208
813 1 0.751952 0.189586 0.240551
814 1 0.250756 0.192958 0.280914
815 1 0.14279 0.99275 0.348638
816 1 0.563048 0.165623 0.851213
817 1 0.375037 0.472572 0.950178
818 1 0.47885 0.389684 0.315077
819 1 0.0489159 0.00290092 0.441698
820 1 0.552959 0.616372 0.119093
821 1 0.176034 0.128181 0.230161
822 1 0.241865 0.465528 0.986836
823 1 0.354917 0.733807 0.547858
824 1 0.296735 0.937854 0.137548
825 1 0.27026 0.177316 0.78275
826 1 0.257534 0.244265 0.178536
827 1 0.455244 0.271596 0.229451
828 1 0.318873 0.72439 0.196704
829 1 0.151631 0.261555 0.149048
830 1 0.919309 0.536496 0.345127
831 1 0.171079 0.195255 0.335096
832 1 0.874506 0.135456 0.687579
833 1 0.44936 0.167512 0.685493
834 1 0.936135 0.196719 0.11981
835 1 0.0340341 0.347226 0.223737
836 1 0.522664 0.168781 0.160106
837 1 0.0422309 0.973337 0.0810967
838 1 0.308144 0.47125 0.988579
839 1 0.953547 0.866546 0.0775058
840 1 0.21955 0.0973903 0.123738
841 1 0.238296 0.291523 0.141123
842 1 0.190599 0.163905 0.219619
843 1 0.079017 0.582029 0.379645
844 1 0.303351 0.289424 0.13607
845 1 0.914043 0.914833 0.635297
846 1 0.362681 0.335374 0.26419
847 1 0.522843 0.260539 0.335637
848 1 0.240211 0.114945 0.839488
849 1 0.303651 0.36498 0.269057
850 1 0.330287 0.127583 0.318707
851 1 0.692496 0.330269 0.787902
852 1 0.97489 0.047567 0.283599
853 1 0.253013 0.447067 0.781952
854 1 0.321994 0.242521 0.723496
855 1 0.204117 0.00298228 0.315699
856 1 0.286589 0.994594 0.932032
857 1 0.720742 0.0458535 0.0522911
858 1 0.178397 0.16576 0.748122
859 1 0.885264 0.375517 0.109808
860 1 0.593095 0.230457 0.624885
861 1 0.258808 0.176264 0.654323
862 1 0.142319 0.451802 0.123082
863 1 0.544382 0.304109 0.426756
864 1 0.617349 0.185243 0.161549
865 1 0.0477498 0.802499 0.7397
866 1 0.285813 0.123626 0.816105
867 1 0.337969 0.408228 0.728754
868 1 0.179199 0.896323 0.288284
869 1 0.977119 0.974975 0.127201
870 1 0.121707 0.441206 0.294954
871 1 0.948614 0.604869 0.730299
872 1 0.555017 0.0829207 0.965604
873 1 0.911833 0.489211 0.181118
874 1 0.192259 0.62518 0.156705
875 1 0.357175 0.824853 0.0613826
876 1 0.108987 0.329058 0.209548
877 1 0.0694743 0.645738 0.227596
878 1 0.957928 0.93245 0.379277
879 1 0.115153 0.387427 0.0937568
880 1 0.0199851 0.249295 0.0446288
881 1 0.0515956 0.349496 0.654023
882 1 0.581729 0.949182 0.18123
883 1 0.722867 0.0713402 0.422188
884 1 0.988542 0.294122 0.22629
885 1 0.166953 0.959934 0.86112
886 1 0.190683 0.258702 0.419098
887 1 0.646734 0.921088 0.406615
888 1 0.186831 0.955243 0.0476827
889 1 0.00740263 0.234175 0.989186
890 1 0.454391 0.142706 0.326922
891 1 0.251175 0.396115 0.271304
892 1 0.171416 0.980523 0.262857
893 1 0.137519 0.0342582 0.256365
894 1 0.32323 0.574205 0.403153
895 1 0.135507 0.26387 0.716005
896 1 0.973726 0.938105 0.64991
897 1 0.370892 0.475201 0.172864
898 1 0.228448 0.429104 0.272808
899 1 0.442787 0.342189 0.338331
900 1 0.47275 0.871946 0.577599
901 1 0.253998 0.549951 0.258875
902 1 0.03332 0.249563 0.01164
903 1 0.570116 0.218401 0.293526
904 1 0.610954 0.374575 0.605504