ITEM: TIMESTEP
237834
ITEM: NUMBER OF ATOMS
11000
ITEM: BOX BOUNDS pp pp pp
-7.2896310067713088e-01 5.8650146706852489e+01
-7.2896310067713088e-01 5.8650146706852489e+01
-7.2896310067713088e-01 7.1074519452471904e+01
ITEM: ATOMS id type xs ys zs
1 2 0.964108 0.0389589 0.222276
2 2 0.77062 0.406983 0.226685
3 2 0.458447 0.512091 0.383018
4 2 0.893378 0.980389 0.395348
5 2 0.273356 0.125617 0.347613
6 2 0.322019 0.875275 0.138768
7 2 0.0166225 0.296401 0.655572
8 2 0.416715 0.152024 0.218641
9 2 0.195342 0.351986 0.388197
10 2 0.142624 0.102533 0.254479
11 2 0.337527 0.204105 0.107423
12 2 0.249037 0.319827 0.155195
13 2 0.186193 0.440801 0.0808718
14 2 0.0515287 0.38963 0.64709
15 2 0.544708 0.250129 0.368961
16 2 0.357818 0.142623 0.74386
17 2 0.291888 0.238868 0.0843689
18 2 0.0450947 0.143669 0.941104
19 2 0.0700279 0.361725 0.409795
20 2 0.277404 0.141422 0.171763
21 2 0.0337293 0.0731539 0.147079
22 2 0.46294 0.0672282 0.589337
23 2 0.875056 0.0692025 0.69674
24 2 0.591745 0.0940838 0.383568
25 2 0.138644 0.336251 0.32837
26 2 0.723642 0.206898 0.119766
27 2 0.80713 0.114906 0.0563642
28 2 0.216746 0.332694 0.25255
29 2 0.175104 0.133702 0.0643161
30 2 0.158525 0.24217 0.637952
31 2 0.406533 0.14184 0.362012
32 2 0.307382 0.430452 0.0996061
33 2 0.149629 0.459475 0.201691
34 2 0.232524 0.0708229 0.751486
35 2 0.135647 0.287334 0.97885
36 2 0.326242 0.940043 0.0211824
37 2 0.51993 0.0392593 0.0669954
38 2 0.313179 0.547932 0.723927
39 2 0.934861 0.654606 0.160163
40 2 0.945162 0.200545 0.371197
41 2 0.778544 0.482745 0.0631881
42 2 0.889703 0.675574 0.113705
43 2 0.0767384 0.204395 0.062
44 2 0.363397 0.317276 0.124806
45 2 0.990133 0.794102 0.117428
46 2 0.916904 0.466448 0.123688
47 2 0.00522323 0.698876 0.601085
48 2 0.360313 0.524727 0.394061
49 2 0.211369 0.0152629 0.0504249
50 2 0.248883 0.13716 0.19544
51 2 0.54212 0.0644761 0.604199
52 2 0.270819 0.0901774 0.685957
53 2 0.344218 0.901131 0.225711
54 2 0.407429 0.450231 0.252336
55 2 0.925523 0.42862 0.602382
56 2 0.129279 0.428081 0.765281
57 2 0.500786 0.229859 0.851839
58 2 0.0972557 0.243559 0.653765
59 2 0.710355 0.437344 0.332231
60 2 0.323963 0.181247 0.390492
61 2 0.0491129 0.165436 0.596979
62 2 0.353366 0.389571 0.36933
63 2 0.903633 0.411161 0.232831
64 2 0.958562 0.756355 0.977305
65 2 0.566443 0.471257 0.829787
66 2 0.509286 0.252047 0.145089
67 2 0.285008 0.198263 0.252102
68 2 0.733221 0.345106 0.0578237
69 2 0.870306 0.708546 0.315496
70 2 0.551863 0.303018 0.140435
71 2 0.310023 0.521305 0.166166
72 2 0.0402144 0.147579 0.1995
73 2 0.267007 0.0294559 0.308743
74 2 0.470412 0.353466 0.375213
75 2 0.519022 0.46848 0.179595
76 2 0.463859 0.194761 0.157463
77 2 0.393789 0.25806 0.214522
78 2 0.0418172 0.187034 0.0535311
79 2 0.234445 0.0428015 0.21497
80 2 0.490521 0.233588 0.240087
81 2 0.153923 0.552302 0.0321771
82 2 0.181137 0.43926 0.160231
83 2 0.27478 0.912211 0.0286808
84 2 0.850723 0.3999 0.0649427
85 2 0.147234 0.491505 0.123608
86 2 0.331167 0.326007 0.0809859
87 2 0.575451 0.603346 0.207783
88 2 0.674035 0.183751 0.677199
89 2 0.399976 0.357945 0.198496
90 2 0.296279 0.14087 0.233936
91 2 0.22915 0.227154 0.215697
92 2 0.406909 0.176846 0.71799
93 2 0.380048 0.298908 0.14978
94 2 0.320132 0.207697 0.307801
95 2 0.135646 0.642808 0.0618972
96 2 0.126497 0.401987 0.418502
97 2 0.800749 0.393271 0.15283
98 2 0.401816 0.418173 0.843002
99 2 0.735896 0.902355 0.398629
100 2 0.149435 0.613822 0.259706
101 2 0.355612 0.370209 0.161187
102 2 0.532485 0.0941693 0.22564
103 2 0.416732 0.0894267 0.293571
104 2 0.30682 0.00961622 0.617119
105 2 0.485576 0.226604 0.427327
106 2 0.185463 0.0749324 0.906519
107 2 0.390468 0.37548 0.988203
108 2 0.218561 0.874435 0.226803
109 2 0.220194 0.658666 0.00884372
110 2 0.418738 0.385673 0.362955
111 2 0.292949 0.436244 0.167825
112 2 0.486675 0.376574 0.736313
113 2 0.294345 0.404993 0.14922
114 2 0.290855 0.570332 0.293517
115 2 0.832655 0.966146 0.187512
116 2 0.886266 0.972803 0.251972
117 2 0.443327 0.376139 0.630251
118 2 0.288027 0.244687 0.80001
119 2 0.116747 0.455067 0.221624
120 2 0.409054 0.0928703 0.243658
121 2 0.285442 0.876681 0.245434
122 2 0.929484 0.475296 0.418544
123 2 0.847816 0.815796 0.190787
124 2 0.733961 0.386014 0.270982
125 2 0.197016 0.273954 0.242219
126 2 0.223074 0.113859 0.149537
127 2 0.284958 0.614774 0.160227
128 2 0.547318 0.355179 0.260464
129 2 0.361216 0.352194 0.654438
130 2 0.91766 0.897537 0.379072
131 2 0.0160595 0.329851 0.932549
132 2 0.416993 0.331068 0.823139
133 2 0.760172 0.697194 0.388601
134 2 0.410269 0.550498 0.6616
135 2 0.143207 0.676056 0.92591
136 2 0.699227 0.158835 0.247353
137 2 0.118683 0.125802 0.638203
138 2 0.283742 0.106318 0.246095
139 2 0.364744 0.508784 0.17062
140 2 0.310548 0.26245 0.438088
141 2 0.919784 0.299553 0.706052
142 2 0.00382613 0.736367 0.408168
143 2 0.091493 0.0693838 0.14208
144 2 0.96824 0.497819 0.340537
145 2 0.206392 0.314318 0.124282
146 2 0.259099 0.0226615 0.196321
147 2 0.0954654 0.344366 0.284604
148 2 0.369736 0.364563 0.418458
149 2 0.520342 0.202905 0.635711
150 2 0.115851 0.220656 0.280341
151 2 0.83474 0.302256 0.967764
152 2 0.474492 0.47446 0.929875
153 2 0.29927 0.155149 0.340035
154 2 0.245791 0.303542 0.332139
155 2 0.489122 0.145616 0.877994
156 2 0.379615 0.165185 0.635101
157 2 0.4493 0.537129 0.21995
158 2 0.168267 0.484249 0.771751
159 2 0.0832103 0.120246 0.0759153
160 2 0.331919 0.91563 0.175993
161 2 0.235869 0.312185 0.210117
162 2 0.968501 0.26697 0.328777
163 2 0.534058 0.573431 0.166746
164 2 0.00870937 0.0886099 0.203309
165 2 0.233741 0.128989 0.102741
166 2 0.278562 0.55148 0.458342
167 2 0.785104 0.230683 0.0377953
168 2 0.319735 0.0902975 0.297822
169 2 0.90429 0.585479 0.299278
170 2 0.538313 0.30713 0.930453
171 2 0.453711 0.309256 0.19768
172 2 0.133084 0.031033 0.928106
173 2 0.374861 0.218775 0.385726
174 2 0.371815 0.188662 0.0201822
175 2 0.238801 0.244249 0.346953
176 2 0.271619 0.25089 0.939352
177 2 0.60546 0.163747 0.356447
178 2 0.889938 0.283246 0.214125
179 2 0.37878 0.784572 0.165093
180 2 0.363357 0.3271 0.678685
181 2 0.975463 0.351921 0.0894369
182 2 0.517969 0.338692 0.0943017
183 2 0.0292443 0.316944 0.267299
184 2 0.382786 0.268885 0.355464
185 2 0.0154885 0.940254 0.424877
186 2 0.168174 0.491671 0.212215
187 2 0.432892 0.292959 0.173388
188 2 0.165762 0.154625 0.99957
189 2 0.332208 0.294299 0.181819
190 2 0.245016 0.212728 0.18822
191 2 0.192366 0.315115 0.795669
192 2 0.283801 0.789182 0.110213
193 2 0.579097 0.467912 0.641803
194 2 0.425281 0.638703 0.587171
195 2 0.207931 0.190534 0.360702
196 2 0.64629 0.0272634 0.0106771
197 2 0.229314 0.144673 0.0113914
198 2 0.777048 0.146222 0.774263
199 2 0.0729518 0.433689 0.774691
200 2 0.318254 0.221291 0.880947
201 2 0.331149 0.552675 0.0773422
202 2 0.756937 0.280397 0.200824
203 2 0.883367 0.172092 0.0459221
204 2 0.692867 0.0966857 0.352923
205 2 0.197237 0.459762 0.354515
206 2 0.257507 0.664775 0.215968
207 2 0.18105 0.90896 0.0171373
208 2 0.0788729 0.932153 0.149995
209 2 0.416154 0.883138 0.576319
210 2 0.97987 0.500526 0.893638
211 2 0.0478173 0.983079 0.650462
212 2 0.989054 0.967135 0.7033
213 2 0.356992 0.412033 0.267585
214 2 0.489801 0.196659 0.963279
215 2 0.984643 0.918624 0.195914
216 2 0.172918 0.955853 0.0965338
217 2 0.155882 0.864589 0.269326
218 2 0.890075 0.214935 0.281491
219 2 0.26816 0.0856003 0.905892
220 2 0.234606 0.129075 0.306825
221 2 0.844032 0.269775 0.855501
222 2 0.811491 0.206375 0.0265513
223 2 0.16968 0.0519394 0.302325
224 2 0.342895 0.849427 0.154515
225 2 0.400567 0.628182 0.226211
226 2 0.424153 0.370005 0.827409
227 2 0.215612 0.50776 0.136143
228 2 0.132988 0.200694 0.75826
229 2 0.757157 0.348087 0.210198
230 2 0.476564 0.417904 0.350066
231 2 0.214565 0.319328 0.397226
232 2 0.32242 0.233612 0.215134
233 2 0.171228 0.94795 0.658335
234 2 0.514126 0.616028 0.702961
235 2 0.30291 0.842371 0.0408276
236 2 0.358528 0.99184 0.671385
237 2 0.05392 0.891288 0.237414
238 2 0.163505 0.395346 0.198925
239 2 0.944923 0.204424 0.0630179
240 2 0.853952 0.428265 0.926188
241 2 0.203445 0.309137 0.22866
242 2 0.107045 0.325255 0.23383
243 2 0.764663 0.273326 0.126972
244 2 0.433219 0.424996 0.0726884
245 2 0.919461 0.292888 0.674079
246 2 0.105685 0.225443 0.201645
247 2 0.449079 0.707242 0.285574
248 2 0.221475 0.374286 0.0268722
249 2 0.516802 0.832447 0.250256
250 2 0.955288 0.636224 0.356051
251 2 0.666512 0.962665 0.0850378
252 2 0.283515 0.885191 0.00353151
253 2 0.363742 0.940167 0.977958
254 2 0.233565 0.083948 0.600446
255 2 0.612657 0.355946 0.204447
256 2 0.119637 0.549603 0.0873536
257 2 0.483658 0.0827696 0.565252
258 2 0.517532 0.906463 0.912914
259 2 0.577835 0.566426 0.222863
260 2 0.475566 0.307463 0.270059
261 2 0.114578 0.066107 0.0165097
262 2 0.225456 0.262614 0.154346
263 2 0.34629 0.399316 0.674391
264 2 0.410723 0.856563 0.927188
265 2 0.445625 0.978857 0.863873
266 2 0.506048 0.121132 0.128535
267 2 0.290419 0.388192 0.85959
268 2 0.224424 0.417197 0.385153
269 2 0.883136 0.0233316 0.648568
270 2 0.149439 0.683151 0.244726
271 2 0.323351 0.0556527 0.148398
272 2 0.336668 0.565413 0.107643
273 2 0.501531 0.237667 0.0907566
274 2 0.280222 0.0735142 0.229264
275 2 0.368087 0.407541 0.163913
276 2 0.587238 0.922035 0.593212
277 2 0.759937 0.34307 0.127517
278 2 0.615374 0.528903 0.565676
279 2 0.702501 0.242617 0.321989
280 2 0.00818452 0.325506 0.353989
281 2 0.947802 0.512373 0.0923569
282 2 0.281 0.528364 0.12014
283 2 0.318721 0.957092 0.579173
284 2 0.502459 0.920577 0.588791
285 2 0.548645 0.226922 0.395312
286 2 0.152665 0.164679 0.388375
287 2 0.109432 0.193491 0.327697
288 2 0.424138 0.723932 0.153656
289 2 0.322998 0.315008 0.208247
290 2 0.289317 0.0381895 0.93885
291 2 0.815676 0.473569 0.161126
292 2 0.263858 0.345737 0.107157
293 2 0.405906 0.88615 0.222673
294 2 0.161303 0.489393 0.274378
295 2 0.493227 0.267288 0.223797
296 2 0.977849 0.921088 0.22778
297 2 0.445815 0.224817 0.649339
298 2 0.141287 0.994766 0.159124
299 2 0.394889 0.356385 0.247328
300 2 0.593952 0.973564 0.278009
301 2 0.0418958 0.519788 0.13177
302 2 0.445621 0.122718 0.108884
303 2 0.167948 0.186609 0.746459
304 2 0.253644 0.321416 0.00368833
305 2 0.449312 0.0343953 0.316164
306 2 0.0192518 0.298243 0.0907414
307 2 0.345929 0.565983 0.637735
308 2 0.18139 0.30306 0.147664
309 2 0.37008 0.682363 0.118854
310 2 0.884175 0.429417 0.0179824
311 2 0.816182 0.359609 0.809184
312 2 0.120125 0.409825 0.605232
313 2 0.273937 0.416691 0.308885
314 2 0.745903 0.016375 0.902685
315 2 0.4891 0.366111 0.187809
316 2 0.37943 0.384856 0.06453
317 2 0.243994 0.3154 0.925773
318 2 0.0368241 0.132913 0.580947
319 2 0.159441 0.0968087 0.192506
320 2 0.436313 0.147235 0.609067
321 2 0.341839 0.790712 0.156607
322 2 0.0665196 0.284691 0.223153
323 2 0.322077 0.0780674 0.267402
324 2 0.925721 0.187391 0.318246
325 2 0.191013 0.232021 0.274826
326 2 0.419598 0.324168 0.20907
327 2 0.432856 0.0709005 0.224852
328 2 0.486678 0.18174 0.274622
329 2 0.188141 0.367387 0.156167
330 2 0.336791 0.368405 0.233563
331 2 0.195167 0.352987 0.125401
332 2 0.907931 0.584436 0.167328
333 2 0.110134 0.358261 0.0157872
334 2 0.611961 0.325946 0.301923
335 2 0.534959 0.602412 0.997432
336 2 0.955451 0.969631 0.189358
337 2 0.972415 0.179815 0.796283
338 2 0.409335 0.348158 0.0963872
339 2 0.340192 0.149356 0.125862
340 2 0.333968 0.488509 0.342308
341 2 0.178731 0.982199 0.157142
342 2 0.284671 0.369357 0.0875462
343 2 0.488728 0.0281038 0.316788
344 2 0.724452 0.495694 0.0740035
345 2 0.381788 0.203322 0.150263
346 2 0.317332 0.0303588 0.218796
347 2 0.520833 0.537256 0.171874
348 2 0.95443 0.414307 0.338303
349 2 0.954663 0.597835 0.965619
350 2 0.873647 0.45694 0.0646408
351 2 0.313416 0.186194 0.89599
352 2 0.153944 0.955894 0.224413
353 2 0.332141 0.888656 0.703393
354 2 0.169565 0.010934 0.677815
355 2 0.375639 0.149505 0.381763
356 2 0.709494 0.492104 0.231751
357 2 0.407693 0.519257 0.140758
358 2 0.229912 0.76071 0.741229
359 2 0.650307 0.095524 0.585352
360 2 0.0800066 0.128811 0.139545
361 2 0.896978 0.78288 0.315571
362 2 0.402421 0.292792 0.635718
363 2 0.718092 0.264954 0.345767
364 2 0.361331 0.146038 0.177641
365 2 0.533313 0.35707 0.38044
366 2 0.193435 0.539954 0.80228
367 2 0.368909 0.0131311 0.25004
368 2 0.460678 0.982056 0.0132707
369 2 0.2476 0.975228 0.260945
370 2 0.947346 0.17182 0.0126572
371 2 0.691425 0.266279 0.29762
372 2 0.0293641 0.150808 0.0644063
373 2 0.162137 0.109604 0.162307
374 2 0.185644 0.363299 0.208178
375 2 0.520777 0.985577 0.23434
376 2 0.276575 0.448169 0.769713
377 2 0.309133 0.192847 0.0579419
378 2 0.312643 0.669485 0.0663518
379 2 0.259576 0.247041 0.228043
380 2 0.369869 0.305742 0.180352
381 2 0.265349 0.991742 0.215397
382 2 0.327401 0.0841344 0.61695
383 2 0.41462 0.403036 0.314064
384 2 0.970676 0.356931 0.318573
385 2 0.327283 0.0178372 0.339426
386 2 0.120102 0.397064 0.244121
387 2 0.292677 0.308691 0.228946
388 2 0.585196 0.466313 0.253592
389 2 0.313373 0.405884 0.911863
390 2 0.983807 0.564819 0.926019
391 2 0.428934 0.545213 0.691032
392 2 0.169276 0.329096 0.216387
393 2 0.116534 0.172343 0.093054
394 2 0.985934 0.583938 0.651168
395 2 0.239283 0.926625 0.0229899
396 2 0.539791 0.0969396 0.379697
397 2 0.992896 0.816014 0.249218
398 2 0.693674 0.0158894 0.0961432
399 2 0.559716 0.256876 0.108558
400 2 0.820519 0.972978 0.0611637
401 2 0.523442 0.0740746 0.342267
402 2 0.267282 0.491529 0.035793
403 2 0.538469 0.409762 0.761001
404 2 0.700814 0.344384 0.240339
405 2 0.720994 0.104123 0.757333
406 2 0.539184 0.988728 0.205922
407 2 0.595416 0.440774 0.352468
408 2 0.137068 0.0667647 0.670761
409 2 0.129265 0.334125 0.943162
410 2 0.837197 0.762069 0.0238478
411 2 0.306737 0.166021 0.258561
412 2 0.954592 0.352072 0.928627
413 2 0.283878 0.660391 0.608302
414 2 0.176738 0.307148 0.887163
415 2 0.0982983 0.0396684 0.247395
416 2 0.907202 0.960721 0.822434
417 2 0.0489319 0.0770676 0.251857
418 2 0.116791 0.204248 0.249654
419 2 0.545751 0.547837 0.605942
420 2 0.0833834 0.212336 0.904554
421 2 0.167736 0.0334537 0.094058
422 2 0.568154 0.945261 0.614352
423 2 0.819877 0.202199 0.412918
424 2 0.0276762 0.110565 0.2482
425 2 0.168962 0.113573 0.276895
426 2 0.00951804 0.343322 0.0223126
427 2 0.11335 0.980066 0.738977
428 2 0.058778 0.00236903 0.273935
429 2 0.0957683 0.244037 0.105656
430 2 0.31057 0.603593 0.0607818
431 2 0.415715 0.985006 0.584646
432 2 0.270098 0.411545 0.0559662
433 2 0.746354 0.964874 0.0925737
434 2 0.401977 0.305597 0.284571
435 2 0.102556 0.135231 0.221166
436 2 0.0280249 0.187857 0.362629
437 2 0.279707 0.306479 0.170808
438 2 0.23014 0.407901 0.126264
439 2 0.972627 0.22223 0.148384
440 2 0.250414 0.212534 0.393793
441 2 0.295093 0.0843684 0.144324
442 2 0.171789 0.507231 0.101567
443 2 0.214589 0.244845 0.68439
444 2 0.129787 0.906031 0.391896
445 2 0.51545 0.410157 0.152605
446 2 0.06462 0.498722 0.390421
447 2 0.215368 0.0780319 0.9576
448 2 0.235185 0.45384 0.281317
449 2 0.363874 0.600341 0.645351
450 2 0.391468 0.429562 0.276181
451 2 0.632239 0.996451 0.227389
452 2 0.256998 0.574071 0.413949
453 2 0.0516803 0.138202 0.088633
454 2 0.698016 0.989036 0.266106
455 2 0.571496 0.382963 0.128937
456 2 0.31823 0.477595 0.128637
457 2 0.221703 0.128146 0.247354
458 2 0.546025 0.338071 0.230215
459 2 0.35365 0.0934358 0.107327
460 2 0.434685 0.311562 0.341384
461 2 0.795853 0.790886 0.905789
462 2 0.488821 0.401612 0.0091186
463 2 0.00180078 0.94789 0.240434
464 2 0.0511742 0.223959 0.279361
465 2 0.980565 0.19445 0.899876
466 2 0.551319 0.323096 0.33825
467 2 0.384303 0.0549744 0.984352
468 2 0.62366 0.171601 0.857413
469 2 0.147811 0.480908 0.681831
470 2 0.30001 0.173748 0.180454
471 2 0.423025 0.994952 0.553465
472 2 0.992221 0.0607966 0.112037
473 2 0.236067 0.0746647 0.276898
474 2 0.377111 0.086831 0.291969
475 2 0.425836 0.139848 0.045557
476 2 0.760067 0.148875 0.230336
477 2 0.835105 0.693181 0.388783
478 2 0.267 0.281244 0.114866
479 2 0.290702 0.0166402 0.110182
480 2 0.719899 0.148503 0.362006
481 2 0.417224 0.161832 0.0714013
482 2 0.685044 0.194282 0.156826
483 2 0.7545 0.163693 0.278019
484 2 0.385975 0.288624 0.919465
485 2 0.110704 0.282947 0.336184
486 2 0.455016 0.264454 0.160816
487 2 0.325969 0.23458 0.802057
488 2 0.856991 0.176837 0.318543
489 2 0.755439 0.601067 0.274932
490 2 0.405506 0.475871 0.39137
491 2 0.325519 0.0285671 0.640683
492 2 0.369041 0.429748 0.322066
493 2 0.342606 0.443234 0.707618
494 2 0.206106 0.491415 0.0312643
495 2 0.314377 0.0957849 0.74769
496 2 0.198054 0.305279 0.826421
497 2 0.0173402 0.222825 0.823055
498 2 0.0310716 0.43363 0.304109
499 2 0.298081 0.359695 0.699369
500 2 0.606061 0.481977 0.106605
501 2 0.980847 0.191311 0.0543539
502 2 0.0383862 0.117306 0.0470528
503 2 0.261555 0.00242731 0.0922566
504 2 0.74397 0.98122 0.334728
505 2 0.493764 0.0214236 0.866283
506 2 0.225483 0.305077 0.692759
507 2 0.377868 0.31606 0.791076
508 2 0.181075 0.330273 0.0602861
509 2 0.0393556 0.545015 0.901791
510 2 0.318198 0.365032 0.995
511 2 0.300609 0.25007 0.0303851
512 2 0.961027 0.34679 0.134677
513 2 0.902604 0.341887 0.227846
514 2 0.649864 0.337899 0.988107
515 2 0.289119 0.0373915 0.241198
516 2 0.341417 0.392138 0.0698466
517 2 0.104219 0.213485 0.959005
518 2 0.285601 0.534095 0.341504
519 2 0.160548 0.780662 0.246286
520 2 0.591664 0.445712 0.319293
521 2 0.327837 0.13335 0.215608
522 2 0.345012 0.843531 0.0877706
523 2 0.031243 0.408135 0.34756
524 2 0.136553 0.334737 0.850773
525 2 0.376222 0.759996 0.214103
526 2 0.378667 0.966099 0.834269
527 2 0.139407 0.29405 0.41853
528 2 0.520991 0.429355 0.181332
529 2 0.540606 0.184442 0.204569
530 2 0.295739 0.963774 0.0617244
531 2 0.100601 0.328071 0.0626677
532 2 0.48171 0.750215 0.311331
533 2 0.106724 0.543068 0.117842
534 2 0.1834 0.210934 0.175561
535 2 0.560417 0.203828 0.63721
536 2 0.938466 0.3269 0.113214
537 2 0.1399 0.13219 0.889135
538 2 0.615136 0.930124 0.169088
539 2 0.495374 0.0419457 0.269605
540 2 0.204204 0.0997989 0.808904
541 2 0.92135 0.963147 0.852844
542 2 0.181162 0.366382 0.0229849
543 2 0.228275 0.456727 0.230916
544 2 0.191039 0.211197 0.726462
545 2 0.333758 0.42644 0.0268786
546 2 0.478698 0.421473 0.146123
547 2 0.384933 0.266739 0.709499
548 2 0.661413 0.35541 0.242215
549 2 0.719668 0.939625 0.788771
550 2 0.889691 0.208319 0.7169
551 2 0.257773 0.583686 0.198611
552 2 0.256284 0.389427 0.14755
553 2 0.774788 0.101231 0.996194
554 2 0.589466 0.960045 0.96948
555 2 0.46756 0.386587 0.869943
556 2 0.201943 0.292578 0.0973269
557 2 0.273762 0.37253 0.926374
558 2 0.937172 0.39001 0.198916
559 2 0.600909 0.316914 0.205253
560 2 0.698811 0.11205 0.288611
561 2 0.840207 0.298171 0.813884
562 2 0.165262 0.406318 0.414882
563 2 0.308242 0.157061 0.576352
564 2 0.179661 0.0167177 0.208871
565 2 0.0921 0.198374 0.141478
566 2 0.416098 0.591959 0.280309
567 2 0.414999 0.320428 0.708229
568 2 0.156059 0.892536 0.184307
569 2 0.972171 0.331726 0.226364
570 2 0.231142 0.0779019 0.333198
571 2 0.411285 0.532943 0.967621
572 2 0.0986719 0.286789 0.241463
573 2 0.551518 0.346435 0.311346
574 2 0.455281 0.427286 0.968173
575 2 0.983335 0.11093 0.0257319
576 2 0.250381 0.10805 0.262976
577 2 0.812144 0.58513 0.260228
578 2 0.411641 0.880756 0.104144
579 2 0.68476 0.165574 0.820786
580 2 0.0824445 0.312292 0.177316
581 2 0.509822 0.147145 0.610605
582 2 0.130479 0.182286 0.183209
583 2 0.266174 0.856242 0.195731
584 2 0.484361 0.151233 0.0798003
585 2 0.117534 0.539703 0.821709
586 2 0.341245 0.541531 0.316668
587 2 0.555336 0.483958 0.184441
588 2 0.0445699 0.578815 0.26167
589 2 0.901006 0.395203 0.940548
590 2 0.396413 0.806021 0.365563
591 2 0.281843 0.0900318 0.304141
592 2 0.117315 0.492981 0.055103
593 2 0.0524813 0.833352 0.00876099
594 2 0.108218 0.634412 0.74407
595 2 0.928892 0.888269 0.0567007
596 2 0.906881 0.158988 0.267195
597 2 0.109031 0.429841 0.138862
598 2 0.196989 0.663671 0.649471
599 2 0.108344 0.148639 0.90417
600 2 0.897464 0.297608 0.973912
601 2 0.434399 0.206123 0.246233
602 2 0.936072 0.349428 0.304365
603 2 0.42578 0.585287 0.131265
604 2 0.306705 0.540669 0.215377
605 2 0.0330063 0.59311 0.0424841
606 2 0.622631 0.5177 0.107156
607 2 0.416264 0.371263 0.332355
608 2 0.123281 0.582847 0.88484
609 2 0.173642 0.430063 0.212105
610 2 0.13325 0.332576 0.109909
611 2 0.270985 0.996231 0.0618575
612 2 0.200908 0.15056 0.107232
613 2 0.36691 0.302895 0.892443
614 2 0.209116 0.256079 0.421839
615 2 0.128751 0.31057 0.765748
616 2 0.482569 0.959537 0.090149
617 2 0.177808 0.262036 0.334122
618 2 0.966168 0.999133 0.0664671
619 2 0.163246 0.35863 0.106341
620 2 0.171967 0.528156 0.399053
621 2 0.309773 0.250846 0.13592
622 2 0.0894939 0.484315 0.225589
623 2 0.516679 0.621004 0.276292
624 2 0.413542 0.48331 0.152698
625 2 0.23022 0.312651 0.440086
626 2 0.00218971 0.138082 0.436326
627 2 0.386373 0.212014 0.953972
628 2 0.372551 0.844279 0.196887
629 2 0.780286 0.286311 0.343803
630 2 0.592727 0.18066 0.685586
631 2 0.472222 0.20471 0.859306
632 2 0.201041 0.215529 0.302766
633 2 0.0840118 0.313592 0.69234
634 2 0.731247 0.69145 0.194083
635 2 0.686479 0.413096 0.916417
636 2 0.293634 0.4221 0.474177
637 2 0.334634 0.288474 0.958648
638 2 0.144 0.0325983 0.167063
639 2 0.152204 0.264 0.113168
640 2 0.360218 0.472471 0.362161
641 2 0.48971 0.00618234 0.552965
642 2 0.114075 0.396191 0.387957
643 2 0.430944 0.958608 0.542289
644 2 0.755681 0.266071 0.891548
645 2 0.335281 0.609753 0.228208
646 2 0.0497029 0.177227 0.690323
647 2 0.439744 0.0346357 0.236715
648 2 0.381841 0.480354 0.212216
649 2 0.140412 0.276663 0.199702
650 2 0.33931 0.995274 0.129486
651 2 0.235829 0.36246 0.972723
652 2 0.114534 0.837775 0.997274
653 2 0.339081 0.136327 0.98908
654 2 0.24727 0.369876 0.283072
655 2 0.472636 0.337907 0.95112
656 2 0.160498 0.250858 0.785039
657 2 0.249658 0.139126 0.934804
658 2 0.195359 0.511298 0.951696
659 2 0.987361 0.00810529 0.0397965
660 2 0.163201 0.472106 0.496364
661 2 0.331567 0.184051 0.944808
662 2 0.251927 0.347932 0.217954
663 2 0.762605 0.89498 0.278105
664 2 0.40455 0.277056 0.307023
665 2 0.477134 0.426656 0.223629
666 2 0.980562 0.667481 0.0698347
667 2 0.274587 0.310807 0.284969
668 2 0.909988 0.30306 0.161689
669 2 0.320345 0.39063 0.882177
670 2 0.831881 0.124778 0.619233
671 2 0.143551 0.576595 0.27692
672 2 0.872386 0.580884 0.607472
673 2 0.0739238 0.523942 0.266584
674 2 0.523238 0.213063 0.245269
675 2 0.41409 0.0866876 0.0849712
676 2 0.189257 0.374176 0.415793
677 2 0.176507 0.805686 0.105616
678 2 0.012907 0.64982 0.9123
679 2 0.278521 0.271163 0.185577
680 2 0.953934 0.332873 0.685105
681 2 0.914882 0.376301 0.661662
682 2 0.209066 0.113738 0.0554005
683 2 0.0835712 0.639439 0.334923
684 2 0.00293495 0.664797 0.217663
685 2 0.286726 0.956064 0.110985
686 2 0.592859 0.397717 0.394246
687 2 0.431322 0.567738 0.971557
688 2 0.0602682 0.343199 0.755774
689 2 0.558052 0.246198 0.852333
690 2 0.0371756 0.0273679 0.61131
691 2 0.473028 0.203628 0.322828
692 2 0.607903 0.250709 0.418759
693 2 0.278313 0.343127 0.240504
694 2 0.214458 0.490599 0.244105
695 2 0.382823 0.25677 0.109876
696 2 0.845656 0.11843 0.858584
697 2 0.049196 0.432533 0.173407
698 2 0.576379 0.93672 0.924706
699 2 0.274374 0.120128 0.981355
700 2 0.222373 0.318587 0.179819
701 2 0.602335 0.723171 0.761236
702 2 0.913418 0.348341 0.0931996
703 2 0.611535 0.432647 0.603155
704 2 0.36893 0.323205 0.339092
705 2 0.185852 0.0296479 0.279252
706 2 0.177242 0.264617 0.059226
707 2 0.995415 0.176772 0.926525
708 2 0.149539 0.508025 0.903876
709 2 0.0987073 0.490917 0.0861594
710 2 0.250782 0.50773 0.421602
711 2 0.824348 0.915929 0.932299
712 2 0.305615 0.323806 0.711041
713 2 0.874797 0.240489 0.142054
714 2 0.357755 0.400726 0.235655
715 2 0.63076 0.0614276 0.21333
716 2 0.0251967 0.533712 0.0849154
717 2 0.245931 0.883508 0.249188
718 2 0.221158 0.901513 0.176962
719 2 0.0674598 0.338139 0.103271
720 2 0.0419677 0.375372 0.295038
721 2 0.126935 0.466766 0.62569
722 2 0.46858 0.332663 0.776916
723 2 0.169265 0.280352 0.835574
724 2 0.484099 0.102841 0.798399
725 2 0.848132 0.721216 0.200232
726 2 0.505158 0.0917289 0.365432
727 2 0.101559 0.365769 0.1888
728 2 0.591579 0.0868201 0.104794
729 2 0.239353 0.845012 0.63054
730 2 0.187819 0.206465 0.250039
731 2 0.399478 0.132444 0.0226948
732 2 0.296937 0.15083 0.288207
733 2 0.511877 0.616774 0.205745
734 2 0.126805 0.3955 0.142497
735 2 0.0867134 0.237176 0.136852
736 2 0.924807 0.701146 0.374864
737 2 0.975736 0.78048 0.167074
738 2 0.223538 0.224553 0.372736
739 2 0.133028 0.159422 0.0181231
740 2 0.426896 0.336929 0.288361
741 2 0.229972 0.783855 0.136795
742 2 0.457115 0.388529 0.189678
743 2 0.100065 0.301587 0.148745
744 2 0.424489 0.820519 0.107458
745 2 0.00523711 0.302003 0.381065
746 2 0.758604 0.420534 0.381357
747 2 0.351869 0.428321 0.188664
748 2 0.520976 0.143928 0.325262
749 2 0.932391 0.0754459 0.720095
750 2 0.0547409 0.590632 0.0994509
751 2 0.839571 0.205839 0.334686
752 2 0.0811082 0.193894 0.237791
753 2 0.40254 0.291027 0.195582
754 2 0.895092 0.98171 0.00255187
755 2 0.325962 0.0570952 0.0264319
756 2 0.475128 0.441363 0.0433316
757 2 0.263858 0.21151 0.119073
758 2 0.0756552 0.276853 0.651669
759 2 0.43237 0.318827 0.678791
760 2 0.392383 0.119763 0.22247
761 2 0.0157109 0.24622 0.953821
762 2 0.482092 0.197311 0.127594
763 2 0.00293573 0.145649 0.683655
764 2 0.108211 0.0940028 0.266936
765 2 0.931119 0.560455 0.128448
766 2 0.342693 0.540256 0.268415
767 2 0.995608 0.02413 0.402231
768 2 0.283 0.407884 0.253555
769 2 0.0761805 0.341925 0.00724908
770 2 0.430941 0.0048102 0.215263
771 2 0.513428 0.420182 0.21277
772 2 0.259652 0.637789 0.26498
773 2 0.226105 0.0431043 0.0959129
774 2 0.197831 0.568351 0.187135
775 2 0.253755 0.33667 0.266096
776 2 0.66562 0.291866 0.310475
777 2 0.0734655 0.304912 0.931846
778 2 0.0912005 0.590399 0.992346
779 2 0.983615 0.277964 0.665076
780 2 0.826567 0.395188 0.127067
781 2 0.341036 0.624628 0.664599
782 2 0.980021 0.173261 0.210402
783 2 0.325063 0.961044 0.312773
784 2 0.872815 0.0835656 0.148796
785 2 0.440085 0.327693 0.371938
786 2 0.982476 0.879589 0.851552
787 2 0.130077 0.0575279 0.341908
788 2 0.487418 0.025071 0.109097
789 2 0.162903 0.381946 0.868939
790 2 0.394436 0.136592 0.688966
791 2 0.250268 0.992998 0.151418
792 2 0.129133 0.424676 0.329964
793 2 0.238174 0.432913 0.0492345
794 2 0.47524 0.11283 0.353215
795 2 0.562111 0.0345335 0.617993
796 2 0.186152 0.160449 0.136586
797 2 0.42736 0.251514 0.14042
798 2 0.391245 0.213825 0.0401847
799 2 0.0483246 0.475755 0.988865
800 2 0.0933165 0.251021 0.993408
801 2 0.443889 0.0909931 0.364848
802 2 0.385082 0.607928 0.320788
803 2 0.93076 0.50226 0.0106963
804 2 0.381585 0.0348309 0.147913
805 2 0.721288 0.145351 0.108341
806 2 0.545505 0.272903 0.260069
807 2 0.109156 0.30705 0.287286
808 2 0.858082 0.334576 0.0680729
809 2 0.985042 0.144655 0.377835
810 2 0.139105 0.599293 0.321023
811 2 0.187229 0.311628 0.00952884
812 2 0.206109 0.183607 0.0919011
813 2 0.750695 0.187784 0.228517
814 2 0.248591 0.207127 0.264263
815 2 0.141167 0.991356 0.319363
816 2 0.564401 0.164586 0.860818
817 2 0.373956 0.471968 0.950324
818 2 0.477311 0.391518 0.297317
819 2 0.0481468 0.999195 0.412486
820 2 0.554684 0.616303 0.114796
821 2 0.167344 0.125556 0.214197
822 2 0.243386 0.468302 0.991029
823 2 0.375091 0.724531 0.581849
824 2 0.298072 0.938365 0.1383
825 2 0.270471 0.173966 0.798953
826 2 0.25656 0.243537 0.16903
827 2 0.457355 0.271793 0.210958
828 2 0.319513 0.721929 0.189151
829 2 0.145483 0.253355 0.144366
830 2 0.921077 0.532754 0.327393
831 2 0.169613 0.194451 0.313328
832 2 0.877724 0.133641 0.706042
833 2 0.445672 0.172167 0.714368
834 2 0.935486 0.195776 0.115048
835 2 0.0353065 0.351031 0.212363
836 2 0.52664 0.168654 0.153728
837 2 0.0430512 0.972743 0.0787256
838 2 0.309767 0.472807 0.992091
839 2 0.953189 0.866671 0.0751068
840 2 0.220608 0.0978351 0.118851
841 2 0.237818 0.292331 0.13493
842 2 0.18386 0.159507 0.207619
843 2 0.0735286 0.5778 0.358012
844 2 0.30409 0.288615 0.12836
845 2 0.916951 0.911535 0.655435
846 2 0.358793 0.34113 0.246565
847 2 0.524728 0.255032 0.316973
848 2 0.237509 0.114081 0.854416
849 2 0.299465 0.377473 0.238272
850 2 0.326841 0.12792 0.299967
851 2 0.695054 0.328807 0.801098
852 2 0.973474 0.0484009 0.269257
853 2 0.254621 0.444961 0.797486
854 2 0.321229 0.243365 0.743142
855 2 0.204186 0.00197864 0.297506
856 2 0.291797 0.99931 0.944641
857 2 0.721858 0.0432461 0.0517084
858 2 0.181652 0.160527 0.770639
859 2 0.885682 0.373561 0.103124
860 2 0.587699 0.230222 0.64931
861 2 0.259418 0.175883 0.675519
862 2 0.143256 0.454631 0.112596
863 2 0.544673 0.300255 0.399925
864 2 0.619088 0.185891 0.14995
865 2 0.0479359 0.806143 0.753607
866 2 0.277279 0.105044 0.81431
867 2 0.339148 0.409881 0.74831
868 2 0.179754 0.895244 0.270495
869 2 0.976625 0.973994 0.122362
870 2 0.119713 0.441418 0.278447
871 2 0.943389 0.605403 0.751469
872 2 0.555988 0.0829432 0.969382
873 2 0.911037 0.487557 0.172082
874 2 0.202459 0.644796 0.141913
875 2 0.358216 0.824368 0.0610522
876 2 0.107675 0.329461 0.199893
877 2 0.0619952 0.639977 0.214014
878 2 0.960683 0.930746 0.357192
879 2 0.104259 0.385564 0.0886211
880 2 0.0189624 0.248361 0.0446761
881 2 0.0344025 0.354006 0.642261
882 2 0.57821 0.949158 0.170517
883 2 0.716365 0.0727202 0.397748
884 2 0.994288 0.284989 0.217923
885 2 0.167719 0.963668 0.872416
886 2 0.204127 0.253473 0.389335
887 2 0.652549 0.940719 0.383776
888 2 0.188439 0.956128 0.0463042
889 2 0.00561276 0.231785 0.994672
890 2 0.450928 0.145963 0.308667
891 2 0.2466 0.396677 0.25829
892 2 0.171065 0.979508 0.24834
893 2 0.137358 0.0344731 0.243817
894 2 0.30846 0.568981 0.382687
895 2 0.132524 0.263459 0.737563
896 2 0.976847 0.931048 0.663172
897 2 0.377112 0.473604 0.160186
898 2 0.226264 0.430665 0.256493
899 2 0.441039 0.343129 0.319637
900 2 0.472363 0.870619 0.605311
901 2 0.251738 0.549845 0.243006
902 2 0.0324067 0.248843 0.0138024
903 2 0.572078 0.212392 0.278689
904 2 0.615958 0.375249 0.629111