 vasp.6.5.0 16Dec24 (build Jan 20 2025 08:32:48) complex                         
 executed on        HPECrayEX_GCC date 2025.07.28  14:10:25
 running  128 mpi-ranks, with    1 threads/rank, on    1 nodes
 distrk:  each k-point on  128 cores,    1 groups
 distr:  one band on NCORE=  16 cores,    8 groups


--------------------------------------------------------------------------------------------------------


 INCAR:
   SYSTEM = a-Si SPC
   NCORE = 16
   ISTART = 1
   ICHARG = 1
   ISPIN = 1
   ISYM = 1
   EDIFF = 1E-6
   NELM = 150
   EDIFFG = -0.01
   NSW = 0
   ISIF = 2
   IBRION = -1
   PREC = Accurate
   ENCUT = 1200
   KSPACING = 0.23
   KGAMMA = .TRUE.
   METAGGA = SCAN
   LASPH = .TRUE.
   LDIAG = .FALSE.
   LMIXTAU = .TRUE.
   ADDGRID = .TRUE.
   ALGO = Normal
   ISMEAR = 0
   SIGMA = 0.1
   LORBIT = 11
   NEDOS = 2000
   LWAVE = .FALSE.
   LCHARG = .FALSE.

 POTCAR:    PAW_PBE H 15Jun2001                   
 POTCAR:    PAW_PBE Si 05Jan2001                  
 POTCAR:    PAW_PBE H 15Jun2001                   
   SHA256 =  030f79b5d3ab3cf0e668861823c8fb652ff669f3e15e46930bd03bfd63a607b6 H/POTCAR              
   COPYR  = (c) Copyright 15Jun2001 Georg Kresse                                                    
   COPYR  = This file is part of the software VASP. Any use, copying, and all other rights are regul
   COPYR  = If you do not have a valid VASP license, you may not use, copy or distribute this file. 
   VRHFIN =H: ultrasoft test                                                                        
   LEXCH  = PE                                                                                      
   EATOM  =    12.4884 eV,    0.9179 Ry                                                             
                                                                                                    
   TITEL  = PAW_PBE H 15Jun2001                                                                     
   LULTRA =        F    use ultrasoft PP ?                                                          
   IUNSCR =        0    unscreen: 0-lin 1-nonlin 2-no                                               
   RPACOR =    0.000    partial core radius                                                         
   POMASS =    1.000; ZVAL   =    1.000    mass and valenz                                          
   RCORE  =    1.100    outmost cutoff radius                                                       
   RWIGS  =    0.700; RWIGS  =    0.370    wigner-seitz radius (au A)                               
   ENMAX  =  250.000; ENMIN  =  200.000 eV                                                          
   RCLOC  =    0.701    cutoff for local pot                                                        
   LCOR   =        T    correct aug charges                                                         
   LPAW   =        T    paw PP                                                                      
   EAUG   =  400.000                                                                                
   RMAX   =    1.123    core radius for proj-oper                                                   
   RAUG   =    1.200    factor for augmentation sphere                                              
   RDEP   =    1.112    radius for radial grids                                                     
   RDEPT  =    0.926    core radius for aug-charge                                                  
                                                                                                    
   Atomic configuration                                                                             
    2 entries                                                                                       
     n  l   j            E        occ.                                                              
     1  0  0.50        -6.4927   1.0000                                                             
     2  1  0.50        -3.4015   0.0000                                                             
   Description                                                                                      
     l       E           TYP  RCUT    TYP  RCUT                                                     
     0     -6.4927494     23  1.100                                                                 
     0      6.8029130     23  1.100                                                                 
     1     -4.0817478     23  1.100                                                                 
  local pseudopotential read in
  atomic valenz-charges read in
  non local Contribution for L=           0  read in
    real space projection operators read in
  non local Contribution for L=           0  read in
    real space projection operators read in
  non local Contribution for L=           1  read in
    real space projection operators read in
    PAW grid and wavefunctions read in

   number of l-projection  operators is LMAX  =           3
   number of lm-projection operators is LMMAX =           5

 POTCAR:    PAW_PBE Si 05Jan2001                  
   SHA256 =  79d9987ad8750f624c4d6acb2a16d13abf6a777132adc04dc6c8399be72b42bb Si/POTCAR             
   COPYR  = (c) Copyright 05Jan2001 Georg Kresse                                                    
   COPYR  = This file is part of the software VASP. Any use, copying, and all other rights are regul
   COPYR  = If you do not have a valid VASP license, you may not use, copy or distribute this file. 
   VRHFIN =Si: s2p2                                                                                 
   LEXCH  = PE                                                                                      
   EATOM  =   103.0669 eV,    7.5752 Ry                                                             
                                                                                                    
   TITEL  = PAW_PBE Si 05Jan2001                                                                    
   LULTRA =        F    use ultrasoft PP ?                                                          
   IUNSCR =        1    unscreen: 0-lin 1-nonlin 2-no                                               
   RPACOR =    1.500    partial core radius                                                         
   POMASS =   28.085; ZVAL   =    4.000    mass and valenz                                          
   RCORE  =    1.900    outmost cutoff radius                                                       
   RWIGS  =    2.480; RWIGS  =    1.312    wigner-seitz radius (au A)                               
   ENMAX  =  245.345; ENMIN  =  184.009 eV                                                          
   ICORE  =        2    local potential                                                             
   LCOR   =        T    correct aug charges                                                         
   LPAW   =        T    paw PP                                                                      
   EAUG   =  322.069                                                                                
   DEXC   =    0.000                                                                                
   RMAX   =    1.950    core radius for proj-oper                                                   
   RAUG   =    1.300    factor for augmentation sphere                                              
   RDEP   =    1.993    radius for radial grids                                                     
   RDEPT  =    1.837    core radius for aug-charge                                                  
                                                                                                    
   Atomic configuration                                                                             
    6 entries                                                                                       
     n  l   j            E        occ.                                                              
     1  0  0.50     -1785.8828   2.0000                                                             
     2  0  0.50      -139.4969   2.0000                                                             
     2  1  1.50       -95.5546   6.0000                                                             
     3  0  0.50       -10.8127   2.0000                                                             
     3  1  0.50        -4.0811   2.0000                                                             
     3  2  1.50        -4.0817   0.0000                                                             
   Description                                                                                      
     l       E           TYP  RCUT    TYP  RCUT                                                     
     0    -10.8127223     23  1.900                                                                 
     0     -7.6451159     23  1.900                                                                 
     1     -4.0811372     23  1.900                                                                 
     1      2.4879257     23  1.900                                                                 
     2     -4.0817478      7  1.900                                                                 
  local pseudopotential read in
  partial core-charges read in
  partial kinetic energy density read in
  atomic valenz-charges read in
  non local Contribution for L=           0  read in
    real space projection operators read in
  non local Contribution for L=           0  read in
    real space projection operators read in
  non local Contribution for L=           1  read in
    real space projection operators read in
  non local Contribution for L=           1  read in
    real space projection operators read in
    PAW grid and wavefunctions read in

   number of l-projection  operators is LMAX  =           4
   number of lm-projection operators is LMMAX =           8

 -----------------------------------------------------------------------------
|                                                                             |
|               ----> ADVICE to this user running VASP <----                  |
|                                                                             |
|     You have a (more or less) 'large supercell' and for larger cells it     |
|     might be more efficient to use real-space projection operators.         |
|     Therefore, try LREAL= Auto in the INCAR file.                           |
|     Mind: For very accurate calculation, you might also keep the            |
|     reciprocal projection scheme (i.e. LREAL=.FALSE.).                      |
|                                                                             |
 -----------------------------------------------------------------------------

 -----------------------------------------------------------------------------
|                                                                             |
|               ----> ADVICE to this user running VASP <----                  |
|                                                                             |
|     You enforced a specific xc type in the INCAR file but a different       |
|     type was found in the POTCAR file.                                      |
|     I HOPE YOU KNOW WHAT YOU ARE DOING!                                     |
|                                                                             |
 -----------------------------------------------------------------------------

  PAW_PBE H 15Jun2001                   :
 energy of atom  1       EATOM=  -12.4884
 kinetic energy error for atom=    0.0000 (will be added to EATOM!!)
  PAW_PBE Si 05Jan2001                  :
 energy of atom  2       EATOM= -103.0669
 kinetic energy error for atom=    0.0001 (will be added to EATOM!!)


 POSCAR:  H Si
  positions in cartesian coordinates
  No initial velocities read in


 exchange-correlation table for SCAN
   RHO(1)=    0.500       N(1)  =     2000
   RHO(2)=  100.500       N(2)  =     4000



--------------------------------------------------------------------------------------------------------


 ion  position               nearest neighbor table
   1  0.864  0.679  0.575-  23 1.49
   2  0.316  0.664  0.577-  17 1.49
   3  0.611  0.047  0.422-  30 1.50
   4  0.165  0.214  0.387-  47 1.48
   5  0.808  0.570  0.371-  32 1.48
   6  0.424  0.569  0.481-  33 2.30  42 2.32  17 2.35  44 2.49  56 2.68
   7  0.844  0.124  0.450-  59 2.33  26 2.33  11 2.40
   8  0.031  0.437  0.583-  18 2.35  52 2.37  39 2.47  55 3.14
   9  0.159  0.758  0.452-  36 2.25  57 2.28  41 2.34
  10  0.335  0.095  0.527-  15 2.36  34 2.40  20 2.40  53 2.43
  11  0.884  0.111  0.543-  45 2.31  13 2.32  29 2.36   7 2.40  26 3.05
  12  0.994  0.917  0.459-  57 2.30  28 2.32  26 2.35  22 2.41
  13  0.821  0.256  0.555-  11 2.32  50 2.36  52 2.37  59 2.50
  14  0.826  0.446  0.471-  43 2.30  52 2.31  32 2.32
  15  0.464  0.167  0.488-  38 2.34  10 2.36  21 2.38  30 2.49
  16  0.781  0.834  0.423-  26 2.28  24 2.32  35 2.37
  17  0.404  0.680  0.548-   2 1.49   6 2.35  40 2.35  56 2.36
  18  0.048  0.580  0.540-  36 2.26   8 2.35  23 2.37
  19  0.653  0.782  0.549-  49 2.29  24 2.31  31 2.32
  20  0.258  0.012  0.457-  28 2.32  41 2.37  10 2.40
  21  0.447  0.324  0.465-  37 2.30  51 2.34  15 2.38  44 2.44
  22  0.982  0.860  0.549-  23 2.38  58 2.38  29 2.39  12 2.41
  23  0.942  0.703  0.538-   1 1.49  18 2.37  35 2.38  22 2.38
  24  0.639  0.791  0.457-  19 2.31  16 2.32  46 2.36  27 2.37
  25  0.593  0.014  0.553-  38 2.31  49 2.34  53 2.38  30 2.39
  26  0.840  0.965  0.460-  16 2.28   7 2.33  12 2.35  29 2.38  11 3.05
  27  0.497  0.867  0.444-  30 2.36  24 2.37  40 2.38
  28  0.106  0.022  0.484-  45 2.31  20 2.32  12 2.32  58 2.43  54 2.96  41 3.08
  29  0.848  0.954  0.554-  49 2.35  11 2.36  26 2.38  22 2.39
  30  0.540  0.020  0.462-   3 1.50  27 2.36  25 2.39  15 2.49  53 3.04  38 3.05
  31  0.655  0.622  0.550-  19 2.32  56 2.36  46 2.38
  32  0.806  0.587  0.430-   5 1.48  14 2.32  35 2.35  46 2.38
  33  0.277  0.518  0.463-  36 2.26   6 2.30  51 2.32  48 2.35
  34  0.237  0.182  0.584-  54 2.30  10 2.40  39 2.48
  35  0.890  0.721  0.449-  32 2.35  16 2.37  23 2.38  57 2.40
  36  0.154  0.610  0.477-   9 2.25  18 2.26  33 2.26
  37  0.564  0.406  0.425-  43 2.30  21 2.30  42 2.32
  38  0.599  0.171  0.539-  25 2.31  15 2.34  59 2.37  50 2.38  30 3.05
  39  0.161  0.331  0.567-  48 2.28  55 2.35   8 2.47  34 2.48
  40  0.404  0.834  0.520-  17 2.35  27 2.38  41 2.38  53 2.39
  41  0.248  0.866  0.498-   9 2.34  20 2.37  40 2.38  58 2.41  28 3.08
  42  0.531  0.561  0.413-  46 2.31   6 2.32  37 2.32
  43  0.688  0.368  0.477-  37 2.30  14 2.30  59 2.33  50 2.43
  44  0.440  0.432  0.540-  48 2.32  56 2.38  21 2.44   6 2.49
  45  0.039  0.139  0.533-  28 2.31  11 2.31  54 2.33  55 2.33
  46  0.654  0.630  0.455-  42 2.31  24 2.36  31 2.38  32 2.38
  47  0.157  0.297  0.421-   4 1.48  51 2.29  55 2.32
  48  0.281  0.420  0.537-  39 2.28  44 2.32  33 2.35  51 2.39
  49  0.703  0.914  0.589-  19 2.29  25 2.34  29 2.35
  50  0.670  0.310  0.568-  13 2.36  38 2.38  43 2.43  59 2.73
  51  0.293  0.361  0.448-  47 2.29  33 2.32  21 2.34  48 2.39
  52  0.930  0.364  0.522-  14 2.31   8 2.37  55 2.37  13 2.37
  53  0.435  0.976  0.564-  25 2.38  40 2.39  10 2.43  30 3.04
  54  0.128  0.070  0.599-  34 2.30  45 2.33  58 2.37  28 2.96
  55  0.065  0.284  0.496-  47 2.32  45 2.33  39 2.35  52 2.37   8 3.14
  56  0.509  0.566  0.576-  17 2.36  31 2.36  44 2.38   6 2.68
  57  0.024  0.788  0.409-   9 2.28  12 2.30  35 2.40
  58  0.133  0.921  0.560-  54 2.37  22 2.38  41 2.41  28 2.43
  59  0.718  0.211  0.479-   7 2.33  43 2.33  38 2.37  13 2.50  50 2.73

  LATTYP: Found a simple tetragonal cell.
 ALAT       =    14.5469080134
 C/A-ratio  =     1.7204476839
  
  Lattice vectors:
  
 A1 = (  14.5469080134,   0.0000000000,   0.0000000000)
 A2 = (   0.0000000000,  14.5469080134,   0.0000000000)
 A3 = (   0.0000000000,   0.0000000000,  25.0271942000)


Analysis of symmetry for initial positions (statically):
=====================================================================
 Subroutine PRICEL returns:
 Original cell was already a primitive cell.
 

 Routine SETGRP: Setting up the symmetry group for a 
 simple tetragonal supercell.


 Subroutine GETGRP returns: Found  1 space group operations
 (whereof  1 operations were pure point group operations)
 out of a pool of 16 trial point group operations.


The static configuration has the point symmetry C_1 .


Analysis of symmetry for dynamics (positions and initial velocities):
=====================================================================
 Subroutine PRICEL returns:
 Original cell was already a primitive cell.
 

 Routine SETGRP: Setting up the symmetry group for a 
 simple tetragonal supercell.


 Subroutine GETGRP returns: Found  1 space group operations
 (whereof  1 operations were pure point group operations)
 out of a pool of 16 trial point group operations.


The dynamic configuration has the point symmetry C_1 .


 Subroutine INISYM returns: Found  1 space group operations
 (whereof  1 operations are pure point group operations),
 and found     1 'primitive' translations


----------------------------------------------------------------------------------------

                                     Primitive cell                                     

  volume of cell :    5296.0680

  direct lattice vectors                    reciprocal lattice vectors
    14.546908013  0.000000000  0.000000000     0.068743131  0.000000000  0.000000000
     0.000000000 14.546908013  0.000000000     0.000000000  0.068743131  0.000000000
     0.000000000  0.000000000 25.027194200     0.000000000  0.000000000  0.039956537

  length of vectors
    14.546908013 14.546908013 25.027194200     0.068743131  0.068743131  0.039956537

  position of ions in fractional coordinates (direct lattice)
     0.864244200  0.679449220  0.574579048
     0.315766851  0.663557810  0.577467919
     0.611067044  0.047461395  0.421779925
     0.165319892  0.214219679  0.387278713
     0.807603813  0.570173665  0.371429767
     0.423757033  0.568914067  0.481195205
     0.843819656  0.124289649  0.450229018
     0.031011862  0.436943331  0.582966455
     0.159149046  0.758004489  0.452163099
     0.335405693  0.094698832  0.526718408
     0.884369490  0.110986666  0.543040097
     0.994340631  0.916888979  0.459048228
     0.821453826  0.255874998  0.554561434
     0.825775809  0.445575532  0.471359937
     0.464057287  0.166674402  0.487816330
     0.781228618  0.833659701  0.423218576
     0.403567120  0.679952156  0.548301536
     0.047956718  0.579510467  0.540320034
     0.652650440  0.781589230  0.548887304
     0.258324541  0.012100881  0.456603546
     0.446985065  0.324412748  0.464891424
     0.982187906  0.860084573  0.549153277
     0.941712668  0.702772482  0.538338498
     0.639321202  0.791484087  0.457172470
     0.593185447  0.014020611  0.552652273
     0.840208230  0.964656833  0.459684958
     0.496774183  0.866504888  0.443616263
     0.106455189  0.022014866  0.484350990
     0.847602300  0.954415407  0.554383283
     0.540269431  0.019635721  0.462127358
     0.655083190  0.622062375  0.550293617
     0.805864696  0.586582453  0.429916728
     0.277223096  0.517937081  0.463018638
     0.236685385  0.181877475  0.584301078
     0.890434672  0.720642680  0.448798064
     0.153814770  0.609620570  0.476659416
     0.564221383  0.405895975  0.425039208
     0.598708425  0.171130268  0.539038639
     0.161018082  0.331479377  0.566946885
     0.404349080  0.834112693  0.519760270
     0.248113442  0.866200131  0.498448988
     0.531139493  0.560509230  0.412963689
     0.688132068  0.368072740  0.477417716
     0.439872457  0.431607318  0.539861995
     0.039460746  0.139161884  0.532642943
     0.654101389  0.629606878  0.455489307
     0.157425671  0.297056081  0.421051765
     0.280782297  0.419525029  0.537454453
     0.702885655  0.913903911  0.588941775
     0.670100657  0.309580370  0.567566178
     0.293205440  0.361279612  0.448396933
     0.930066886  0.364073629  0.522143169
     0.434858950  0.976331588  0.563878533
     0.128042512  0.069642019  0.598806147
     0.065297124  0.284491771  0.496362395
     0.508953002  0.566477819  0.575907158
     0.024335343  0.788082164  0.408758073
     0.132782595  0.921021853  0.559954368
     0.718314188  0.210690250  0.479115086

  ion indices of the primitive-cell ions
   primitive index   ion index
                 1           1
                 2           2
                 3           3
                 4           4
                 5           5
                 6           6
                 7           7
                 8           8
                 9           9
                10          10
                11          11
                12          12
                13          13
                14          14
                15          15
                16          16
                17          17
                18          18
                19          19
                20          20
                21          21
                22          22
                23          23
                24          24
                25          25
                26          26
                27          27
                28          28
                29          29
                30          30
                31          31
                32          32
                33          33
                34          34
                35          35
                36          36
                37          37
                38          38
                39          39
                40          40
                41          41
                42          42
                43          43
                44          44
                45          45
                46          46
                47          47
                48          48
                49          49
                50          50
                51          51
                52          52
                53          53
                54          54
                55          55
                56          56
                57          57
                58          58
                59          59

----------------------------------------------------------------------------------------


 -----------------------------------------------------------------------------
|                                                                             |
|           W    W    AA    RRRRR   N    N  II  N    N   GGGG   !!!           |
|           W    W   A  A   R    R  NN   N  II  NN   N  G    G  !!!           |
|           W    W  A    A  R    R  N N  N  II  N N  N  G       !!!           |
|           W WW W  AAAAAA  RRRRR   N  N N  II  N  N N  G  GGG   !            |
|           WW  WW  A    A  R   R   N   NN  II  N   NN  G    G                |
|           W    W  A    A  R    R  N    N  II  N    N   GGGG   !!!           |
|                                                                             |
|     The requested file  could not be found or opened for reading            |
|     k-point information. Automatic k-point generation is used as a          |
|     fallback, which may lead to unwanted results.                           |
|                                                                             |
 -----------------------------------------------------------------------------



Automatic generation of k-mesh.
 Grid dimensions derived from KSPACING:
 generate k-points for:    2    2    2

 Generating k-lattice:

  Cartesian coordinates                     Fractional coordinates (reciprocal lattice)
     0.034371565  0.000000000  0.000000000     0.500000000  0.000000000  0.000000000
     0.000000000  0.034371565  0.000000000     0.000000000  0.500000000  0.000000000
     0.000000000  0.000000000  0.019978268     0.000000000  0.000000000  0.500000000

  Length of vectors
     0.034371565  0.034371565  0.019978268

  Shift w.r.t. Gamma in fractional coordinates (k-lattice)
     0.000000000  0.000000000  0.000000000

 
 Subroutine IBZKPT returns following result:
 ===========================================
 
 Found      8 irreducible k-points:
 
 Following reciprocal coordinates:
            Coordinates               Weight
  0.000000  0.000000  0.000000      1.000000
  0.500000  0.000000  0.000000      1.000000
  0.000000  0.500000  0.000000      1.000000
  0.500000  0.500000  0.000000      1.000000
  0.000000  0.000000  0.500000      1.000000
  0.500000  0.000000  0.500000      1.000000
  0.000000  0.500000  0.500000      1.000000
  0.500000  0.500000  0.500000      1.000000
 
 Following cartesian coordinates:
            Coordinates               Weight
  0.000000  0.000000  0.000000      1.000000
  0.034372  0.000000  0.000000      1.000000
  0.000000  0.034372  0.000000      1.000000
  0.034372  0.034372  0.000000      1.000000
  0.000000  0.000000  0.019978      1.000000
  0.034372  0.000000  0.019978      1.000000
  0.000000  0.034372  0.019978      1.000000
  0.034372  0.034372  0.019978      1.000000
 


--------------------------------------------------------------------------------------------------------




 Dimension of arrays:
   k-points           NKPTS =      8   k-points in BZ     NKDIM =      8   number of bands    NBANDS=    144
   number of dos      NEDOS =   2000   number of ions     NIONS =     59
   non local maximal  LDIM  =      4   non local SUM 2l+1 LMDIM =      8
   total plane-waves  NPLWV = ******
   max r-space proj   IRMAX =      1   max aug-charges    IRDMAX= 410684
   dimension x,y,z NGX =   168 NGY =  168 NGZ =  288
   dimension x,y,z NGXF=   336 NGYF=  336 NGZF=  576
   support grid    NGXF=   672 NGYF=  672 NGZF= 1152
   ions per type =               5  54
   NGX,Y,Z   is equivalent  to a cutoff of  19.20, 19.20, 19.13 a.u.
   NGXF,Y,Z  is equivalent  to a cutoff of  38.40, 38.40, 38.26 a.u.

 SYSTEM =  a-Si SPC                                
 POSCAR =   H Si                                   

 Startparameter for this run:
   NWRITE =      2    write-flag & timer
   PREC   = accura    normal or accurate (medium, high low for compatibility)
   ISTART =      1    job   : 0-new  1-cont  2-samecut
   ICHARG =      1    charge: 1-file 2-atom 10-const
   ISPIN  =      1    spin polarized calculation?
   LNONCOLLINEAR =      F non collinear calculations
   LSORBIT =      F    spin-orbit coupling
   INIWAV =      1    electr: 0-lowe 1-rand  2-diag
   LASPH  =      T    aspherical Exc in radial PAW
 Electronic Relaxation 1
   ENCUT  = 1200.0 eV  88.20 Ry    9.39 a.u.  41.09 41.09 70.69*2*pi/ulx,y,z
   ENINI  = 1200.0     initial cutoff
   ENAUG  =  400.0 eV  augmentation charge cutoff
   NELM   =    150;   NELMIN=  2; NELMDL=  0     # of ELM steps 
   EDIFF  = 0.1E-05   stopping-criterion for ELM
   LREAL  =      F    real-space projection
   NLSPLINE    = F    spline interpolate recip. space projectors
   LCOMPAT=      F    compatible to vasp.4.4
   GGA_COMPAT  = T    GGA compatible to vasp.4.4-vasp.4.6
   LMAXPAW     = -100 max onsite density
   LMAXMIX     =    2 max onsite mixed and CHGCAR
   VOSKOWN=      0    Vosko Wilk Nusair interpolation
   ROPT   =    0.00000   0.00000
 Ionic relaxation
   EDIFFG = -.1E-01   stopping-criterion for IOM
   NSW    =      0    number of steps for IOM
   NBLOCK =      1;   KBLOCK =      1    inner block; outer block 
   IBRION =     -1    ionic relax: 0-MD 1-quasi-New 2-CG
   NFREE  =      0    steps in history (QN), initial steepest desc. (CG)
   ISIF   =      2    stress and relaxation
   IWAVPR =     10    prediction:  0-non 1-charg 2-wave 3-comb
   ISYM   =      1    0-nonsym 1-usesym 2-fastsym
   LCORR  =      T    Harris-Foulkes like correction to forces

   POTIM  = 0.5000    time-step for ionic-motion
   TEIN   =    0.0    initial temperature
   TEBEG  =    0.0;   TEEND  =   0.0 temperature during run
   SMASS  =  -3.00    Nose mass-parameter (am)
   estimated Nose-frequenzy (Omega)   =  0.10E-29 period in steps = 0.13E+47 mass=  -0.484E-26a.u.
   SCALEE = 1.0000    scale energy and forces
   NPACO  =    256;   APACO  = 10.0  distance and # of slots for P.C.
   PSTRESS=    0.0 pullay stress

  Mass of Ions in am
   POMASS =   1.00 28.09
  Ionic Valenz
   ZVAL   =   1.00  4.00
  Atomic Wigner-Seitz radii
   RWIGS  =  -1.00 -1.00
  virtual crystal weights 
   VCA    =   1.00  1.00
   NELECT =     221.0000    total number of electrons
   NUPDOWN=      -1.0000    fix difference up-down

 DOS related values:
   EMIN   =  10.00;   EMAX   =-10.00  energy-range for DOS
   EFERMI =   0.00;   METHOD = LEGACY      
   ISMEAR =     0;   SIGMA  =   0.10  broadening in eV -4-tet -1-fermi 0-gaus
   EFERMI_NEDOS =   21; number of points for ismear=-14 and -15

 Electronic relaxation 2 (details)
   IALGO  =     38    algorithm
   LDIAG  =      F    sub-space diagonalisation (order eigenvalues)
   LSUBROT=      F    optimize rotation matrix (better conditioning)
   TURBO    =      0    0=normal 1=particle mesh
   IRESTART =      0    0=no restart 2=restart with 2 vectors
   NREBOOT  =      0    no. of reboots
   NMIN     =      0    reboot dimension
   EREF     =   0.00    reference energy to select bands
   IMIX   =      4    mixing-type and parameters
     AMIX     =   0.40;   BMIX     =  1.00
     AMIX_MAG =   1.60;   BMIX_MAG =  1.00
     AMIN     =   0.10
     WC   =   100.;   INIMIX=   1;  MIXPRE=   1;  MAXMIX= -45

 Intra band minimization:
   WEIMIN = 0.0000     energy-eigenvalue tresh-hold
   EBREAK =  0.17E-08  absolut break condition
   DEPER  =   0.30     relativ break condition  

   TIME   =   0.40     timestep for ELM

  volume/ion in A,a.u.               =      89.76       605.76
  Fermi-wavevector in a.u.,A,eV,Ry     =   0.567834  1.073050  4.386994  0.322435
  Thomas-Fermi vector in A             =   1.606810

 Write flags
   LWAVE        =      F    write WAVECAR
   LDOWNSAMPLE  =      F    k-point downsampling of WAVECAR
   LCHARG       =      F    write CHGCAR
   LVTOT        =      F    write LOCPOT, total local potential
   LVHAR        =      F    write LOCPOT, Hartree potential only
   WRT_POTENTIAL= false  ! write potential to hdf5 file
   LELF         =      F    write electronic localiz. function (ELF)
   LORBIT       =     11    0 simple, 1 ext, 2 COOP (PROOUT), +10 PAW based schemes


 Python interface
   PLUGINS active      =      F    recompile with -DPLUGINS to activate

 Dipole corrections
   LMONO      =      F    monopole corrections only (constant potential shift)
   LDIPOL     =      F    correct potential (dipole corrections)
   IDIPOL     =      0    1-x, 2-y, 3-z, 4-all directions 
   EPSILON    =  1.0000000 bulk dielectric constant
   LVACPOTAV  =      F  vacuum potentials using an averaging scheme for the charge density
   VACPOTFLAT =  0.1000000 required flatness to determine vacuum potential

Coulomb truncation method
  LTRUNCATE          =      F  Coulomb kernel truncation to be used
  IDIMENSIONALITY    =      3  Dimensionality of cutoff (0 molecules / 2 surfaces)
  ISURFACE           =     -1  Direction of surface normal
  LCOARSEN           =      F  Coarsen the charge grid before padding, preferred


 Exchange correlation treatment:
   METAGGA = SCAN    functional components
   XC_C    = 1    coefficients multiplying the functional components
   LIBXC   =     F    Libxc                    
   VOSKOWN =     0    Vosko Wilk Nusair interpolation
   LHFCALC =     F    Hartree Fock is set to
   LHFONE  =     F    Hartree Fock one center treatment
   AEXX    =    0.0000 exact exchange contribution

 Parameters of functionals:
   SCAN:
     P1 =  0.000000E+00
     P2 =  0.000000E+00
     P3 =  0.000000E+00

 Accuracy and mixing parameters for tau-dependent meta-GGA functionals:
   LMAXTAU = 6
   LMIXTAU = T

 Van der Waals corrections
   IVDW    =     0    specifies the selected vdW correction

 Linear response parameters
   LEPSILON=     F    determine dielectric tensor
   LRPA    =     F    only Hartree local field effects (RPA)
   LNABLA  =     F    use nabla operator in PAW spheres
   LVEL    =     F    velocity operator in full k-point grid
   CSHIFT  =0.1000    complex shift for real part using Kramers Kronig
   OMEGAMAX=  -1.0    maximum frequency
   DEG_THRESHOLD= 0.2000000E-02 threshold for treating states as degnerate
   RTIME   =   -0.100 relaxation time in fs
  (WPLASMAI=    0.000 imaginary part of plasma frequency in eV, 0.658/RTIME)
   DFIELD  = 0.0000000 0.0000000 0.0000000 field for delta impulse in time

  Optional k-point grid parameters
   LKPOINTS_OPT  =     F    use optional k-point grid
   KPOINTS_OPT_MODE=     1    mode for optional k-point grid

 Orbital magnetization related:
   ORBITALMAG=     F  switch on orbital magnetization
   LCHIMAG   =     F  perturbation theory with respect to B field
   DQ        =  0.001000  dq finite difference perturbation B field
   LLRAUG    =     F  two centre corrections for induced B field
   LBONE     =     F  B-component reconstruction in AE one-centre
   LVGVCALC  =     T  calculate vGv susceptibility
   LVGVAPPL  =     F  apply vGv susceptibility instead of pGv for G=0

 Random number generation:
   RANDOM_GENERATOR = DEFAULT
   PCG_SEED         = not used


--------------------------------------------------------------------------------------------------------


 Static calculation
 charge density and potential will be updated during run
 non-spin polarized calculation
 Variant of blocked Davidson
 perform Loewdin sub-space diagonalisation
    ordering is kept fixed
    before iterative eigenvector-optimisation
 modified Broyden-mixing scheme, WC =      100.0
 initial mixing is a Kerker type mixing with AMIX =  0.4000 and BMIX =      1.0000
 Hartree-type preconditioning will be used
 using additional bands           33
 reciprocal scheme for non local part
 use partial core corrections
 calculate Harris-corrections to forces   (improved forces if not selfconsistent)
 use gradient corrections 
 use of overlap-Matrix (Vanderbilt PP)
 Gauss-broadening in eV      SIGMA  =   0.10


--------------------------------------------------------------------------------------------------------


  energy-cutoff  :     1200.00
  volume of cell :     5296.07
      direct lattice vectors                 reciprocal lattice vectors
    14.546908013  0.000000000  0.000000000     0.068743131  0.000000000  0.000000000
     0.000000000 14.546908013  0.000000000     0.000000000  0.068743131  0.000000000
     0.000000000  0.000000000 25.027194200     0.000000000  0.000000000  0.039956537

  length of vectors
    14.546908013 14.546908013 25.027194200     0.068743131  0.068743131  0.039956537



 old parameters found on file WAVECAR:
  energy-cutoff  :     1200.00
  volume of cell :     5296.07
      direct lattice vectors                 reciprocal lattice vectors
    14.546908013  0.000000000  0.000000000     0.068743131  0.000000000  0.000000000
     0.000000000 14.546908013  0.000000000     0.000000000  0.068743131  0.000000000
     0.000000000  0.000000000 25.027194200     0.000000000  0.000000000  0.039956537

  length of vectors


 k-points in units of 2pi/SCALE and weight: read from INCAR                         
   0.00000000  0.00000000  0.00000000       0.125
   0.03437157  0.00000000  0.00000000       0.125
   0.00000000  0.03437157  0.00000000       0.125
   0.03437157  0.03437157  0.00000000       0.125
   0.00000000  0.00000000  0.01997827       0.125
   0.03437157  0.00000000  0.01997827       0.125
   0.00000000  0.03437157  0.01997827       0.125
   0.03437157  0.03437157  0.01997827       0.125

 k-points in reciprocal lattice and weights: read from INCAR                         
   0.00000000  0.00000000  0.00000000       0.125
   0.50000000  0.00000000  0.00000000       0.125
   0.00000000  0.50000000  0.00000000       0.125
   0.50000000  0.50000000  0.00000000       0.125
   0.00000000  0.00000000  0.50000000       0.125
   0.50000000  0.00000000  0.50000000       0.125
   0.00000000  0.50000000  0.50000000       0.125
   0.50000000  0.50000000  0.50000000       0.125

 position of ions in fractional coordinates (direct lattice) 
   0.86424420  0.67944922  0.57457905
   0.31576685  0.66355781  0.57746792
   0.61106704  0.04746139  0.42177993
   0.16531989  0.21421968  0.38727871
   0.80760381  0.57017367  0.37142977
   0.42375703  0.56891407  0.48119520
   0.84381966  0.12428965  0.45022902
   0.03101186  0.43694333  0.58296645
   0.15914905  0.75800449  0.45216310
   0.33540569  0.09469883  0.52671841
   0.88436949  0.11098667  0.54304010
   0.99434063  0.91688898  0.45904823
   0.82145383  0.25587500  0.55456143
   0.82577581  0.44557553  0.47135994
   0.46405729  0.16667440  0.48781633
   0.78122862  0.83365970  0.42321858
   0.40356712  0.67995216  0.54830154
   0.04795672  0.57951047  0.54032003
   0.65265044  0.78158923  0.54888730
   0.25832454  0.01210088  0.45660355
   0.44698507  0.32441275  0.46489142
   0.98218791  0.86008457  0.54915328
   0.94171267  0.70277248  0.53833850
   0.63932120  0.79148409  0.45717247
   0.59318545  0.01402061  0.55265227
   0.84020823  0.96465683  0.45968496
   0.49677418  0.86650489  0.44361626
   0.10645519  0.02201487  0.48435099
   0.84760230  0.95441541  0.55438328
   0.54026943  0.01963572  0.46212736
   0.65508319  0.62206238  0.55029362
   0.80586470  0.58658245  0.42991673
   0.27722310  0.51793708  0.46301864
   0.23668538  0.18187748  0.58430108
   0.89043467  0.72064268  0.44879806
   0.15381477  0.60962057  0.47665942
   0.56422138  0.40589597  0.42503921
   0.59870842  0.17113027  0.53903864
   0.16101808  0.33147938  0.56694689
   0.40434908  0.83411269  0.51976027
   0.24811344  0.86620013  0.49844899
   0.53113949  0.56050923  0.41296369
   0.68813207  0.36807274  0.47741772
   0.43987246  0.43160732  0.53986199
   0.03946075  0.13916188  0.53264294
   0.65410139  0.62960688  0.45548931
   0.15742567  0.29705608  0.42105176
   0.28078230  0.41952503  0.53745445
   0.70288565  0.91390391  0.58894178
   0.67010066  0.30958037  0.56756618
   0.29320544  0.36127961  0.44839693
   0.93006689  0.36407363  0.52214317
   0.43485895  0.97633159  0.56387853
   0.12804251  0.06964202  0.59880615
   0.06529712  0.28449177  0.49636239
   0.50895300  0.56647782  0.57590716
   0.02433534  0.78808216  0.40875807
   0.13278260  0.92102185  0.55995437
   0.71831419  0.21069025  0.47911509

 position of ions in cartesian coordinates  (Angst):
  12.57208088  9.88388531 14.38010142
   4.59343134  9.65271442 14.45240176
   8.88913608  0.69041655 10.55596810
   2.40489326  3.11623396  9.69249956
  11.74813838  8.29426386  9.29584492
   6.16435458  8.27594060 12.04296584
  12.27496692  1.80803009 11.26796908
   0.45112671  6.35617444 14.59001467
   2.31512653 11.02662157 11.31637368
   4.87911577  1.37757520 13.18228389
  12.86484162  1.61451282 13.59076997
  14.46458170 13.33789963 11.48868915
  11.94961325  3.72219006 13.87911671
  12.01248474  6.48174628 11.79681667
   6.75059866  2.42459720 12.20867402
  11.36446084 12.12717099 10.59197350
   5.87065377  9.89120147 13.72244902
   0.69762196  8.43008546 13.52269441
   9.49404592 11.36970664 13.73710914
   3.75782334  0.17603040 11.42750562
   6.50225063  4.71920240 11.63492795
  14.28779711 12.51157116 13.74376570
  13.69900756 10.22316665 13.47310213
   9.30014672 11.51364621 11.44174418
   8.62901413  0.20395654 13.83133575
  12.22243184 14.03277421 11.50462471
   7.22652834 12.60496690 11.10247037
   1.54859384  0.32024823 12.12194629
  12.32999269 13.88379313 13.87465809
   7.85924971  0.28563903 11.56575113
   9.52943490  9.04908415 13.77230521
  11.72283961  8.53296099 10.75960943
   4.03273887  7.53438307 11.58805738
   3.44304052  2.64575490 14.62341656
  12.95307127 10.48312278 11.23215631
   2.23752931  8.86809435 11.92944777
   8.20767656  5.90453141 10.63753880
   8.70935638  2.48941627 13.49062470
   2.34231523  4.82200000 14.18908980
   5.88202887 12.13376062 13.00814122
   3.60928342 12.60053363 12.47477962
   7.72643735  8.15367621 10.33532245
  10.01019390  5.35432029 11.94842589
   6.39878417  6.27855196 13.51123099
   0.57403184  2.02437513 13.33055838
   9.51515273  9.15883334 11.39961934
   2.29005675  4.32124749 10.53774428
   4.08451425  6.10279200 13.45097697
  10.22481296 13.29447613 14.73956018
   9.74789261  4.50343716 14.20458897
   4.26523257  5.25550128 11.22211711
  13.52959743  5.29614559 13.06777850
   6.32585315 14.20260580 14.11229756
   1.86262264  1.01307605 14.98643772
   0.94987125  4.13847563 12.42255805
   7.40369250  8.24050073 14.41334028
   0.35400400 11.46415875 10.23006767
   1.93157620 13.39802018 14.01408672
  10.44925042  3.06489169 11.99090631



--------------------------------------------------------------------------------------------------------


 k-point     1 :   0.0000 0.0000 0.0000  plane waves:  499741
 k-point     2 :   0.5000 0.0000 0.0000  plane waves:  500030
 k-point     3 :   0.0000 0.5000 0.0000  plane waves:  500030
 k-point     4 :   0.5000 0.5000 0.0000  plane waves:  499852
 k-point     5 :   0.0000 0.0000 0.5000  plane waves:  499854
 k-point     6 :   0.5000 0.0000 0.5000  plane waves:  499936
 k-point     7 :   0.0000 0.5000 0.5000  plane waves:  499936
 k-point     8 :   0.5000 0.5000 0.5000  plane waves:  499808

 maximum and minimum number of plane-waves per node :     31312    31186

 maximum number of plane-waves:    500030
 maximum index in each direction: 
   IXMAX=   41   IYMAX=   41   IZMAX=   70
   IXMIN=  -41   IYMIN=  -41   IZMIN=  -71


 parallel 3D FFT for wavefunctions:
    minimum data exchange during FFTs selected (reduces bandwidth)
 parallel 3D FFT for charge:
    minimum data exchange during FFTs selected (reduces bandwidth)


 total amount of memory used by VASP MPI-rank0   337444. kBytes
=======================================================================

   base                                    :      30000. kBytes
   nonl-proj                               :      61622. kBytes
   fftplans                                :      97989. kBytes
   grid                                    :      75605. kBytes
   one-center                              :         12. kBytes
   wavefun                                 :      72216. kBytes

     INWAV:  cpu time     22.0008: real time     22.0136
 Broyden mixing: mesh for mixing (old mesh)
   NGX = 83   NGY = 83   NGZ =141
  (NGX  =336   NGY  =336   NGZ  =576)
  gives a total of 971349 points

 initial charge density was supplied:
 number of electron     220.9999999 magnetization 
 keeping initial charge density in first step


--------------------------------------------------------------------------------------------------------


 Maximum index for augmentation-charges        11380 (set IRDMAX)


--------------------------------------------------------------------------------------------------------


 First call to EWALD:  gamma=   0.102
 Maximum number of real-space cells   3x   3x   2
 Maximum number of reciprocal cells   2x   2x   4

    FEWALD:  cpu time      0.0111: real time      0.0117


--------------------------------------- Ionic step        1  -------------------------------------------




--------------------------------------- Iteration      1(   1)  ---------------------------------------


    POTLOK:  cpu time      1.9165: real time      1.9171
    SETDIJ:  cpu time      1.2833: real time      1.2849
    EDDIAG:  cpu time     43.0076: real time     43.0312
     EDDAV:  cpu time    185.8775: real time    185.9799
       DOS:  cpu time      0.0104: real time      0.0105
    CHARGE:  cpu time     24.4814: real time     24.5056
    MIXING:  cpu time      0.0476: real time      0.0479
    --------------------------------------------
      LOOP:  cpu time    256.6243: real time    256.7770

 eigenvalue-minimisations  :  2304
 total energy-change (2. order) :-0.5553937E+03  (-0.6459754E+00)
 number of electron     220.9999999 magnetization 
 augmentation part      -12.2186656 magnetization 

 Broyden mixing:
  rms(total) = 0.89047E+00    rms(broyden)= 0.22105E+02
  rms(prec ) = 0.91913E+00
  weight for this iteration     100.00
  WARNING: grid for Broyden might be to small

 Free energy of the ion-electron system (eV)
  ---------------------------------------------------
  alpha Z        PSCENC =        19.47216629
  Ewald energy   TEWEN  =     22938.64115398
  -Hartree energ DENC   =    -27699.05544473
  -exchange      EXHF   =         0.00000000
  -V(xc)+E(xc)   XCENC  =      -254.72658634
  PAW double counting   =     19861.00236190   -19322.60204325
  entropy T*S    EENTRO =        -0.13060100
  eigenvalues    EBANDS =     -1726.04562287
  atomic energy  EATOM  =      5628.05094236
  Solvation  Ediel_sol  =         0.00000000
  ---------------------------------------------------
  free energy    TOTEN  =      -555.39367366 eV

  energy without entropy =     -555.26307266  energy(sigma->0) =     -555.32837316


--------------------------------------------------------------------------------------------------------




--------------------------------------- Iteration      1(   2)  ---------------------------------------


    POTLOK:  cpu time      1.8849: real time      1.9031
    SETDIJ:  cpu time      1.3635: real time      1.3644
    EDDIAG:  cpu time     43.0471: real time     43.0721
     EDDAV:  cpu time    187.3471: real time    187.4535
       DOS:  cpu time      0.0032: real time      0.0032
    CHARGE:  cpu time     24.4238: real time     24.4469
    MIXING:  cpu time      0.0389: real time      0.0390
    --------------------------------------------
      LOOP:  cpu time    258.1086: real time    258.2821

 eigenvalue-minimisations  :  2336
 total energy-change (2. order) : 0.3852674E+02  (-0.6094752E+00)
 number of electron     220.9999999 magnetization 
 augmentation part      -12.1765169 magnetization 

 Broyden mixing:
  rms(total) = 0.60820E+00    rms(broyden)= 0.12684E+02
  rms(prec ) = 0.62267E+00
  weight for this iteration     100.00
  WARNING: grid for Broyden might be to small

 eigenvalues of (default mixing * dielectric matrix)
  average eigenvalue GAMMA=   0.6355
  0.6355

 Free energy of the ion-electron system (eV)
  ---------------------------------------------------
  alpha Z        PSCENC =        19.47216629
  Ewald energy   TEWEN  =     22938.64115398
  -Hartree energ DENC   =    -27689.98408212
  -exchange      EXHF   =         0.00000000
  -V(xc)+E(xc)   XCENC  =      -249.75638229
  PAW double counting   =     23677.33739166   -23138.79957502
  entropy T*S    EENTRO =        -0.12368515
  eigenvalues    EBANDS =     -1701.70486129
  atomic energy  EATOM  =      5628.05094236
  Solvation  Ediel_sol  =         0.00000000
  ---------------------------------------------------
  free energy    TOTEN  =      -516.86693157 eV

  energy without entropy =     -516.74324642  energy(sigma->0) =     -516.80508899


--------------------------------------------------------------------------------------------------------




--------------------------------------- Iteration      1(   3)  ---------------------------------------


    POTLOK:  cpu time      1.8806: real time      1.8987
    SETDIJ:  cpu time      1.2650: real time      1.3018
    EDDIAG:  cpu time     43.1457: real time     43.1711
     EDDAV:  cpu time    186.0343: real time    186.1370
       DOS:  cpu time      0.0043: real time      0.0043
    CHARGE:  cpu time     24.4059: real time     24.4405
    MIXING:  cpu time      0.0369: real time      0.0369
    --------------------------------------------
      LOOP:  cpu time    256.7727: real time    256.9902

 eigenvalue-minimisations  :  2304
 total energy-change (2. order) :-0.1764909E+01  (-0.4745827E+00)
 number of electron     220.9999999 magnetization 
 augmentation part      -12.1376631 magnetization 

 Broyden mixing:
  rms(total) = 0.25819E+00    rms(broyden)= 0.17922E+02
  rms(prec ) = 0.31740E+00
  weight for this iteration     100.00
  WARNING: grid for Broyden might be to small

 eigenvalues of (default mixing * dielectric matrix)
  average eigenvalue GAMMA=   0.7661
  0.9030  0.6293

 Free energy of the ion-electron system (eV)
  ---------------------------------------------------
  alpha Z        PSCENC =        19.47216629
  Ewald energy   TEWEN  =     22938.64115398
  -Hartree energ DENC   =    -27691.58403854
  -exchange      EXHF   =         0.00000000
  -V(xc)+E(xc)   XCENC  =      -251.10076593
  PAW double counting   =     28130.38689634   -27591.93492976
  entropy T*S    EENTRO =        -0.12607410
  eigenvalues    EBANDS =     -1700.43719132
  atomic energy  EATOM  =      5628.05094236
  Solvation  Ediel_sol  =         0.00000000
  ---------------------------------------------------
  free energy    TOTEN  =      -518.63184069 eV

  energy without entropy =     -518.50576659  energy(sigma->0) =     -518.56880364


--------------------------------------------------------------------------------------------------------




--------------------------------------- Iteration      1(   4)  ---------------------------------------


    POTLOK:  cpu time      1.8947: real time      1.8993
    SETDIJ:  cpu time      1.2760: real time      1.2771
    EDDIAG:  cpu time     43.1717: real time     43.1944
     EDDAV:  cpu time    188.8714: real time    188.9777
       DOS:  cpu time      0.0025: real time      0.0025
    CHARGE:  cpu time     24.4123: real time     24.4350
    MIXING:  cpu time      0.0373: real time      0.0373
    --------------------------------------------
      LOOP:  cpu time    259.6659: real time    259.8232

 eigenvalue-minimisations  :  2368
 total energy-change (2. order) : 0.2349689E+00  (-0.5450003E-01)
 number of electron     220.9999999 magnetization 
 augmentation part      -12.1325350 magnetization 

 Broyden mixing:
  rms(total) = 0.52648E-01    rms(broyden)= 0.15697E+01
  rms(prec ) = 0.65835E-01
  weight for this iteration     100.00
  WARNING: grid for Broyden might be to small

 eigenvalues of (default mixing * dielectric matrix)
  average eigenvalue GAMMA=   1.0753
  1.8981  0.7062  0.6217

 Free energy of the ion-electron system (eV)
  ---------------------------------------------------
  alpha Z        PSCENC =        19.47216629
  Ewald energy   TEWEN  =     22938.64115398
  -Hartree energ DENC   =    -27692.42296482
  -exchange      EXHF   =         0.00000000
  -V(xc)+E(xc)   XCENC  =      -251.39341229
  PAW double counting   =     31780.19503191   -31241.77618227
  entropy T*S    EENTRO =        -0.13132095
  eigenvalues    EBANDS =     -1699.03228597
  atomic energy  EATOM  =      5628.05094236
  Solvation  Ediel_sol  =         0.00000000
  ---------------------------------------------------
  free energy    TOTEN  =      -518.39687177 eV

  energy without entropy =     -518.26555082  energy(sigma->0) =     -518.33121129


--------------------------------------------------------------------------------------------------------




--------------------------------------- Iteration      1(   5)  ---------------------------------------


    POTLOK:  cpu time      1.8831: real time      1.8974
    SETDIJ:  cpu time      1.2724: real time      1.2737
    EDDIAG:  cpu time     43.1685: real time     43.1939
     EDDAV:  cpu time    205.8486: real time    205.9737
       DOS:  cpu time      0.0024: real time      0.0024
    CHARGE:  cpu time     24.4313: real time     24.4542
    MIXING:  cpu time      0.0374: real time      0.0374
    --------------------------------------------
      LOOP:  cpu time    276.6436: real time    276.8327

 eigenvalue-minimisations  :  2752
 total energy-change (2. order) :-0.2070256E-01  (-0.7387147E-02)
 number of electron     220.9999999 magnetization 
 augmentation part      -12.1345814 magnetization 

 Broyden mixing:
  rms(total) = 0.41650E-01    rms(broyden)= 0.44729E+00
  rms(prec ) = 0.54609E-01
  weight for this iteration     100.00
  WARNING: grid for Broyden might be to small

 eigenvalues of (default mixing * dielectric matrix)
  average eigenvalue GAMMA=   1.0574
  2.3384  0.7898  0.6244  0.4769

 Free energy of the ion-electron system (eV)
  ---------------------------------------------------
  alpha Z        PSCENC =        19.47216629
  Ewald energy   TEWEN  =     22938.64115398
  -Hartree energ DENC   =    -27692.41436727
  -exchange      EXHF   =         0.00000000
  -V(xc)+E(xc)   XCENC  =      -252.02504608
  PAW double counting   =     31443.98975884   -30905.55178974
  entropy T*S    EENTRO =        -0.12071178
  eigenvalues    EBANDS =     -1698.45968093
  atomic energy  EATOM  =      5628.05094236
  Solvation  Ediel_sol  =         0.00000000
  ---------------------------------------------------
  free energy    TOTEN  =      -518.41757433 eV

  energy without entropy =     -518.29686255  energy(sigma->0) =     -518.35721844


--------------------------------------------------------------------------------------------------------




--------------------------------------- Iteration      1(   6)  ---------------------------------------


    POTLOK:  cpu time      1.8754: real time      1.8957
    SETDIJ:  cpu time      1.2765: real time      1.2773
    EDDIAG:  cpu time     43.1077: real time     43.1313
     EDDAV:  cpu time    191.6553: real time    191.7655
       DOS:  cpu time      0.0052: real time      0.0052
    CHARGE:  cpu time     24.4204: real time     24.4430
    MIXING:  cpu time      0.0380: real time      0.0380
    --------------------------------------------
      LOOP:  cpu time    262.3785: real time    262.5559

 eigenvalue-minimisations  :  2432
 total energy-change (2. order) : 0.9075573E-03  (-0.2748928E-02)
 number of electron     220.9999999 magnetization 
 augmentation part      -12.1339244 magnetization 

 Broyden mixing:
  rms(total) = 0.20538E-01    rms(broyden)= 0.27184E+00
  rms(prec ) = 0.21952E-01
  weight for this iteration     100.00
  WARNING: grid for Broyden might be to small

 eigenvalues of (default mixing * dielectric matrix)
  average eigenvalue GAMMA=   1.0744
  2.5881  1.0317  0.7033  0.6223  0.4266

 Free energy of the ion-electron system (eV)
  ---------------------------------------------------
  alpha Z        PSCENC =        19.47216629
  Ewald energy   TEWEN  =     22938.64115398
  -Hartree energ DENC   =    -27692.41711115
  -exchange      EXHF   =         0.00000000
  -V(xc)+E(xc)   XCENC  =      -252.18345049
  PAW double counting   =     31338.60990653   -30800.16447536
  entropy T*S    EENTRO =        -0.12644107
  eigenvalues    EBANDS =     -1698.29935786
  atomic energy  EATOM  =      5628.05094236
  Solvation  Ediel_sol  =         0.00000000
  ---------------------------------------------------
  free energy    TOTEN  =      -518.41666677 eV

  energy without entropy =     -518.29022571  energy(sigma->0) =     -518.35344624


--------------------------------------------------------------------------------------------------------




--------------------------------------- Iteration      1(   7)  ---------------------------------------


    POTLOK:  cpu time      1.8855: real time      1.8996
    SETDIJ:  cpu time      1.2830: real time      1.2837
    EDDIAG:  cpu time     43.0809: real time     43.1041
     EDDAV:  cpu time    192.0613: real time    192.1634
       DOS:  cpu time      0.0048: real time      0.0048
    CHARGE:  cpu time     24.4549: real time     24.4783
    MIXING:  cpu time      0.0386: real time      0.0386
    --------------------------------------------
      LOOP:  cpu time    262.8089: real time    262.9725

 eigenvalue-minimisations  :  2440
 total energy-change (2. order) :-0.1040458E-02  (-0.1148039E-02)
 number of electron     220.9999999 magnetization 
 augmentation part      -12.1323790 magnetization 

 Broyden mixing:
  rms(total) = 0.97326E-02    rms(broyden)= 0.12214E+00
  rms(prec ) = 0.10663E-01
  weight for this iteration     100.00
  WARNING: grid for Broyden might be to small

 eigenvalues of (default mixing * dielectric matrix)
  average eigenvalue GAMMA=   1.0885
  2.6472  1.3581  0.8178  0.6511  0.6272  0.4295

 Free energy of the ion-electron system (eV)
  ---------------------------------------------------
  alpha Z        PSCENC =        19.47216629
  Ewald energy   TEWEN  =     22938.64115398
  -Hartree energ DENC   =    -27692.54032948
  -exchange      EXHF   =         0.00000000
  -V(xc)+E(xc)   XCENC  =      -252.08548736
  PAW double counting   =     31329.12087805   -30790.66571762
  entropy T*S    EENTRO =        -0.12677035
  eigenvalues    EBANDS =     -1698.28454310
  atomic energy  EATOM  =      5628.05094236
  Solvation  Ediel_sol  =         0.00000000
  ---------------------------------------------------
  free energy    TOTEN  =      -518.41770723 eV

  energy without entropy =     -518.29093688  energy(sigma->0) =     -518.35432206


--------------------------------------------------------------------------------------------------------




--------------------------------------- Iteration      1(   8)  ---------------------------------------


    POTLOK:  cpu time      1.8762: real time      1.8925
    SETDIJ:  cpu time      1.2859: real time      1.2865
    EDDIAG:  cpu time     43.1855: real time     43.2071
     EDDAV:  cpu time    200.1139: real time    200.2194
       DOS:  cpu time      0.0027: real time      0.0027
    CHARGE:  cpu time     24.4302: real time     24.4526
    MIXING:  cpu time      0.0391: real time      0.0392
    --------------------------------------------
      LOOP:  cpu time    270.9334: real time    271.0999

 eigenvalue-minimisations  :  2624
 total energy-change (2. order) :-0.5983738E-03  (-0.2157144E-03)
 number of electron     220.9999999 magnetization 
 augmentation part      -12.1320294 magnetization 

 Broyden mixing:
  rms(total) = 0.36047E-02    rms(broyden)= 0.85859E-01
  rms(prec ) = 0.44843E-02
  weight for this iteration     100.00
  WARNING: grid for Broyden might be to small

 eigenvalues of (default mixing * dielectric matrix)
  average eigenvalue GAMMA=   1.3078
  3.2349  2.3847  1.0889  0.4303  0.7513  0.6322  0.6322

 Free energy of the ion-electron system (eV)
  ---------------------------------------------------
  alpha Z        PSCENC =        19.47216629
  Ewald energy   TEWEN  =     22938.64115398
  -Hartree energ DENC   =    -27692.46457403
  -exchange      EXHF   =         0.00000000
  -V(xc)+E(xc)   XCENC  =      -252.03828696
  PAW double counting   =     31345.86728162   -30807.40438968
  entropy T*S    EENTRO =        -0.12594008
  eigenvalues    EBANDS =     -1698.41665911
  atomic energy  EATOM  =      5628.05094236
  Solvation  Ediel_sol  =         0.00000000
  ---------------------------------------------------
  free energy    TOTEN  =      -518.41830560 eV

  energy without entropy =     -518.29236552  energy(sigma->0) =     -518.35533556


--------------------------------------------------------------------------------------------------------




--------------------------------------- Iteration      1(   9)  ---------------------------------------


    POTLOK:  cpu time      1.8799: real time      1.8964
    SETDIJ:  cpu time      1.2764: real time      1.2771
    EDDIAG:  cpu time     43.1514: real time     43.1746
     EDDAV:  cpu time    193.0607: real time    193.1666
       DOS:  cpu time      0.0026: real time      0.0026
    CHARGE:  cpu time     24.4123: real time     24.4336
    MIXING:  cpu time      0.0399: real time      0.0399
    --------------------------------------------
      LOOP:  cpu time    263.8234: real time    263.9908

 eigenvalue-minimisations  :  2464
 total energy-change (2. order) : 0.1094818E-04  (-0.5785035E-04)
 number of electron     220.9999999 magnetization 
 augmentation part      -12.1321149 magnetization 

 Broyden mixing:
  rms(total) = 0.19777E-02    rms(broyden)= 0.69025E-01
  rms(prec ) = 0.24531E-02
  weight for this iteration     100.00
  WARNING: grid for Broyden might be to small

 eigenvalues of (default mixing * dielectric matrix)
  average eigenvalue GAMMA=   1.5158
  5.1290  2.5453  1.1935  0.8834  0.4302  0.6961  0.6346  0.6147

 Free energy of the ion-electron system (eV)
  ---------------------------------------------------
  alpha Z        PSCENC =        19.47216629
  Ewald energy   TEWEN  =     22938.64115398
  -Hartree energ DENC   =    -27692.34992008
  -exchange      EXHF   =         0.00000000
  -V(xc)+E(xc)   XCENC  =      -252.05422157
  PAW double counting   =     31351.20692186   -30812.74283787
  entropy T*S    EENTRO =        -0.12607436
  eigenvalues    EBANDS =     -1698.51642527
  atomic energy  EATOM  =      5628.05094236
  Solvation  Ediel_sol  =         0.00000000
  ---------------------------------------------------
  free energy    TOTEN  =      -518.41829466 eV

  energy without entropy =     -518.29222029  energy(sigma->0) =     -518.35525747


--------------------------------------------------------------------------------------------------------




--------------------------------------- Iteration      1(  10)  ---------------------------------------


    POTLOK:  cpu time      1.8800: real time      1.8972
    SETDIJ:  cpu time      1.2854: real time      1.2861
    EDDIAG:  cpu time     43.1398: real time     43.1638
     EDDAV:  cpu time    197.2560: real time    197.3728
       DOS:  cpu time      0.0032: real time      0.0032
    CHARGE:  cpu time     24.4458: real time     24.4677
    MIXING:  cpu time      0.0410: real time      0.0410
    --------------------------------------------
      LOOP:  cpu time    268.0511: real time    268.2317

 eigenvalue-minimisations  :  2560
 total energy-change (2. order) :-0.1935395E-04  (-0.2455141E-04)
 number of electron     220.9999999 magnetization 
 augmentation part      -12.1321209 magnetization 

 Broyden mixing:
  rms(total) = 0.10922E-02    rms(broyden)= 0.59511E-01
  rms(prec ) = 0.14398E-02
  weight for this iteration     100.00
  WARNING: grid for Broyden might be to small

 eigenvalues of (default mixing * dielectric matrix)
  average eigenvalue GAMMA=   1.6416
  6.5850  2.5922  1.4454  1.0236  0.8012  0.4289  0.6875  0.6251  0.5857

 Free energy of the ion-electron system (eV)
  ---------------------------------------------------
  alpha Z        PSCENC =        19.47216629
  Ewald energy   TEWEN  =     22938.64115398
  -Hartree energ DENC   =    -27692.21182299
  -exchange      EXHF   =         0.00000000
  -V(xc)+E(xc)   XCENC  =      -252.05877411
  PAW double counting   =     31349.96961503   -30811.50452139
  entropy T*S    EENTRO =        -0.12635245
  eigenvalues    EBANDS =     -1698.65072072
  atomic energy  EATOM  =      5628.05094236
  Solvation  Ediel_sol  =         0.00000000
  ---------------------------------------------------
  free energy    TOTEN  =      -518.41831401 eV

  energy without entropy =     -518.29196156  energy(sigma->0) =     -518.35513778


--------------------------------------------------------------------------------------------------------




--------------------------------------- Iteration      1(  11)  ---------------------------------------


    POTLOK:  cpu time      1.8851: real time      1.8991
    SETDIJ:  cpu time      1.2796: real time      1.2804
    EDDIAG:  cpu time     43.1683: real time     43.1885
     EDDAV:  cpu time    191.7797: real time    191.8895
       DOS:  cpu time      0.0026: real time      0.0026
    CHARGE:  cpu time     24.4303: real time     24.4527
    MIXING:  cpu time      0.0419: real time      0.0420
    --------------------------------------------
      LOOP:  cpu time    262.5874: real time    262.7547

 eigenvalue-minimisations  :  2432
 total energy-change (2. order) :-0.4226303E-04  (-0.1607132E-04)
 number of electron     220.9999999 magnetization 
 augmentation part      -12.1321935 magnetization 

 Broyden mixing:
  rms(total) = 0.53669E-03    rms(broyden)= 0.49761E-01
  rms(prec ) = 0.89273E-03
  weight for this iteration     100.00
  WARNING: grid for Broyden might be to small

 eigenvalues of (default mixing * dielectric matrix)
  average eigenvalue GAMMA=   1.7559
  8.1258  2.6459  1.9490  1.1091  0.8440  0.4276  0.6454  0.6454  0.5834  0.5834

 Free energy of the ion-electron system (eV)
  ---------------------------------------------------
  alpha Z        PSCENC =        19.47216629
  Ewald energy   TEWEN  =     22938.64115398
  -Hartree energ DENC   =    -27692.06350672
  -exchange      EXHF   =         0.00000000
  -V(xc)+E(xc)   XCENC  =      -252.06413966
  PAW double counting   =     31347.28588612   -30808.82004942
  entropy T*S    EENTRO =        -0.12630781
  eigenvalues    EBANDS =     -1698.79450141
  atomic energy  EATOM  =      5628.05094236
  Solvation  Ediel_sol  =         0.00000000
  ---------------------------------------------------
  free energy    TOTEN  =      -518.41835627 eV

  energy without entropy =     -518.29204847  energy(sigma->0) =     -518.35520237


--------------------------------------------------------------------------------------------------------




--------------------------------------- Iteration      1(  12)  ---------------------------------------


    POTLOK:  cpu time      1.8786: real time      1.8970
    SETDIJ:  cpu time      1.2802: real time      1.2810
    EDDIAG:  cpu time     43.0918: real time     43.1156
     EDDAV:  cpu time    191.6775: real time    191.7809
       DOS:  cpu time      0.0024: real time      0.0024
    CHARGE:  cpu time     24.4430: real time     24.4653
    MIXING:  cpu time      0.0420: real time      0.0420
    --------------------------------------------
      LOOP:  cpu time    262.4154: real time    262.5843

 eigenvalue-minimisations  :  2432
 total energy-change (2. order) :-0.6810200E-04  (-0.1256232E-04)
 number of electron     220.9999999 magnetization 
 augmentation part      -12.1322275 magnetization 

 Broyden mixing:
  rms(total) = 0.33397E-03    rms(broyden)= 0.41137E-01
  rms(prec ) = 0.65299E-03
  weight for this iteration     100.00
  WARNING: grid for Broyden might be to small

 eigenvalues of (default mixing * dielectric matrix)
  average eigenvalue GAMMA=   1.8641
  9.3239  2.7220  2.5007  1.2106  1.0311  0.8343  0.4281  0.6671  0.6289  0.5793
  0.5793

 Free energy of the ion-electron system (eV)
  ---------------------------------------------------
  alpha Z        PSCENC =        19.47216629
  Ewald energy   TEWEN  =     22938.64115398
  -Hartree energ DENC   =    -27691.94141539
  -exchange      EXHF   =         0.00000000
  -V(xc)+E(xc)   XCENC  =      -252.06803517
  PAW double counting   =     31347.42277938   -30808.95682324
  entropy T*S    EENTRO =        -0.12623789
  eigenvalues    EBANDS =     -1698.91295469
  atomic energy  EATOM  =      5628.05094236
  Solvation  Ediel_sol  =         0.00000000
  ---------------------------------------------------
  free energy    TOTEN  =      -518.41842438 eV

  energy without entropy =     -518.29218648  energy(sigma->0) =     -518.35530543


--------------------------------------------------------------------------------------------------------




--------------------------------------- Iteration      1(  13)  ---------------------------------------


    POTLOK:  cpu time      1.8776: real time      1.8982
    SETDIJ:  cpu time      1.2742: real time      1.2751
    EDDIAG:  cpu time     43.1105: real time     43.1357
     EDDAV:  cpu time    191.9056: real time    192.0165
       DOS:  cpu time      0.0036: real time      0.0036
    CHARGE:  cpu time     24.4092: real time     24.4307
    MIXING:  cpu time      0.0429: real time      0.0429
    --------------------------------------------
      LOOP:  cpu time    262.6235: real time    262.8027

 eigenvalue-minimisations  :  2432
 total energy-change (2. order) :-0.7751584E-04  (-0.1158410E-04)
 number of electron     220.9999999 magnetization 
 augmentation part      -12.1322598 magnetization 

 Broyden mixing:
  rms(total) = 0.18517E-03    rms(broyden)= 0.33196E-01
  rms(prec ) = 0.45655E-03
  weight for this iteration     100.00
  WARNING: grid for Broyden might be to small

 eigenvalues of (default mixing * dielectric matrix)
  average eigenvalue GAMMA=   1.8700
  9.7879  2.9658  2.6302  1.4207  1.0725  0.9033  0.4284  0.7547  0.6635  0.6231
  0.6099  0.5803

 Free energy of the ion-electron system (eV)
  ---------------------------------------------------
  alpha Z        PSCENC =        19.47216629
  Ewald energy   TEWEN  =     22938.64115398
  -Hartree energ DENC   =    -27691.83358732
  -exchange      EXHF   =         0.00000000
  -V(xc)+E(xc)   XCENC  =      -252.07219403
  PAW double counting   =     31347.99586402   -30809.53011025
  entropy T*S    EENTRO =        -0.12627262
  eigenvalues    EBANDS =     -1699.01646432
  atomic energy  EATOM  =      5628.05094236
  Solvation  Ediel_sol  =         0.00000000
  ---------------------------------------------------
  free energy    TOTEN  =      -518.41850189 eV

  energy without entropy =     -518.29222927  energy(sigma->0) =     -518.35536558


--------------------------------------------------------------------------------------------------------




--------------------------------------- Iteration      1(  14)  ---------------------------------------


    POTLOK:  cpu time      1.8984: real time      1.9000
    SETDIJ:  cpu time      1.2797: real time      1.2805
    EDDIAG:  cpu time     43.2031: real time     43.2297
     EDDAV:  cpu time    191.9665: real time    192.0754
       DOS:  cpu time      0.0026: real time      0.0026
    CHARGE:  cpu time     24.4280: real time     24.4507
    MIXING:  cpu time      0.0431: real time      0.0431
    --------------------------------------------
      LOOP:  cpu time    262.8214: real time    262.9820

 eigenvalue-minimisations  :  2432
 total energy-change (2. order) :-0.1000796E-03  (-0.1602916E-04)
 number of electron     220.9999999 magnetization 
 augmentation part      -12.1322857 magnetization 

 Broyden mixing:
  rms(total) = 0.17719E-03    rms(broyden)= 0.23251E-01
  rms(prec ) = 0.35538E-03
  weight for this iteration     100.00
  WARNING: grid for Broyden might be to small

 eigenvalues of (default mixing * dielectric matrix)
  average eigenvalue GAMMA=   1.8358
  9.9028  3.1347  2.6455  1.6330  1.1119  0.9999  0.8558  0.4284  0.6951  0.6489
  0.6060  0.6060  0.5980

 Free energy of the ion-electron system (eV)
  ---------------------------------------------------
  alpha Z        PSCENC =        19.47216629
  Ewald energy   TEWEN  =     22938.64115398
  -Hartree energ DENC   =    -27691.70356058
  -exchange      EXHF   =         0.00000000
  -V(xc)+E(xc)   XCENC  =      -252.07576057
  PAW double counting   =     31347.64180834   -30809.17634593
  entropy T*S    EENTRO =        -0.12629098
  eigenvalues    EBANDS =     -1699.14271489
  atomic energy  EATOM  =      5628.05094236
  Solvation  Ediel_sol  =         0.00000000
  ---------------------------------------------------
  free energy    TOTEN  =      -518.41860197 eV

  energy without entropy =     -518.29231099  energy(sigma->0) =     -518.35545648


--------------------------------------------------------------------------------------------------------




--------------------------------------- Iteration      1(  15)  ---------------------------------------


    POTLOK:  cpu time      1.8778: real time      1.8956
    SETDIJ:  cpu time      1.2788: real time      1.2796
    EDDIAG:  cpu time     43.2168: real time     43.2419
     EDDAV:  cpu time    194.1350: real time    194.2439
       DOS:  cpu time      0.0146: real time      0.0150
    CHARGE:  cpu time     24.3961: real time     24.4173
    MIXING:  cpu time      0.0585: real time      0.0589
    --------------------------------------------
      LOOP:  cpu time    264.9775: real time    265.1521

 eigenvalue-minimisations  :  2480
 total energy-change (2. order) :-0.9590780E-04  (-0.1464363E-04)
 number of electron     220.9999999 magnetization 
 augmentation part      -12.1323124 magnetization 

 Broyden mixing:
  rms(total) = 0.10070E-03    rms(broyden)= 0.12883E-01
  rms(prec ) = 0.18416E-03
  weight for this iteration     100.00
  WARNING: grid for Broyden might be to small

 eigenvalues of (default mixing * dielectric matrix)
  average eigenvalue GAMMA=   1.8327
  9.9711  3.3986  2.6337  2.1239  1.3151  1.0433  0.9308  0.4283  0.7439  0.6846
  0.6326  0.5890  0.5890  0.5742

 Free energy of the ion-electron system (eV)
  ---------------------------------------------------
  alpha Z        PSCENC =        19.47216629
  Ewald energy   TEWEN  =     22938.64115398
  -Hartree energ DENC   =    -27691.57893322
  -exchange      EXHF   =         0.00000000
  -V(xc)+E(xc)   XCENC  =      -252.07784468
  PAW double counting   =     31347.87555797   -30809.41032665
  entropy T*S    EENTRO =        -0.12627518
  eigenvalues    EBANDS =     -1699.26513874
  atomic energy  EATOM  =      5628.05094236
  Solvation  Ediel_sol  =         0.00000000
  ---------------------------------------------------
  free energy    TOTEN  =      -518.41869788 eV

  energy without entropy =     -518.29242270  energy(sigma->0) =     -518.35556029


--------------------------------------------------------------------------------------------------------




--------------------------------------- Iteration      1(  16)  ---------------------------------------


    POTLOK:  cpu time      1.8968: real time      1.8998
    SETDIJ:  cpu time      1.2861: real time      1.2875
    EDDIAG:  cpu time     43.2168: real time     43.2411
     EDDAV:  cpu time    192.0184: real time    192.1253
       DOS:  cpu time      0.0025: real time      0.0025
    CHARGE:  cpu time     24.4409: real time     24.4638
    MIXING:  cpu time      0.0449: real time      0.0449
    --------------------------------------------
      LOOP:  cpu time    262.9064: real time    263.0648

 eigenvalue-minimisations  :  2432
 total energy-change (2. order) :-0.3816112E-04  (-0.5759133E-05)
 number of electron     220.9999999 magnetization 
 augmentation part      -12.1323196 magnetization 

 Broyden mixing:
  rms(total) = 0.67460E-04    rms(broyden)= 0.75515E-02
  rms(prec ) = 0.11484E-03
  weight for this iteration     100.00
  WARNING: grid for Broyden might be to small

 eigenvalues of (default mixing * dielectric matrix)
  average eigenvalue GAMMA=   1.7944
  9.9890  3.5210  2.6453  2.3231  1.3811  1.0289  0.9183  0.9183  0.4283  0.7329
  0.6676  0.6176  0.5938  0.5938  0.5570

 Free energy of the ion-electron system (eV)
  ---------------------------------------------------
  alpha Z        PSCENC =        19.47216629
  Ewald energy   TEWEN  =     22938.64115398
  -Hartree energ DENC   =    -27691.52262996
  -exchange      EXHF   =         0.00000000
  -V(xc)+E(xc)   XCENC  =      -252.07802684
  PAW double counting   =     31347.96969912   -30809.50449420
  entropy T*S    EENTRO =        -0.12627735
  eigenvalues    EBANDS =     -1699.32126943
  atomic energy  EATOM  =      5628.05094236
  Solvation  Ediel_sol  =         0.00000000
  ---------------------------------------------------
  free energy    TOTEN  =      -518.41873604 eV

  energy without entropy =     -518.29245869  energy(sigma->0) =     -518.35559736


--------------------------------------------------------------------------------------------------------




--------------------------------------- Iteration      1(  17)  ---------------------------------------


    POTLOK:  cpu time      1.8830: real time      1.9003
    SETDIJ:  cpu time      1.2764: real time      1.2773
    EDDIAG:  cpu time     43.0937: real time     43.1169
     EDDAV:  cpu time    189.5461: real time    189.6539
       DOS:  cpu time      0.0030: real time      0.0031
    CHARGE:  cpu time     24.4402: real time     24.4620
    MIXING:  cpu time      0.0457: real time      0.0457
    --------------------------------------------
      LOOP:  cpu time    260.2881: real time    260.4591

 eigenvalue-minimisations  :  2384
 total energy-change (2. order) :-0.1542585E-04  (-0.1998239E-05)
 number of electron     220.9999999 magnetization 
 augmentation part      -12.1323262 magnetization 

 Broyden mixing:
  rms(total) = 0.46652E-04    rms(broyden)= 0.41973E-02
  rms(prec ) = 0.76610E-04
  weight for this iteration     100.00
  WARNING: grid for Broyden might be to small

 eigenvalues of (default mixing * dielectric matrix)
  average eigenvalue GAMMA=   1.7861
  9.9965  3.6698  2.5948  2.5948  1.5692  1.2871  1.0292  0.8877  0.7631  0.7631
  0.4283  0.6469  0.6168  0.5957  0.5957  0.5392

 Free energy of the ion-electron system (eV)
  ---------------------------------------------------
  alpha Z        PSCENC =        19.47216629
  Ewald energy   TEWEN  =     22938.64115398
  -Hartree energ DENC   =    -27691.49416682
  -exchange      EXHF   =         0.00000000
  -V(xc)+E(xc)   XCENC  =      -252.07831324
  PAW double counting   =     31347.85167128   -30809.38643685
  entropy T*S    EENTRO =        -0.12628607
  eigenvalues    EBANDS =     -1699.34948239
  atomic energy  EATOM  =      5628.05094236
  Solvation  Ediel_sol  =         0.00000000
  ---------------------------------------------------
  free energy    TOTEN  =      -518.41875147 eV

  energy without entropy =     -518.29246540  energy(sigma->0) =     -518.35560843


--------------------------------------------------------------------------------------------------------




--------------------------------------- Iteration      1(  18)  ---------------------------------------


    POTLOK:  cpu time      1.9022: real time      1.9093
    SETDIJ:  cpu time      1.2767: real time      1.2774
    EDDIAG:  cpu time     43.1495: real time     43.1720
     EDDAV:  cpu time    189.5626: real time    189.6704
       DOS:  cpu time      0.0032: real time      0.0032
    CHARGE:  cpu time     24.3388: real time     24.3612
    MIXING:  cpu time      0.0466: real time      0.0466
    --------------------------------------------
      LOOP:  cpu time    260.2795: real time    260.4401

 eigenvalue-minimisations  :  2384
 total energy-change (2. order) :-0.2588466E-05  (-0.5916521E-06)
 number of electron     220.9999999 magnetization 
 augmentation part      -12.1323279 magnetization 

 Broyden mixing:
  rms(total) = 0.29788E-04    rms(broyden)= 0.27613E-02
  rms(prec ) = 0.49494E-04
  weight for this iteration     100.00
  WARNING: grid for Broyden might be to small

 eigenvalues of (default mixing * dielectric matrix)
  average eigenvalue GAMMA=   1.7622
  9.9988  3.7899  2.6808  2.6808  1.8244  1.3497  0.9741  0.8939  0.8939  0.7818
  0.4283  0.7021  0.6248  0.6248  0.5913  0.5913  0.5260

 Free energy of the ion-electron system (eV)
  ---------------------------------------------------
  alpha Z        PSCENC =        19.47216629
  Ewald energy   TEWEN  =     22938.64115398
  -Hartree energ DENC   =    -27691.48829958
  -exchange      EXHF   =         0.00000000
  -V(xc)+E(xc)   XCENC  =      -252.07830420
  PAW double counting   =     31347.80865045   -30809.34338858
  entropy T*S    EENTRO =        -0.12628252
  eigenvalues    EBANDS =     -1699.35539226
  atomic energy  EATOM  =      5628.05094236
  Solvation  Ediel_sol  =         0.00000000
  ---------------------------------------------------
  free energy    TOTEN  =      -518.41875405 eV

  energy without entropy =     -518.29247153  energy(sigma->0) =     -518.35561279


--------------------------------------------------------------------------------------------------------




[...]
    OFIELD:  cpu time      0.0003: real time      0.0003

  FORCE on cell =-STRESS in cart. coord.  units (eV):
  Direction    XX          YY          ZZ          XY          YZ          ZX
  --------------------------------------------------------------------------------------
  Alpha Z    19.47217    19.47217    19.47217
  Ewald   26704.71846 26719.32298-30485.41965   165.34184    95.52723   -19.40042
  Hartree 27137.58599 27080.81845-26526.89952   109.67509    85.93980    -8.59862
  E(xc)    -664.16516  -664.75894  -661.27887    -0.35557     0.15841     0.39123
  Local  -56490.40587-56443.76011 54399.26231  -284.17430  -171.74146    31.19847
  n-local  2058.47905  2063.37845  1971.95376    12.02363    -7.48567    -8.20389
  augment  -300.45476  -300.20430  -294.77064    -1.34547     1.10748     0.58311
  Kinetic  1526.76313  1504.74151  1582.39644     2.83296    -6.08012     3.93149
  Fock        0.00000     0.00000     0.00000     0.00000     0.00000     0.00000
  -------------------------------------------------------------------------------------
  Total      -8.00699   -20.98979     4.71599     3.99819    -2.57433    -0.09862
  in kB      -2.42229    -6.34988     1.42669     1.20954    -0.77879    -0.02983
  external pressure =       -2.45 kB  Pullay stress =        0.00 kB


 VOLUME and BASIS-vectors are now :
 -----------------------------------------------------------------------------
  energy-cutoff  :     1200.00
  volume of cell :     5296.07
      direct lattice vectors                 reciprocal lattice vectors
    14.546908013  0.000000000  0.000000000     0.068743131  0.000000000  0.000000000
     0.000000000 14.546908013  0.000000000     0.000000000  0.068743131  0.000000000
     0.000000000  0.000000000 25.027194200     0.000000000  0.000000000  0.039956537

  length of vectors
    14.546908013 14.546908013 25.027194200     0.068743131  0.068743131  0.039956537


 FORCES acting on ions
    electron-ion (+dipol)            ewald-force                    non-local-force                 convergence-correction
 -----------------------------------------------------------------------------------------------
   0.140E+02 0.110E+02 -.583E+02   -.163E+02 -.117E+02 0.603E+02   0.239E+01 0.713E+00 -.188E+01   -.179E-04 0.834E-05 0.140E-04
   0.226E+02 0.875E+00 -.566E+02   -.253E+02 -.133E+01 0.580E+02   0.267E+01 0.538E+00 -.156E+01   0.214E-04 0.273E-04 0.124E-04
   -.113E+02 -.726E+01 0.651E+02   0.135E+02 0.798E+01 -.671E+02   -.207E+01 -.839E+00 0.206E+01   -.332E-04 -.312E-04 0.758E-05
   -.309E+00 0.171E+02 0.693E+02   0.570E+00 -.199E+02 -.712E+02   -.252E+00 0.259E+01 0.184E+01   0.257E-05 -.742E-04 -.776E-04
   -.510E+01 0.852E+01 0.801E+02   0.512E+01 -.910E+01 -.833E+02   -.603E-01 0.473E+00 0.310E+01   -.366E-05 0.192E-04 -.221E-04
   0.133E+02 -.303E+02 0.692E+02   -.142E+02 0.301E+02 -.702E+02   0.104E+01 0.257E+00 0.720E+00   0.310E-04 0.952E-04 -.553E-06
   -.872E+01 -.279E+02 0.187E+03   0.117E+02 0.293E+02 -.188E+03   -.221E+01 -.121E+01 0.836E+00   -.827E-04 -.320E-04 -.147E-03
   0.114E+02 -.269E+02 -.206E+03   -.134E+02 0.264E+02 0.208E+03   0.202E+01 0.324E+00 -.140E+01   -.438E-04 0.287E-04 0.154E-03
   -.400E+02 0.156E+02 0.133E+03   0.369E+02 -.164E+02 -.131E+03   0.267E+01 0.109E+01 -.148E+01   0.828E-04 0.377E-04 -.790E-04
   -.126E+01 -.156E+02 -.576E+02   0.962E+00 0.154E+02 0.550E+02   0.410E+00 0.182E+00 0.227E+01   0.283E-03 -.260E-03 0.103E-03
   0.967E+01 -.875E+01 -.127E+03   -.752E+01 0.945E+01 0.125E+03   -.172E+01 -.709E+00 0.246E+01   -.109E-03 -.667E-04 0.110E-03
   -.153E+02 -.168E+02 0.140E+03   0.148E+02 0.156E+02 -.139E+03   0.424E+00 0.142E+01 -.966E+00   -.224E-04 -.606E-04 -.106E-03
   -.102E+02 -.225E+02 -.161E+03   0.974E+01 0.219E+02 0.160E+03   0.309E+00 0.455E+00 0.130E+01   -.120E-03 -.177E-04 0.113E-03
   -.308E+02 -.571E+01 0.790E+02   0.298E+02 0.494E+01 -.791E+02   0.103E+01 0.611E+00 0.306E+00   -.603E-04 0.498E-04 -.307E-04
   0.183E+02 -.138E+02 0.658E+02   -.182E+02 0.126E+02 -.629E+02   -.245E-01 0.764E+00 -.266E+01   0.456E-04 -.209E-03 0.602E-04
   0.158E+02 -.961E+01 0.210E+03   -.157E+02 0.102E+02 -.210E+03   -.247E+00 -.592E+00 0.185E-01   -.107E-03 0.106E-06 -.101E-03
   0.169E+02 -.249E+02 -.127E+03   -.193E+02 0.230E+02 0.127E+03   0.224E+01 0.181E+01 0.327E+00   0.397E-04 0.138E-03 0.432E-04
   -.810E+00 0.203E+01 -.107E+03   0.174E+01 -.156E+01 0.105E+03   -.508E+00 -.267E+00 0.116E+01   -.226E-06 0.132E-03 0.155E-04
   0.481E+01 0.979E+01 -.147E+03   -.492E+01 -.979E+01 0.145E+03   0.456E-01 -.849E-01 0.217E+01   -.101E-03 0.905E-04 0.329E-04
   -.239E+02 -.142E+02 0.171E+03   0.249E+02 0.142E+02 -.173E+03   -.564E+00 0.288E+00 0.198E+01   0.221E-03 -.122E-03 -.716E-04
   -.317E-01 0.319E+02 0.102E+03   0.471E+00 -.307E+02 -.103E+03   -.367E+00 -.128E+01 0.420E+00   0.994E-04 -.417E-04 0.186E-04
   -.760E+01 0.337E+02 -.162E+03   0.749E+01 -.332E+02 0.158E+03   0.141E+00 -.599E+00 0.315E+01   -.595E-04 -.367E-04 0.730E-04
   -.980E+01 0.313E+02 -.117E+03   0.616E+01 -.310E+02 0.117E+03   0.329E+01 -.238E+00 0.265E+00   -.590E-04 0.294E-04 0.390E-04
   0.212E+02 -.124E+02 0.127E+03   -.195E+02 0.112E+02 -.125E+03   -.135E+01 0.944E+00 -.231E+01   -.118E-03 0.832E-04 -.334E-04
   -.754E+01 0.105E+01 -.144E+03   0.762E+01 -.593E+00 0.142E+03   0.150E+00 -.497E+00 0.238E+01   -.244E-03 -.107E-03 0.455E-04
   0.277E+02 -.207E+02 0.134E+03   -.266E+02 0.194E+02 -.134E+03   -.144E+01 0.140E+01 -.852E+00   -.107E-03 -.542E-04 -.674E-04
   0.312E+02 0.982E+01 0.182E+03   -.319E+02 -.942E+01 -.183E+03   0.386E+00 -.451E+00 0.945E+00   -.256E-04 0.771E-04 0.339E-04
   -.101E+02 -.255E+02 0.976E+02   0.109E+02 0.249E+02 -.970E+02   -.600E+00 0.748E+00 -.616E+00   0.774E-04 -.955E-04 -.783E-04
   0.958E+01 0.854E+01 -.163E+03   -.107E+02 -.883E+01 0.160E+03   0.922E+00 0.773E-01 0.315E+01   -.124E-03 -.587E-04 0.104E-03
   0.135E+02 -.582E+01 0.136E+03   -.109E+02 0.535E+01 -.137E+03   -.251E+01 0.103E+01 0.103E+01   -.912E-04 -.146E-03 0.932E-04
   -.363E+02 0.327E+02 -.158E+03   0.372E+02 -.323E+02 0.156E+03   -.941E+00 -.629E+00 0.177E+01   -.203E-04 0.697E-04 0.583E-04
   -.270E+02 0.255E+02 0.152E+03   0.262E+02 -.243E+02 -.154E+03   0.811E+00 -.684E+00 0.203E+01   -.354E-04 0.803E-04 -.939E-04
   0.299E+02 -.322E+02 0.130E+03   -.290E+02 0.315E+02 -.129E+03   -.866E+00 0.558E+00 -.149E+01   0.808E-04 0.146E-03 -.200E-04
   -.383E+02 -.262E+02 -.194E+03   0.377E+02 0.223E+02 0.196E+03   0.449E+00 0.350E+01 -.140E+01   0.167E-03 -.107E-03 0.168E-03
   -.119E+02 0.341E+02 0.123E+03   0.109E+02 -.338E+02 -.122E+03   0.110E+01 -.629E+00 -.942E+00   -.669E-04 0.255E-04 -.691E-04
   0.435E+01 0.124E+02 0.721E+02   -.554E+01 -.111E+02 -.708E+02   0.640E+00 -.155E+01 -.835E+00   0.495E-04 0.111E-03 -.202E-04
   -.120E+02 0.237E+02 0.207E+03   0.106E+02 -.224E+02 -.204E+03   0.104E+01 -.727E+00 -.230E+01   -.182E-05 0.176E-05 -.457E-04
   0.135E+02 -.125E+02 -.120E+03   -.142E+02 0.118E+02 0.118E+03   0.383E+00 0.557E+00 0.185E+01   -.100E-03 -.136E-03 0.634E-04
   -.672E+01 -.152E+02 -.176E+03   0.632E+01 0.158E+02 0.172E+03   0.538E+00 -.885E+00 0.355E+01   0.721E-04 -.175E-04 0.186E-03
   0.931E+01 0.204E+02 -.502E+02   -.105E+02 -.191E+02 0.487E+02   0.104E+01 -.129E+01 0.143E+01   0.113E-03 0.238E-03 0.499E-04
   -.192E+02 0.356E+02 0.109E+02   0.197E+02 -.327E+02 -.120E+02   -.341E+00 -.262E+01 0.103E+01   0.221E-03 0.168E-04 0.260E-04
   0.194E+02 -.173E+02 0.232E+03   -.189E+02 0.188E+02 -.232E+03   -.339E+00 -.139E+01 -.502E+00   -.801E-05 0.102E-03 -.129E-03
   -.471E+01 -.181E+02 0.670E+02   0.519E+01 0.176E+02 -.680E+02   -.273E+00 0.459E+00 0.590E+00   -.747E-04 -.115E-04 0.433E-06
   -.219E+02 0.281E+02 -.141E+03   0.200E+02 -.275E+02 0.140E+03   0.198E+01 -.526E+00 0.994E+00   0.775E-04 0.114E-04 0.577E-04
   0.573E+01 -.270E+02 -.615E+02   -.673E+01 0.248E+02 0.610E+02   0.689E+00 0.201E+01 0.581E+00   -.351E-04 -.671E-04 0.975E-04
   -.277E+01 0.113E+02 0.110E+03   0.156E+01 -.114E+02 -.110E+03   0.114E+01 -.119E+00 -.253E+00   -.446E-04 0.110E-03 -.357E-04
   0.224E+02 -.907E+01 0.206E+03   -.226E+02 0.101E+02 -.208E+03   -.620E-01 -.470E+00 0.129E+01   -.169E-05 -.843E-04 -.167E-03
   0.123E+02 -.131E+02 -.132E+03   -.125E+02 0.127E+02 0.130E+03   0.237E+00 0.524E+00 0.193E+01   0.123E-03 0.645E-04 0.754E-04
   -.157E+00 0.550E+01 -.227E+03   -.135E+00 -.604E+01 0.228E+03   0.264E+00 0.730E+00 -.790E+00   -.140E-03 0.136E-04 0.156E-03
   0.205E+02 -.410E+02 -.205E+03   -.208E+02 0.414E+02 0.206E+03   0.471E+00 -.398E+00 -.486E+00   -.705E-04 -.773E-05 0.125E-03
   0.739E+01 0.227E+02 0.165E+03   -.774E+01 -.231E+02 -.164E+03   0.268E+00 0.173E+00 -.151E+01   0.194E-03 0.484E-04 -.937E-05
   0.324E+01 -.280E+02 -.339E+02   -.357E+01 0.276E+02 0.339E+02   -.255E+00 0.618E+00 -.183E+00   -.113E-03 0.205E-04 0.379E-04
   0.150E+02 0.875E+01 -.184E+03   -.149E+02 -.911E+01 0.184E+03   -.235E+00 0.306E+00 -.303E+00   0.337E-04 -.469E-04 0.819E-04
   -.395E+01 0.109E+02 -.250E+03   0.136E+01 -.902E+01 0.251E+03   0.231E+01 -.185E+01 0.247E+00   0.644E-04 -.106E-03 0.232E-03
   0.162E+02 -.176E+02 0.601E+02   -.137E+02 0.153E+02 -.584E+02   -.222E+01 0.206E+01 -.187E+01   -.104E-03 -.293E-04 0.348E-04
   -.152E+02 0.127E+02 -.215E+03   0.139E+02 -.111E+02 0.217E+03   0.140E+01 -.152E+01 -.163E+01   0.140E-04 0.563E-04 0.691E-04
   -.211E+02 0.214E+02 0.246E+03   0.216E+02 -.198E+02 -.245E+03   -.324E+00 -.167E+01 -.961E+00   0.370E-04 0.184E-04 -.159E-03
   -.266E+02 0.487E+02 -.178E+03   0.267E+02 -.469E+02 0.177E+03   0.211E+00 -.168E+01 0.160E+01   0.144E-03 -.576E-04 0.126E-03
   0.536E+01 0.845E+01 0.109E+03   -.589E+01 -.839E+01 -.109E+03   0.618E-01 0.230E+00 0.103E+00   -.949E-04 -.596E-04 -.189E-04
 -----------------------------------------------------------------------------------------------
   -.154E+02 -.205E+01 -.217E+02   -.737E-13 -.533E-14 0.284E-13   0.154E+02 0.204E+01 0.217E+02   -.147E-03 -.192E-03 0.113E-02


 POSITION                                       TOTAL-FORCE (eV/Angst)
 -----------------------------------------------------------------------------------
     12.57208      9.88389     14.38010        -0.004489     -0.039674      0.130661
      4.59343      9.65271     14.45240        -0.076885      0.079285     -0.131196
      8.88914      0.69042     10.55597         0.083340     -0.121895      0.072181
      2.40489      3.11623      9.69250         0.007946     -0.227656     -0.033837
     11.74814      8.29426      9.29584        -0.036509     -0.102535     -0.143264
      6.16435      8.27594     12.04297         0.223598     -0.008148     -0.143957
     12.27497      1.80803     11.26797         0.525672      0.067377     -0.146941
      0.45113      6.35617     14.59001         0.175099     -0.174540      0.070108
      2.31513     11.02662     11.31637        -0.384711      0.366772      0.056782
      4.87912      1.37758     13.18228         0.207463      0.024721     -0.127016
     12.86484      1.61451     13.59077         0.343880     -0.020933      0.130611
     14.46458     13.33790     11.48869        -0.103795      0.262573      0.184099
     11.94961      3.72219     13.87912        -0.205005     -0.117534      0.014103
     12.01248      6.48175     11.79682         0.039052     -0.133621      0.255516
      6.75060      2.42460     12.20867         0.118462     -0.418004      0.212406
     11.36446     12.12717     10.59197        -0.153105     -0.004774      0.052432
      5.87065      9.89120     13.72245        -0.055993     -0.030988      0.196909
      0.69762      8.43009     13.52269         0.391255      0.177202     -0.538261
      9.49405     11.36971     13.73711        -0.007028     -0.086928      0.231724
      3.75782      0.17603     11.42751         0.266402      0.241612     -0.278639
      6.50225      4.71920     11.63493         0.024259     -0.145948     -0.301960
     14.28780     12.51157     13.74377         0.023517     -0.062528      0.013330
     13.69901     10.22317     13.47310        -0.220609      0.083756     -0.131972
      9.30015     11.51365     11.44174         0.298617     -0.205423     -0.580741
      8.62901      0.20396     13.83134         0.177489     -0.037886      0.189151
     12.22243     14.03277     11.50462        -0.407135      0.157107     -0.482548
      7.22653     12.60497     11.10247        -0.149376     -0.022139      0.314228
      1.54859      0.32025     12.12195         0.177392      0.121535      0.004203
     12.32999     13.88379     13.87466        -0.105078     -0.175851      0.330273
      7.85925      0.28564     11.56575         0.069034      0.638994     -0.331970
      9.52943      9.04908     13.77231        -0.333923     -0.024301     -0.072292
     11.72284      8.53296     10.75961        -0.021569      0.411129     -0.280518
      4.03274      7.53438     11.58806        -0.020127     -0.248127      0.012896
      3.44304      2.64575     14.62342        -0.301183     -0.350846      0.173618
     12.95307     10.48312     11.23216         0.178587     -0.325492      0.228786
      2.23753      8.86809     11.92945        -0.449257     -0.320952      0.493615
      8.20768      5.90453     10.63754        -0.279128      0.575625      0.372571
      8.70936      2.48942     13.49062        -0.242836     -0.152258     -0.069655
      2.34232      4.82200     14.18909         0.195247     -0.301412     -0.036721
      5.88203     12.13376     13.00814        -0.062654     -0.028223      0.026937
      3.60928     12.60053     12.47478         0.123610      0.097065     -0.028598
      7.72644      8.15368     10.33532         0.232023     -0.101565     -0.343573
     10.01019      5.35432     11.94843         0.211920     -0.127406     -0.368090
      6.39878      6.27855     13.51123         0.089997      0.186875     -0.010651
      0.57403      2.02438     13.33056        -0.250444     -0.127710      0.082169
      9.51515      9.15883     11.39962        -0.009065     -0.145321     -0.094729
      2.29006      4.32125     10.53774        -0.164856      0.373509      0.099945
      4.08451      6.10279     13.45098         0.108921      0.077751      0.156406
     10.22481     13.29448     14.73956        -0.044551      0.222254      0.315060
      9.74789      4.50344     14.20459         0.244793     -0.251973      0.043983
      4.26523      5.25550     11.22212        -0.100721     -0.126863     -0.133637
     13.52960      5.29615     13.06778        -0.634874      0.245612     -0.121162
      6.32585     14.20261     14.11230        -0.058993     -0.008831     -0.201225
      1.86262      1.01308     14.98644        -0.068784      0.012667      0.336144
      0.94987      4.13848     12.42256         0.249658     -0.068525     -0.139724
      7.40369      8.24050     14.41334         0.190579      0.019102      0.142290
      0.35400     11.46416     10.23007         0.212291     -0.137432     -0.017484
      1.93158     13.39802     14.01409         0.147759      0.116396      0.220320
     10.44925      3.06489     11.99091        -0.385179      0.425322      0.126902
 -----------------------------------------------------------------------------------
    total drift:                                0.005338     -0.007144     -0.000123


--------------------------------------------------------------------------------------------------------



  FREE ENERGIE OF THE ION-ELECTRON SYSTEM (eV)
  ---------------------------------------------------
  free  energy   TOTEN  =      -518.41875410 eV

  energy  without entropy=     -518.29247363  energy(sigma->0) =     -518.35561386



--------------------------------------------------------------------------------------------------------


    POTLOK:  cpu time      3.2397: real time      3.2422


--------------------------------------------------------------------------------------------------------


     LOOP+:  cpu time   5389.1345: real time   5392.7772
    4ORBIT:  cpu time      0.0000: real time      0.0000



 total charge

# of ion       s       p       d       tot
------------------------------------------
    1        0.568   0.016   0.000   0.584
    2        0.566   0.016   0.000   0.582
    3        0.564   0.015   0.000   0.579
    4        0.561   0.017   0.000   0.577
    5        0.568   0.016   0.000   0.583
    6        0.758   0.922   0.000   1.680
    7        0.836   0.816   0.000   1.652
    8        0.819   0.797   0.000   1.616
    9        0.775   0.903   0.000   1.679
   10        0.764   0.877   0.000   1.641
   11        0.764   0.931   0.000   1.695
   12        0.769   0.930   0.000   1.699
   13        0.778   0.889   0.000   1.667
   14        0.775   0.892   0.000   1.667
   15        0.756   0.906   0.000   1.662
   16        0.794   0.882   0.000   1.675
   17        0.747   0.943   0.000   1.690
   18        0.769   0.889   0.000   1.658
   19        0.803   0.851   0.000   1.654
   20        0.820   0.835   0.000   1.655
   21        0.765   0.892   0.000   1.657
   22        0.763   0.902   0.000   1.665
   23        0.742   0.949   0.000   1.691
   24        0.763   0.934   0.000   1.697
   25        0.756   0.921   0.000   1.677
   26        0.770   0.939   0.000   1.708
   27        0.814   0.825   0.000   1.639
   28        0.770   0.932   0.000   1.703
   29        0.773   0.887   0.000   1.660
   30        0.747   0.908   0.000   1.656
   31        0.806   0.846   0.000   1.652
   32        0.739   0.972   0.000   1.711
   33        0.771   0.944   0.000   1.715
   34        0.799   0.826   0.000   1.624
   35        0.751   0.911   0.000   1.663
   36        0.768   0.929   0.000   1.697
   37        0.793   0.883   0.000   1.676
   38        0.764   0.921   0.000   1.684
   39        0.758   0.891   0.000   1.649
   40        0.751   0.910   0.000   1.662
   41        0.764   0.893   0.000   1.657
   42        0.795   0.888   0.000   1.683
   43        0.755   0.939   0.000   1.695
   44        0.780   0.852   0.000   1.632
   45        0.769   0.933   0.000   1.703
   46        0.758   0.923   0.000   1.682
   47        0.769   0.922   0.000   1.692
   48        0.769   0.938   0.000   1.707
   49        0.786   0.883   0.000   1.669
   50        0.839   0.784   0.000   1.623
   51        0.758   0.935   0.000   1.693
   52        0.747   0.925   0.000   1.672
   53        0.804   0.811   0.000   1.614
   54        0.807   0.849   0.000   1.656
   55        0.764   0.923   0.000   1.687
   56        0.802   0.830   0.000   1.631
   57        0.800   0.866   0.000   1.666
   58        0.785   0.867   0.000   1.651
   59        0.790   0.883   0.000   1.674
--------------------------------------------------
tot         44.757  48.308   0.000  93.065


 total amount of memory used by VASP MPI-rank0   337444. kBytes
=======================================================================

   base                                    :      30000. kBytes
   nonl-proj                               :      61622. kBytes
   fftplans                                :      97989. kBytes
   grid                                    :      75605. kBytes
   one-center                              :         12. kBytes
   wavefun                                 :      72216. kBytes

  
  
 General timing and accounting informations for this job:
 ========================================================
  
                  Total CPU time used (sec):     5524.184
                            User time (sec):     4866.147
                          System time (sec):      658.037
                         Elapsed time (sec):     5527.989
  
                   Maximum memory used (kb):      587352.
                   Average memory used (kb):          N/A
  
                          Minor page faults:      9150596
                          Major page faults:         1153
                 Voluntary context switches:         2657
