 vasp.6.5.0 16Dec24 (build Jan 20 2025 08:32:48) complex                         
 executed on        HPECrayEX_GCC date 2025.07.22  12:19:00
 running  128 mpi-ranks, with    1 threads/rank, on    1 nodes
 distrk:  each k-point on  128 cores,    1 groups
 distr:  one band on NCORE=  16 cores,    8 groups


--------------------------------------------------------------------------------------------------------


 INCAR:
   SYSTEM = a-Si SPC
   NCORE = 16
   ISTART = 1
   ICHARG = 1
   ISPIN = 1
   ISYM = 1
   EDIFF = 1E-6
   NELM = 150
   EDIFFG = -0.01
   NSW = 0
   ISIF = 2
   IBRION = -1
   PREC = Accurate
   ENCUT = 1200
   KSPACING = 0.23
   KGAMMA = .TRUE.
   METAGGA = SCAN
   LASPH = .TRUE.
   LDIAG = .FALSE.
   LMIXTAU = .TRUE.
   ADDGRID = .TRUE.
   ALGO = Normal
   ISMEAR = 0
   SIGMA = 0.1
   LORBIT = 11
   NEDOS = 2000
   LWAVE = .FALSE.
   LCHARG = .FALSE.

 POTCAR:    PAW_PBE H 15Jun2001                   
 POTCAR:    PAW_PBE Si 05Jan2001                  
 POTCAR:    PAW_PBE H 15Jun2001                   
   SHA256 =  030f79b5d3ab3cf0e668861823c8fb652ff669f3e15e46930bd03bfd63a607b6 H/POTCAR              
   COPYR  = (c) Copyright 15Jun2001 Georg Kresse                                                    
   COPYR  = This file is part of the software VASP. Any use, copying, and all other rights are regul
   COPYR  = If you do not have a valid VASP license, you may not use, copy or distribute this file. 
   VRHFIN =H: ultrasoft test                                                                        
   LEXCH  = PE                                                                                      
   EATOM  =    12.4884 eV,    0.9179 Ry                                                             
                                                                                                    
   TITEL  = PAW_PBE H 15Jun2001                                                                     
   LULTRA =        F    use ultrasoft PP ?                                                          
   IUNSCR =        0    unscreen: 0-lin 1-nonlin 2-no                                               
   RPACOR =    0.000    partial core radius                                                         
   POMASS =    1.000; ZVAL   =    1.000    mass and valenz                                          
   RCORE  =    1.100    outmost cutoff radius                                                       
   RWIGS  =    0.700; RWIGS  =    0.370    wigner-seitz radius (au A)                               
   ENMAX  =  250.000; ENMIN  =  200.000 eV                                                          
   RCLOC  =    0.701    cutoff for local pot                                                        
   LCOR   =        T    correct aug charges                                                         
   LPAW   =        T    paw PP                                                                      
   EAUG   =  400.000                                                                                
   RMAX   =    1.123    core radius for proj-oper                                                   
   RAUG   =    1.200    factor for augmentation sphere                                              
   RDEP   =    1.112    radius for radial grids                                                     
   RDEPT  =    0.926    core radius for aug-charge                                                  
                                                                                                    
   Atomic configuration                                                                             
    2 entries                                                                                       
     n  l   j            E        occ.                                                              
     1  0  0.50        -6.4927   1.0000                                                             
     2  1  0.50        -3.4015   0.0000                                                             
   Description                                                                                      
     l       E           TYP  RCUT    TYP  RCUT                                                     
     0     -6.4927494     23  1.100                                                                 
     0      6.8029130     23  1.100                                                                 
     1     -4.0817478     23  1.100                                                                 
  local pseudopotential read in
  atomic valenz-charges read in
  non local Contribution for L=           0  read in
    real space projection operators read in
  non local Contribution for L=           0  read in
    real space projection operators read in
  non local Contribution for L=           1  read in
    real space projection operators read in
    PAW grid and wavefunctions read in

   number of l-projection  operators is LMAX  =           3
   number of lm-projection operators is LMMAX =           5

 POTCAR:    PAW_PBE Si 05Jan2001                  
   SHA256 =  79d9987ad8750f624c4d6acb2a16d13abf6a777132adc04dc6c8399be72b42bb Si/POTCAR             
   COPYR  = (c) Copyright 05Jan2001 Georg Kresse                                                    
   COPYR  = This file is part of the software VASP. Any use, copying, and all other rights are regul
   COPYR  = If you do not have a valid VASP license, you may not use, copy or distribute this file. 
   VRHFIN =Si: s2p2                                                                                 
   LEXCH  = PE                                                                                      
   EATOM  =   103.0669 eV,    7.5752 Ry                                                             
                                                                                                    
   TITEL  = PAW_PBE Si 05Jan2001                                                                    
   LULTRA =        F    use ultrasoft PP ?                                                          
   IUNSCR =        1    unscreen: 0-lin 1-nonlin 2-no                                               
   RPACOR =    1.500    partial core radius                                                         
   POMASS =   28.085; ZVAL   =    4.000    mass and valenz                                          
   RCORE  =    1.900    outmost cutoff radius                                                       
   RWIGS  =    2.480; RWIGS  =    1.312    wigner-seitz radius (au A)                               
   ENMAX  =  245.345; ENMIN  =  184.009 eV                                                          
   ICORE  =        2    local potential                                                             
   LCOR   =        T    correct aug charges                                                         
   LPAW   =        T    paw PP                                                                      
   EAUG   =  322.069                                                                                
   DEXC   =    0.000                                                                                
   RMAX   =    1.950    core radius for proj-oper                                                   
   RAUG   =    1.300    factor for augmentation sphere                                              
   RDEP   =    1.993    radius for radial grids                                                     
   RDEPT  =    1.837    core radius for aug-charge                                                  
                                                                                                    
   Atomic configuration                                                                             
    6 entries                                                                                       
     n  l   j            E        occ.                                                              
     1  0  0.50     -1785.8828   2.0000                                                             
     2  0  0.50      -139.4969   2.0000                                                             
     2  1  1.50       -95.5546   6.0000                                                             
     3  0  0.50       -10.8127   2.0000                                                             
     3  1  0.50        -4.0811   2.0000                                                             
     3  2  1.50        -4.0817   0.0000                                                             
   Description                                                                                      
     l       E           TYP  RCUT    TYP  RCUT                                                     
     0    -10.8127223     23  1.900                                                                 
     0     -7.6451159     23  1.900                                                                 
     1     -4.0811372     23  1.900                                                                 
     1      2.4879257     23  1.900                                                                 
     2     -4.0817478      7  1.900                                                                 
  local pseudopotential read in
  partial core-charges read in
  partial kinetic energy density read in
  atomic valenz-charges read in
  non local Contribution for L=           0  read in
    real space projection operators read in
  non local Contribution for L=           0  read in
    real space projection operators read in
  non local Contribution for L=           1  read in
    real space projection operators read in
  non local Contribution for L=           1  read in
    real space projection operators read in
    PAW grid and wavefunctions read in

   number of l-projection  operators is LMAX  =           4
   number of lm-projection operators is LMMAX =           8

 -----------------------------------------------------------------------------
|                                                                             |
|               ----> ADVICE to this user running VASP <----                  |
|                                                                             |
|     You have a (more or less) 'large supercell' and for larger cells it     |
|     might be more efficient to use real-space projection operators.         |
|     Therefore, try LREAL= Auto in the INCAR file.                           |
|     Mind: For very accurate calculation, you might also keep the            |
|     reciprocal projection scheme (i.e. LREAL=.FALSE.).                      |
|                                                                             |
 -----------------------------------------------------------------------------

 -----------------------------------------------------------------------------
|                                                                             |
|               ----> ADVICE to this user running VASP <----                  |
|                                                                             |
|     You enforced a specific xc type in the INCAR file but a different       |
|     type was found in the POTCAR file.                                      |
|     I HOPE YOU KNOW WHAT YOU ARE DOING!                                     |
|                                                                             |
 -----------------------------------------------------------------------------

  PAW_PBE H 15Jun2001                   :
 energy of atom  1       EATOM=  -12.4884
 kinetic energy error for atom=    0.0000 (will be added to EATOM!!)
  PAW_PBE Si 05Jan2001                  :
 energy of atom  2       EATOM= -103.0669
 kinetic energy error for atom=    0.0001 (will be added to EATOM!!)


 POSCAR:  H Si
  positions in cartesian coordinates
  No initial velocities read in


 exchange-correlation table for SCAN
   RHO(1)=    0.500       N(1)  =     2000
   RHO(2)=  100.500       N(2)  =     4000



--------------------------------------------------------------------------------------------------------


 ion  position               nearest neighbor table
   1  0.691  0.812  0.229-  22 1.54
   2  0.798  0.850  0.303-  58 1.42
   3  0.610  0.011  0.094-  82 1.47
   4  0.823  0.696  0.025-  61 1.52
   5  0.979  0.624  0.406-  85 1.44
   6  0.953  0.572  0.109-  85 2.33  61 2.36  31 2.36  50 2.58
   7  0.524  0.513  0.359-  60 2.21  51 2.41  27 2.46  34 2.53
   8  0.313  0.918  0.112-  52 2.28  73 2.34  87 2.40   9 2.40
   9  0.166  0.920  0.226-  40 2.27   8 2.40  84 2.42  44 2.46  66 3.14
  10  0.378  0.291  0.333-  71 2.36  43 2.39  27 2.44  45 2.49
  11  0.927  0.328  0.051-  31 2.29  28 2.29  18 2.33  42 2.53
  12  0.810  0.585  0.653-  16 2.31  33 2.37  46 2.45  70 2.48
  13  0.543  0.627  0.729-  55 2.33  60 2.35  86 2.40  46 2.43
  14  0.806  0.336  0.635-  67 2.29  68 2.39  16 2.39  15 2.42
  15  0.767  0.401  0.408-  34 2.32  33 2.37  14 2.42  28 2.46
  16  0.884  0.459  0.749-  12 2.31  53 2.35  14 2.39  31 2.40
  17  0.117  0.387  0.793-  42 2.32  56 2.36  36 2.42  53 2.46
  18  0.820  0.231  0.946-  11 2.33  67 2.42  47 2.45
  19  0.490  0.757  0.100-  87 2.35  22 2.38  86 2.39  59 2.47
  20  0.249  0.924  0.708-  62 2.34  73 2.34  63 2.38  81 2.54
  21  0.235  0.647  0.711-  48 2.30  62 2.35  78 2.38  38 2.46
  22  0.603  0.764  0.282-   1 1.54  51 2.25  19 2.38  72 2.51
  23  0.968  0.827  0.564-  75 2.42  25 2.49  70 2.53  58 2.68
  24  0.539  0.003  0.480-  39 2.25  30 2.31  72 2.42
  25  0.018  0.990  0.593-  77 2.26  81 2.40  44 2.41  23 2.49
  26  0.549  0.149  0.848-  39 2.42  65 2.43  82 2.56  47 2.58
  27  0.390  0.446  0.236-  57 2.30  10 2.44   7 2.46  80 2.48
  28  0.904  0.337  0.289-  11 2.29  54 2.38  15 2.46  49 2.51
  29  0.596  0.386  0.079-  47 2.26  34 2.32  57 2.32  74 2.44
  30  0.387  0.004  0.408-  63 2.26  24 2.31  52 2.40  37 2.54
  31  0.855  0.464  0.998-  11 2.29   6 2.36  16 2.40  74 2.46
  32  0.514  0.385  0.650-  60 2.35  83 2.38  43 2.42  68 2.42
  33  0.779  0.564  0.410-  85 2.33  12 2.37  15 2.37  51 2.40
  34  0.622  0.371  0.319-  15 2.32  29 2.32  43 2.50   7 2.53
  35  0.244  0.674  0.167-  87 2.22  80 2.26  40 2.32  48 2.39
  36  0.059  0.249  0.679-  76 2.36  69 2.41  17 2.42  67 2.46
  37  0.365  0.833  0.449-  87 2.29  62 2.31  72 2.53  30 2.54
  38  0.072  0.628  0.645-  53 2.30  75 2.39  21 2.46  70 2.49
  39  0.555  0.138  0.594-  24 2.25  43 2.36  26 2.42
  40  0.124  0.770  0.229-   9 2.27  35 2.32  75 2.36  66 2.42
  41  0.277  0.166  0.717-  63 2.28  76 2.31  65 2.45  71 2.49
  42  0.099  0.352  0.030-  17 2.32  79 2.33  50 2.39  11 2.53
  43  0.518  0.271  0.464-  39 2.36  10 2.39  32 2.42  34 2.50
  44  0.141  0.022  0.430-  63 2.29  25 2.41   9 2.46  64 2.47
  45  0.336  0.208  0.113-  65 2.41  10 2.49  79 2.56  52 2.57
  46  0.681  0.548  0.810-  74 2.42  13 2.43  12 2.45  68 2.49
  47  0.657  0.277  0.938-  29 2.26  68 2.36  18 2.45  26 2.58
  48  0.292  0.689  0.927-  21 2.30  73 2.35  35 2.39  86 2.63
  49  0.937  0.169  0.326-  64 2.22  77 2.43  28 2.51
  50  0.096  0.480  0.188-  54 2.36  42 2.39  80 2.47   6 2.58
  51  0.645  0.615  0.286-  22 2.25  33 2.40   7 2.41  74 2.70
  52  0.397  0.046  0.164-   8 2.28  30 2.40  82 2.42  45 2.57
  53  0.024  0.478  0.627-  38 2.30  16 2.35  17 2.46  54 2.51
  54  0.038  0.404  0.390-  50 2.36  28 2.38  69 2.47  53 2.51
  55  0.579  0.782  0.710-  72 2.24  13 2.33  59 2.41
  56  0.262  0.413  0.691-  78 2.33  17 2.36  83 2.39  71 2.52
  57  0.463  0.468  0.024-  27 2.30  29 2.32  86 2.43  83 2.47
  58  0.889  0.813  0.311-   2 1.42  66 2.36  85 2.46  23 2.68
  59  0.485  0.855  0.887-  73 2.34  55 2.41  19 2.47  82 2.60
  60  0.464  0.531  0.571-   7 2.21  13 2.35  32 2.35  78 2.40
  61  0.921  0.704  0.973-   4 1.52  70 2.29   6 2.36  66 2.41
  62  0.241  0.785  0.584-  37 2.31  20 2.34  21 2.35  75 2.39
  63  0.273  0.051  0.554-  30 2.26  41 2.28  44 2.29  20 2.38
  64  0.085  0.147  0.278-  49 2.22  69 2.33  79 2.45  44 2.47
  65  0.398  0.218  0.879-  45 2.41  83 2.41  26 2.43  41 2.45
  66  0.986  0.826  0.114-  58 2.36  84 2.38  61 2.41  40 2.42   9 3.14
  67  0.895  0.218  0.719-  14 2.29  77 2.39  18 2.42  36 2.46
  68  0.667  0.382  0.750-  47 2.36  14 2.39  32 2.42  46 2.49
  69  0.121  0.260  0.443-  64 2.33  71 2.34  36 2.41  54 2.47
  70  0.927  0.698  0.732-  61 2.29  12 2.48  38 2.49  23 2.53
  71  0.272  0.280  0.521-  69 2.34  10 2.36  41 2.49  56 2.52
  72  0.537  0.837  0.499-  55 2.24  24 2.42  22 2.51  37 2.53
  73  0.324  0.846  0.891-  59 2.34   8 2.34  20 2.34  48 2.35
  74  0.700  0.517  0.059-  46 2.42  29 2.44  31 2.46  51 2.70
  75  0.099  0.744  0.472-  40 2.36  62 2.39  38 2.39  23 2.42
  76  0.137  0.144  0.826-  41 2.31  81 2.33  36 2.36  79 2.50
  77  0.908  0.096  0.552-  25 2.26  67 2.39  49 2.43
  78  0.300  0.539  0.550-  56 2.33  21 2.38  60 2.40  80 2.72
  79  0.162  0.207  0.068-  42 2.33  64 2.45  76 2.50  45 2.56
  80  0.246  0.535  0.276-  35 2.26  50 2.47  27 2.48  78 2.72
  81  0.101  0.987  0.812-  76 2.33  25 2.40  84 2.41  20 2.54
  82  0.525  0.010  0.009-   3 1.47  52 2.42  26 2.56  59 2.60
  83  0.397  0.380  0.826-  32 2.38  56 2.39  65 2.41  57 2.47
  84  0.054  0.970  0.054-  66 2.38  81 2.41   9 2.42
  85  0.903  0.644  0.314-   5 1.44   6 2.33  33 2.33  58 2.46
  86  0.462  0.628  0.949-  19 2.39  13 2.40  57 2.43  48 2.63
  87  0.352  0.776  0.225-  35 2.22  37 2.29  19 2.35   8 2.40

  LATTYP: Found a simple tetragonal cell.
 ALAT       =    14.5342042383
 C/A-ratio  =     0.6532225890
  
  Lattice vectors:
  
 A1 = (  14.5342042383,   0.0000000000,   0.0000000000)
 A2 = (   0.0000000000,  14.5342042383,   0.0000000000)
 A3 = (   0.0000000000,   0.0000000000,   9.4940705213)


Analysis of symmetry for initial positions (statically):
=====================================================================
 Subroutine PRICEL returns:
 Original cell was already a primitive cell.
 

 Routine SETGRP: Setting up the symmetry group for a 
 simple tetragonal supercell.


 Subroutine GETGRP returns: Found  1 space group operations
 (whereof  1 operations were pure point group operations)
 out of a pool of 16 trial point group operations.


The static configuration has the point symmetry C_1 .


Analysis of symmetry for dynamics (positions and initial velocities):
=====================================================================
 Subroutine PRICEL returns:
 Original cell was already a primitive cell.
 

 Routine SETGRP: Setting up the symmetry group for a 
 simple tetragonal supercell.


 Subroutine GETGRP returns: Found  1 space group operations
 (whereof  1 operations were pure point group operations)
 out of a pool of 16 trial point group operations.


The dynamic configuration has the point symmetry C_1 .


 Subroutine INISYM returns: Found  1 space group operations
 (whereof  1 operations are pure point group operations),
 and found     1 'primitive' translations


----------------------------------------------------------------------------------------

                                     Primitive cell                                     

  volume of cell :    2005.5568

  direct lattice vectors                    reciprocal lattice vectors
    14.534204238  0.000000000  0.000000000     0.068803216  0.000000000  0.000000000
     0.000000000 14.534204238  0.000000000     0.000000000  0.068803216  0.000000000
     0.000000000  0.000000000  9.494070521     0.000000000  0.000000000  0.105328900

  length of vectors
    14.534204238 14.534204238  9.494070521     0.068803216  0.068803216  0.105328900

  position of ions in fractional coordinates (direct lattice)
     0.690626046  0.811926116  0.228772263
     0.798296199  0.849533954  0.303071269
     0.609873087  0.011255915  0.093833619
     0.822838306  0.696405516  0.025071543
     0.979228017  0.624491018  0.406178782
     0.952828223  0.571961826  0.108545644
     0.523545691  0.512603915  0.359290569
     0.313336040  0.917614737  0.111549624
     0.166424660  0.920057251  0.226117975
     0.378422507  0.291422216  0.332909893
     0.927164623  0.327980805  0.050834044
     0.809538645  0.584643635  0.652716871
     0.543282582  0.626954173  0.729448974
     0.805630622  0.335661308  0.634528676
     0.767148983  0.400612920  0.407827179
     0.884313980  0.459356418  0.749295045
     0.116730849  0.386564679  0.792694765
     0.819735281  0.230620125  0.946323285
     0.489841747  0.756718415  0.100029381
     0.249313959  0.924082239  0.708282078
     0.235064125  0.646541073  0.710738348
     0.602833141  0.763729463  0.281749540
     0.967820444  0.827338037  0.564215316
     0.538659005  0.002764176  0.479621464
     0.017910716  0.989816832  0.593022770
     0.548782023  0.149230736  0.848177816
     0.389929845  0.446453063  0.235644974
     0.903606402  0.336806881  0.289308995
     0.595892273  0.386126403  0.079406509
     0.386894935  0.003666920  0.407926188
     0.855141416  0.463679324  0.998188288
     0.513800403  0.385424610  0.649897216
     0.778866171  0.563555449  0.409776817
     0.621565505  0.371044050  0.319452019
     0.244322286  0.673528446  0.167150644
     0.059493384  0.249215570  0.679035403
     0.365278340  0.832622124  0.449339405
     0.072074809  0.628077730  0.645292236
     0.554639240  0.137620882  0.593634731
     0.123662085  0.769791027  0.228872326
     0.276729289  0.166298062  0.716933794
     0.098802795  0.352129357  0.029627229
     0.517566003  0.271429377  0.464296109
     0.141316302  0.021656776  0.430289620
     0.335521637  0.207977675  0.113152730
     0.681248167  0.548377460  0.809874962
     0.657419549  0.276985925  0.938483655
     0.292227213  0.688768359  0.927395681
     0.936707630  0.169134819  0.326402673
     0.095813295  0.480095772  0.188367044
     0.644598758  0.614710641  0.285583512
     0.397372289  0.045587842  0.163898087
     0.023940079  0.477995210  0.627105095
     0.038009511  0.404058585  0.389665317
     0.578921960  0.782416417  0.709986300
     0.262485647  0.412790401  0.690563651
     0.463496996  0.468186623  0.023809914
     0.888504096  0.812779276  0.310945657
     0.484564541  0.854914366  0.887246411
     0.464114161  0.530709482  0.571481957
     0.921199385  0.704476133  0.973005201
     0.241122248  0.785326793  0.583624272
     0.273285688  0.051120446  0.554052131
     0.084578418  0.147342088  0.277913461
     0.397752770  0.217517241  0.878875924
     0.986128980  0.826051417  0.113692014
     0.894964718  0.218099316  0.719298428
     0.667122179  0.382485337  0.749672123
     0.120666393  0.259988778  0.443462053
     0.926531634  0.698022391  0.731836780
     0.272340331  0.279546780  0.520847195
     0.536625870  0.836509505  0.498764991
     0.324013611  0.845791059  0.891457461
     0.699597985  0.517070620  0.058861581
     0.099355973  0.744368238  0.471736542
     0.136683782  0.143500804  0.826265192
     0.907961646  0.096259140  0.551956085
     0.299766670  0.539180534  0.550190773
     0.161588482  0.206969708  0.067787152
     0.246184101  0.534972529  0.275770018
     0.101039587  0.987284874  0.811982593
     0.524925883  0.009592407  0.009039463
     0.397130101  0.380049703  0.826092452
     0.054324887  0.970104711  0.053936507
     0.902828926  0.643809585  0.313851682
     0.461891817  0.627887145  0.948796407
     0.351679384  0.775591138  0.225340648

  ion indices of the primitive-cell ions
   primitive index   ion index
                 1           1
                 2           2
                 3           3
                 4           4
                 5           5
                 6           6
                 7           7
                 8           8
                 9           9
                10          10
                11          11
                12          12
                13          13
                14          14
                15          15
                16          16
                17          17
                18          18
                19          19
                20          20
                21          21
                22          22
                23          23
                24          24
                25          25
                26          26
                27          27
                28          28
                29          29
                30          30
                31          31
                32          32
                33          33
                34          34
                35          35
                36          36
                37          37
                38          38
                39          39
                40          40
                41          41
                42          42
                43          43
                44          44
                45          45
                46          46
                47          47
                48          48
                49          49
                50          50
                51          51
                52          52
                53          53
                54          54
                55          55
                56          56
                57          57
                58          58
                59          59
                60          60
                61          61
                62          62
                63          63
                64          64
                65          65
                66          66
                67          67
                68          68
                69          69
                70          70
                71          71
                72          72
                73          73
                74          74
                75          75
                76          76
                77          77
                78          78
                79          79
                80          80
                81          81
                82          82
                83          83
                84          84
                85          85
                86          86
                87          87

----------------------------------------------------------------------------------------


 -----------------------------------------------------------------------------
|                                                                             |
|           W    W    AA    RRRRR   N    N  II  N    N   GGGG   !!!           |
|           W    W   A  A   R    R  NN   N  II  NN   N  G    G  !!!           |
|           W    W  A    A  R    R  N N  N  II  N N  N  G       !!!           |
|           W WW W  AAAAAA  RRRRR   N  N N  II  N  N N  G  GGG   !            |
|           WW  WW  A    A  R   R   N   NN  II  N   NN  G    G                |
|           W    W  A    A  R    R  N    N  II  N    N   GGGG   !!!           |
|                                                                             |
|     The requested file  could not be found or opened for reading            |
|     k-point information. Automatic k-point generation is used as a          |
|     fallback, which may lead to unwanted results.                           |
|                                                                             |
 -----------------------------------------------------------------------------



Automatic generation of k-mesh.
 Grid dimensions derived from KSPACING:
 generate k-points for:    2    2    3

 Generating k-lattice:

  Cartesian coordinates                     Fractional coordinates (reciprocal lattice)
     0.034401608  0.000000000  0.000000000     0.500000000  0.000000000  0.000000000
     0.000000000  0.034401608  0.000000000     0.000000000  0.500000000  0.000000000
     0.000000000  0.000000000  0.035109633     0.000000000  0.000000000  0.333333333

  Length of vectors
     0.034401608  0.034401608  0.035109633

  Shift w.r.t. Gamma in fractional coordinates (k-lattice)
     0.000000000  0.000000000  0.000000000

 
 Subroutine IBZKPT returns following result:
 ===========================================
 
 Found      8 irreducible k-points:
 
 Following reciprocal coordinates:
            Coordinates               Weight
  0.000000  0.000000  0.000000      1.000000
  0.500000  0.000000  0.000000      1.000000
  0.000000  0.500000  0.000000      1.000000
  0.500000  0.500000  0.000000      1.000000
  0.000000  0.000000  0.333333      2.000000
  0.500000  0.000000  0.333333      2.000000
  0.000000  0.500000  0.333333      2.000000
  0.500000  0.500000  0.333333      2.000000
 
 Following cartesian coordinates:
            Coordinates               Weight
  0.000000  0.000000  0.000000      1.000000
  0.034402  0.000000  0.000000      1.000000
  0.000000  0.034402  0.000000      1.000000
  0.034402  0.034402  0.000000      1.000000
  0.000000  0.000000  0.035110      2.000000
  0.034402  0.000000  0.035110      2.000000
  0.000000  0.034402  0.035110      2.000000
  0.034402  0.034402  0.035110      2.000000
 


--------------------------------------------------------------------------------------------------------




 Dimension of arrays:
   k-points           NKPTS =      8   k-points in BZ     NKDIM =      8   number of bands    NBANDS=    216
   number of dos      NEDOS =   2000   number of ions     NIONS =     87
   non local maximal  LDIM  =      4   non local SUM 2l+1 LMDIM =      8
   total plane-waves  NPLWV = ******
   max r-space proj   IRMAX =      1   max aug-charges    IRDMAX= 406687
   dimension x,y,z NGX =   168 NGY =  168 NGZ =  108
   dimension x,y,z NGXF=   336 NGYF=  336 NGZF=  216
   support grid    NGXF=   672 NGYF=  672 NGZF=  432
   ions per type =               5  82
   NGX,Y,Z   is equivalent  to a cutoff of  19.22, 19.22, 18.91 a.u.
   NGXF,Y,Z  is equivalent  to a cutoff of  38.43, 38.43, 37.82 a.u.

 SYSTEM =  a-Si SPC                                
 POSCAR =   H Si                                   

 Startparameter for this run:
   NWRITE =      2    write-flag & timer
   PREC   = accura    normal or accurate (medium, high low for compatibility)
   ISTART =      1    job   : 0-new  1-cont  2-samecut
   ICHARG =      1    charge: 1-file 2-atom 10-const
   ISPIN  =      1    spin polarized calculation?
   LNONCOLLINEAR =      F non collinear calculations
   LSORBIT =      F    spin-orbit coupling
   INIWAV =      1    electr: 0-lowe 1-rand  2-diag
   LASPH  =      T    aspherical Exc in radial PAW
 Electronic Relaxation 1
   ENCUT  = 1200.0 eV  88.20 Ry    9.39 a.u.  41.05 41.05 26.82*2*pi/ulx,y,z
   ENINI  = 1200.0     initial cutoff
   ENAUG  =  400.0 eV  augmentation charge cutoff
   NELM   =    150;   NELMIN=  2; NELMDL=  0     # of ELM steps 
   EDIFF  = 0.1E-05   stopping-criterion for ELM
   LREAL  =      F    real-space projection
   NLSPLINE    = F    spline interpolate recip. space projectors
   LCOMPAT=      F    compatible to vasp.4.4
   GGA_COMPAT  = T    GGA compatible to vasp.4.4-vasp.4.6
   LMAXPAW     = -100 max onsite density
   LMAXMIX     =    2 max onsite mixed and CHGCAR
   VOSKOWN=      0    Vosko Wilk Nusair interpolation
   ROPT   =    0.00000   0.00000
 Ionic relaxation
   EDIFFG = -.1E-01   stopping-criterion for IOM
   NSW    =      0    number of steps for IOM
   NBLOCK =      1;   KBLOCK =      1    inner block; outer block 
   IBRION =     -1    ionic relax: 0-MD 1-quasi-New 2-CG
   NFREE  =      0    steps in history (QN), initial steepest desc. (CG)
   ISIF   =      2    stress and relaxation
   IWAVPR =     10    prediction:  0-non 1-charg 2-wave 3-comb
   ISYM   =      1    0-nonsym 1-usesym 2-fastsym
   LCORR  =      T    Harris-Foulkes like correction to forces

   POTIM  = 0.5000    time-step for ionic-motion
   TEIN   =    0.0    initial temperature
   TEBEG  =    0.0;   TEEND  =   0.0 temperature during run
   SMASS  =  -3.00    Nose mass-parameter (am)
   estimated Nose-frequenzy (Omega)   =  0.10E-29 period in steps = 0.13E+47 mass=  -0.483E-26a.u.
   SCALEE = 1.0000    scale energy and forces
   NPACO  =    256;   APACO  = 10.0  distance and # of slots for P.C.
   PSTRESS=    0.0 pullay stress

  Mass of Ions in am
   POMASS =   1.00 28.09
  Ionic Valenz
   ZVAL   =   1.00  4.00
  Atomic Wigner-Seitz radii
   RWIGS  =  -1.00 -1.00
  virtual crystal weights 
   VCA    =   1.00  1.00
   NELECT =     333.0000    total number of electrons
   NUPDOWN=      -1.0000    fix difference up-down

 DOS related values:
   EMIN   =  10.00;   EMAX   =-10.00  energy-range for DOS
   EFERMI =   0.00;   METHOD = LEGACY      
   ISMEAR =     0;   SIGMA  =   0.10  broadening in eV -4-tet -1-fermi 0-gaus
   EFERMI_NEDOS =   21; number of points for ismear=-14 and -15

 Electronic relaxation 2 (details)
   IALGO  =     38    algorithm
   LDIAG  =      F    sub-space diagonalisation (order eigenvalues)
   LSUBROT=      F    optimize rotation matrix (better conditioning)
   TURBO    =      0    0=normal 1=particle mesh
   IRESTART =      0    0=no restart 2=restart with 2 vectors
   NREBOOT  =      0    no. of reboots
   NMIN     =      0    reboot dimension
   EREF     =   0.00    reference energy to select bands
   IMIX   =      4    mixing-type and parameters
     AMIX     =   0.40;   BMIX     =  1.00
     AMIX_MAG =   1.60;   BMIX_MAG =  1.00
     AMIN     =   0.10
     WC   =   100.;   INIMIX=   1;  MIXPRE=   1;  MAXMIX= -45

 Intra band minimization:
   WEIMIN = 0.0000     energy-eigenvalue tresh-hold
   EBREAK =  0.12E-08  absolut break condition
   DEPER  =   0.30     relativ break condition  

   TIME   =   0.40     timestep for ELM

  volume/ion in A,a.u.               =      23.05       155.57
  Fermi-wavevector in a.u.,A,eV,Ry     =   0.899797  1.700370 11.015750  0.809635
  Thomas-Fermi vector in A             =   2.022675

 Write flags
   LWAVE        =      F    write WAVECAR
   LDOWNSAMPLE  =      F    k-point downsampling of WAVECAR
   LCHARG       =      F    write CHGCAR
   LVTOT        =      F    write LOCPOT, total local potential
   LVHAR        =      F    write LOCPOT, Hartree potential only
   WRT_POTENTIAL= false  ! write potential to hdf5 file
   LELF         =      F    write electronic localiz. function (ELF)
   LORBIT       =     11    0 simple, 1 ext, 2 COOP (PROOUT), +10 PAW based schemes


 Python interface
   PLUGINS active      =      F    recompile with -DPLUGINS to activate

 Dipole corrections
   LMONO      =      F    monopole corrections only (constant potential shift)
   LDIPOL     =      F    correct potential (dipole corrections)
   IDIPOL     =      0    1-x, 2-y, 3-z, 4-all directions 
   EPSILON    =  1.0000000 bulk dielectric constant
   LVACPOTAV  =      F  vacuum potentials using an averaging scheme for the charge density
   VACPOTFLAT =  0.1000000 required flatness to determine vacuum potential

Coulomb truncation method
  LTRUNCATE          =      F  Coulomb kernel truncation to be used
  IDIMENSIONALITY    =      3  Dimensionality of cutoff (0 molecules / 2 surfaces)
  ISURFACE           =     -1  Direction of surface normal
  LCOARSEN           =      F  Coarsen the charge grid before padding, preferred


 Exchange correlation treatment:
   METAGGA = SCAN    functional components
   XC_C    = 1    coefficients multiplying the functional components
   LIBXC   =     F    Libxc                    
   VOSKOWN =     0    Vosko Wilk Nusair interpolation
   LHFCALC =     F    Hartree Fock is set to
   LHFONE  =     F    Hartree Fock one center treatment
   AEXX    =    0.0000 exact exchange contribution

 Parameters of functionals:
   SCAN:
     P1 =  0.000000E+00
     P2 =  0.000000E+00
     P3 =  0.000000E+00

 Accuracy and mixing parameters for tau-dependent meta-GGA functionals:
   LMAXTAU = 6
   LMIXTAU = T

 Van der Waals corrections
   IVDW    =     0    specifies the selected vdW correction

 Linear response parameters
   LEPSILON=     F    determine dielectric tensor
   LRPA    =     F    only Hartree local field effects (RPA)
   LNABLA  =     F    use nabla operator in PAW spheres
   LVEL    =     F    velocity operator in full k-point grid
   CSHIFT  =0.1000    complex shift for real part using Kramers Kronig
   OMEGAMAX=  -1.0    maximum frequency
   DEG_THRESHOLD= 0.2000000E-02 threshold for treating states as degnerate
   RTIME   =   -0.100 relaxation time in fs
  (WPLASMAI=    0.000 imaginary part of plasma frequency in eV, 0.658/RTIME)
   DFIELD  = 0.0000000 0.0000000 0.0000000 field for delta impulse in time

  Optional k-point grid parameters
   LKPOINTS_OPT  =     F    use optional k-point grid
   KPOINTS_OPT_MODE=     1    mode for optional k-point grid

 Orbital magnetization related:
   ORBITALMAG=     F  switch on orbital magnetization
   LCHIMAG   =     F  perturbation theory with respect to B field
   DQ        =  0.001000  dq finite difference perturbation B field
   LLRAUG    =     F  two centre corrections for induced B field
   LBONE     =     F  B-component reconstruction in AE one-centre
   LVGVCALC  =     T  calculate vGv susceptibility
   LVGVAPPL  =     F  apply vGv susceptibility instead of pGv for G=0

 Random number generation:
   RANDOM_GENERATOR = DEFAULT
   PCG_SEED         = not used


--------------------------------------------------------------------------------------------------------


 Static calculation
 charge density and potential will be updated during run
 non-spin polarized calculation
 Variant of blocked Davidson
 perform Loewdin sub-space diagonalisation
    ordering is kept fixed
    before iterative eigenvector-optimisation
 modified Broyden-mixing scheme, WC =      100.0
 initial mixing is a Kerker type mixing with AMIX =  0.4000 and BMIX =      1.0000
 Hartree-type preconditioning will be used
 using additional bands           49
 reciprocal scheme for non local part
 use partial core corrections
 calculate Harris-corrections to forces   (improved forces if not selfconsistent)
 use gradient corrections 
 use of overlap-Matrix (Vanderbilt PP)
 Gauss-broadening in eV      SIGMA  =   0.10


--------------------------------------------------------------------------------------------------------


  energy-cutoff  :     1200.00
  volume of cell :     2005.56
      direct lattice vectors                 reciprocal lattice vectors
    14.534204238  0.000000000  0.000000000     0.068803216  0.000000000  0.000000000
     0.000000000 14.534204238  0.000000000     0.000000000  0.068803216  0.000000000
     0.000000000  0.000000000  9.494070521     0.000000000  0.000000000  0.105328900

  length of vectors
    14.534204238 14.534204238  9.494070521     0.068803216  0.068803216  0.105328900



 old parameters found on file WAVECAR:
  energy-cutoff  :     1200.00
  volume of cell :     2005.56
      direct lattice vectors                 reciprocal lattice vectors
    14.534204238  0.000000000  0.000000000     0.068803216  0.000000000  0.000000000
     0.000000000 14.534204238  0.000000000     0.000000000  0.068803216  0.000000000
     0.000000000  0.000000000  9.494070521     0.000000000  0.000000000  0.105328900

  length of vectors


 k-points in units of 2pi/SCALE and weight: read from INCAR                         
   0.00000000  0.00000000  0.00000000       0.083
   0.03440161  0.00000000  0.00000000       0.083
   0.00000000  0.03440161  0.00000000       0.083
   0.03440161  0.03440161  0.00000000       0.083
   0.00000000  0.00000000  0.03510963       0.167
   0.03440161  0.00000000  0.03510963       0.167
   0.00000000  0.03440161  0.03510963       0.167
   0.03440161  0.03440161  0.03510963       0.167

 k-points in reciprocal lattice and weights: read from INCAR                         
   0.00000000  0.00000000  0.00000000       0.083
   0.50000000  0.00000000  0.00000000       0.083
   0.00000000  0.50000000  0.00000000       0.083
   0.50000000  0.50000000  0.00000000       0.083
   0.00000000  0.00000000  0.33333333       0.167
   0.50000000  0.00000000  0.33333333       0.167
   0.00000000  0.50000000  0.33333333       0.167
   0.50000000  0.50000000  0.33333333       0.167

 position of ions in fractional coordinates (direct lattice) 
   0.69062605  0.81192612  0.22877226
   0.79829620  0.84953395  0.30307127
   0.60987309  0.01125591  0.09383362
   0.82283831  0.69640552  0.02507154
   0.97922802  0.62449102  0.40617878
   0.95282822  0.57196183  0.10854564
   0.52354569  0.51260392  0.35929057
   0.31333604  0.91761474  0.11154962
   0.16642466  0.92005725  0.22611797
   0.37842251  0.29142222  0.33290989
   0.92716462  0.32798080  0.05083404
   0.80953864  0.58464364  0.65271687
   0.54328258  0.62695417  0.72944897
   0.80563062  0.33566131  0.63452868
   0.76714898  0.40061292  0.40782718
   0.88431398  0.45935642  0.74929505
   0.11673085  0.38656468  0.79269476
   0.81973528  0.23062013  0.94632328
   0.48984175  0.75671842  0.10002938
   0.24931396  0.92408224  0.70828208
   0.23506412  0.64654107  0.71073835
   0.60283314  0.76372946  0.28174954
   0.96782044  0.82733804  0.56421532
   0.53865901  0.00276418  0.47962146
   0.01791072  0.98981683  0.59302277
   0.54878202  0.14923074  0.84817782
   0.38992984  0.44645306  0.23564497
   0.90360640  0.33680688  0.28930899
   0.59589227  0.38612640  0.07940651
   0.38689493  0.00366692  0.40792619
   0.85514142  0.46367932  0.99818829
   0.51380040  0.38542461  0.64989722
   0.77886617  0.56355545  0.40977682
   0.62156551  0.37104405  0.31945202
   0.24432229  0.67352845  0.16715064
   0.05949338  0.24921557  0.67903540
   0.36527834  0.83262212  0.44933941
   0.07207481  0.62807773  0.64529224
   0.55463924  0.13762088  0.59363473
   0.12366209  0.76979103  0.22887233
   0.27672929  0.16629806  0.71693379
   0.09880279  0.35212936  0.02962723
   0.51756600  0.27142938  0.46429611
   0.14131630  0.02165678  0.43028962
   0.33552164  0.20797767  0.11315273
   0.68124817  0.54837746  0.80987496
   0.65741955  0.27698592  0.93848365
   0.29222721  0.68876836  0.92739568
   0.93670763  0.16913482  0.32640267
   0.09581330  0.48009577  0.18836704
   0.64459876  0.61471064  0.28558351
   0.39737229  0.04558784  0.16389809
   0.02394008  0.47799521  0.62710510
   0.03800951  0.40405859  0.38966532
   0.57892196  0.78241642  0.70998630
   0.26248565  0.41279040  0.69056365
   0.46349700  0.46818662  0.02380991
   0.88850410  0.81277928  0.31094566
   0.48456454  0.85491437  0.88724641
   0.46411416  0.53070948  0.57148196
   0.92119938  0.70447613  0.97300520
   0.24112225  0.78532679  0.58362427
   0.27328569  0.05112045  0.55405213
   0.08457842  0.14734209  0.27791346
   0.39775277  0.21751724  0.87887592
   0.98612898  0.82605142  0.11369201
   0.89496472  0.21809932  0.71929843
   0.66712218  0.38248534  0.74967212
   0.12066639  0.25998878  0.44346205
   0.92653163  0.69802239  0.73183678
   0.27234033  0.27954678  0.52084719
   0.53662587  0.83650951  0.49876499
   0.32401361  0.84579106  0.89145746
   0.69959799  0.51707062  0.05886158
   0.09935597  0.74436824  0.47173654
   0.13668378  0.14350080  0.82626519
   0.90796165  0.09625914  0.55195609
   0.29976667  0.53918053  0.55019077
   0.16158848  0.20696971  0.06778715
   0.24618410  0.53497253  0.27577002
   0.10103959  0.98728487  0.81198259
   0.52492588  0.00959241  0.00903946
   0.39713010  0.38004970  0.82609245
   0.05432489  0.97010471  0.05393651
   0.90282893  0.64380959  0.31385168
   0.46189182  0.62788714  0.94879641
   0.35167938  0.77559114  0.22534065

 position of ions in cartesian coordinates  (Angst):
  10.03770000 11.80070000  2.17198000
  11.60260000 12.34730000  2.87738000
   8.86402000  0.16359576  0.89086300
  11.95930000 10.12170000  0.23803100
  14.23230000  9.07648000  3.85629000
  13.84860000  8.31301000  1.03054000
   7.60932000  7.45029000  3.41113000
   4.55409000 13.33680000  1.05906000
   2.41885000 13.37230000  2.14678000
   5.50007000  4.23559000  3.16067000
  13.47560000  4.76694000  0.48262200
  11.76600000  8.49733000  6.19694000
   7.89618000  9.11228000  6.92544000
  11.70920000  4.87857000  6.02426000
  11.14990000  5.82259000  3.87194000
  12.85280000  6.67638000  7.11386000
   1.69659000  5.61841000  7.52590000
  11.91420000  3.35188000  8.98446000
   7.11946000 10.99830000  0.94968600
   3.62358000 13.43080000  6.72448000
   3.41647000  9.39696000  6.74780000
   8.76170000 11.10020000  2.67495000
  14.06650000 12.02470000  5.35670000
   7.82898000  0.04017510  4.55356000
   0.26031800 14.38620000  5.63020000
   7.97611000  2.16895000  8.05266000
   5.66732000  6.48884000  2.23723000
  13.13320000  4.89522000  2.74672000
   8.66082000  5.61204000  0.75389100
   5.62321000  0.05329576  3.87288000
  12.42880000  6.73921000  9.47687000
   7.46768000  5.60184000  6.17017000
  11.32020000  8.19083000  3.89045000
   9.03396000  5.39283000  3.03290000
   3.55103000  9.78920000  1.58694000
   0.86468900  3.62215000  6.44681000
   5.30903000 12.10150000  4.26606000
   1.04755000  9.12861000  6.12645000
   8.06124000  2.00021000  5.63601000
   1.79733000 11.18830000  2.17293000
   4.02204000  2.41701000  6.80662000
   1.43602000  5.11792000  0.28128300
   7.52241000  3.94501000  4.40806000
   2.05392000  0.31476400  4.08520000
   4.87654000  3.02279000  1.07428000
   9.90140000  7.97023000  7.68901000
   9.55507000  4.02577000  8.91003000
   4.24729000 10.01070000  8.80476000
  13.61430000  2.45824000  3.09889000
   1.39257000  6.97781000  1.78837000
   9.36873000  8.93433000  2.71135000
   5.77549000  0.66258300  1.55606000
   0.34795000  6.94728000  5.95378000
   0.55243800  5.87267000  3.69951000
   8.41417000 11.37180000  6.74066000
   3.81502000  5.99958000  6.55626000
   6.73656000  6.80472000  0.22605300
  12.91370000 11.81310000  2.95214000
   7.04276000 12.42550000  8.42358000
   6.74553000  7.71344000  5.42569000
  13.38890000 10.23900000  9.23778000
   3.50452000 11.41410000  5.54097000
   3.97199000  0.74299500  5.26021000
   1.22928000  2.14150000  2.63853000
   5.78102000  3.16144000  8.34411000
  14.33260000 12.00600000  1.07940000
  13.00760000  3.16990000  6.82907000
   9.69609000  5.55912000  7.11744000
   1.75379000  3.77873000  4.21026000
  13.46640000 10.14520000  6.94811000
   3.95825000  4.06299000  4.94496000
   7.79943000 12.15800000  4.73531000
   4.70928000 12.29290000  8.46356000
  10.16810000  7.51521000  0.55883600
   1.44406000 10.81880000  4.47870000
   1.98659000  2.08567000  7.84462000
  13.19650000  1.39905000  5.24031000
   4.35687000  7.83656000  5.22355000
   2.34856000  3.00814000  0.64357600
   3.57809000  7.77540000  2.61818000
   1.46853000 14.34940000  7.70902000
   7.62938000  0.13941800  0.08582130
   5.77197000  5.52372000  7.84298000
   0.78956900 14.09970000  0.51207700
  13.12190000  9.35726000  2.97973000
   6.71323000  9.12584000  9.00794000
   5.11138000 11.27260000  2.13940000



--------------------------------------------------------------------------------------------------------


 k-point     1 :   0.0000 0.0000 0.0000  plane waves:  189253
 k-point     2 :   0.5000 0.0000 0.0000  plane waves:  189334
 k-point     3 :   0.0000 0.5000 0.0000  plane waves:  189334
 k-point     4 :   0.5000 0.5000 0.0000  plane waves:  189188
 k-point     5 :   0.0000 0.0000 0.3333  plane waves:  189302
 k-point     6 :   0.5000 0.0000 0.3333  plane waves:  189340
 k-point     7 :   0.0000 0.5000 0.3333  plane waves:  189340
 k-point     8 :   0.5000 0.5000 0.3333  plane waves:  189348

 maximum and minimum number of plane-waves per node :     11894    11727

 maximum number of plane-waves:    189348
 maximum index in each direction: 
   IXMAX=   41   IYMAX=   41   IZMAX=   26
   IXMIN=  -41   IYMIN=  -41   IZMIN=  -27


 parallel 3D FFT for wavefunctions:
    minimum data exchange during FFTs selected (reduces bandwidth)
 parallel 3D FFT for charge:
    minimum data exchange during FFTs selected (reduces bandwidth)


 total amount of memory used by VASP MPI-rank0   165154. kBytes
=======================================================================

   base                                    :      30000. kBytes
   nonl-proj                               :      28663. kBytes
   fftplans                                :      36876. kBytes
   grid                                    :      28430. kBytes
   one-center                              :         18. kBytes
   wavefun                                 :      41167. kBytes

     INWAV:  cpu time      7.7619: real time      7.7650
 Broyden mixing: mesh for mixing (old mesh)
   NGX = 83   NGY = 83   NGZ = 53
  (NGX  =336   NGY  =336   NGZ  =216)
  gives a total of 365117 points

 initial charge density was supplied:
 number of electron     332.9999999 magnetization 
 keeping initial charge density in first step


--------------------------------------------------------------------------------------------------------


 Maximum index for augmentation-charges        11159 (set IRDMAX)


--------------------------------------------------------------------------------------------------------


 First call to EWALD:  gamma=   0.141
 Maximum number of real-space cells   2x   2x   3
 Maximum number of reciprocal cells   3x   3x   2

    FEWALD:  cpu time      0.0134: real time      0.0135


--------------------------------------- Ionic step        1  -------------------------------------------




--------------------------------------- Iteration      1(   1)  ---------------------------------------


    POTLOK:  cpu time      0.6570: real time      0.6575
    SETDIJ:  cpu time      1.1870: real time      1.1877
    EDDIAG:  cpu time     15.7779: real time     15.7902
     EDDAV:  cpu time     72.9400: real time     73.0048
       DOS:  cpu time      0.0083: real time      0.0083
    CHARGE:  cpu time      6.8347: real time      6.8411
    MIXING:  cpu time      0.0217: real time      0.0219
    --------------------------------------------
      LOOP:  cpu time     97.4268: real time     97.5117

 eigenvalue-minimisations  :  3464
 total energy-change (2. order) :-0.8628648E+03  (-0.9600758E+00)
 number of electron     332.9999999 magnetization 
 augmentation part      -18.2394134 magnetization 

 Broyden mixing:
  rms(total) = 0.11400E+01    rms(broyden)= 0.41432E+02
  rms(prec ) = 0.12174E+01
  weight for this iteration     100.00
  WARNING: grid for Broyden might be to small

 Free energy of the ion-electron system (eV)
  ---------------------------------------------------
  alpha Z        PSCENC =       116.60481463
  Ewald energy   TEWEN  =     -6834.88032860
  -Hartree energ DENC   =     -2634.34568300
  -exchange      EXHF   =         0.00000000
  -V(xc)+E(xc)   XCENC  =      -388.89719662
  PAW double counting   =     29803.34340517   -28985.45882493
  entropy T*S    EENTRO =        -0.10740067
  eigenvalues    EBANDS =      -453.04592694
  atomic energy  EATOM  =      8513.92234410
  Solvation  Ediel_sol  =         0.00000000
  ---------------------------------------------------
  free energy    TOTEN  =      -862.86479685 eV

  energy without entropy =     -862.75739618  energy(sigma->0) =     -862.81109652


--------------------------------------------------------------------------------------------------------




--------------------------------------- Iteration      1(   2)  ---------------------------------------


    POTLOK:  cpu time      0.6436: real time      0.6609
    SETDIJ:  cpu time      1.1789: real time      1.1796
    EDDIAG:  cpu time     15.8541: real time     15.8675
     EDDAV:  cpu time     72.9354: real time     73.0004
       DOS:  cpu time      0.0049: real time      0.0049
    CHARGE:  cpu time      6.6126: real time      6.6180
    MIXING:  cpu time      0.0147: real time      0.0147
    --------------------------------------------
      LOOP:  cpu time     97.2442: real time     97.3460

 eigenvalue-minimisations  :  3456
 total energy-change (2. order) : 0.5970485E+02  (-0.8703599E+00)
 number of electron     332.9999999 magnetization 
 augmentation part      -18.1640236 magnetization 

 Broyden mixing:
  rms(total) = 0.75762E+00    rms(broyden)= 0.23821E+02
  rms(prec ) = 0.79686E+00
  weight for this iteration     100.00
  WARNING: grid for Broyden might be to small

 eigenvalues of (default mixing * dielectric matrix)
  average eigenvalue GAMMA=   0.6349
  0.6349

 Free energy of the ion-electron system (eV)
  ---------------------------------------------------
  alpha Z        PSCENC =       116.60481463
  Ewald energy   TEWEN  =     -6834.88032860
  -Hartree energ DENC   =     -2626.35772673
  -exchange      EXHF   =         0.00000000
  -V(xc)+E(xc)   XCENC  =      -379.77117160
  PAW double counting   =     35844.85966525   -35026.75547561
  entropy T*S    EENTRO =        -0.10401910
  eigenvalues    EBANDS =      -410.67804828
  atomic energy  EATOM  =      8513.92234410
  Solvation  Ediel_sol  =         0.00000000
  ---------------------------------------------------
  free energy    TOTEN  =      -803.15994595 eV

  energy without entropy =     -803.05592685  energy(sigma->0) =     -803.10793640


--------------------------------------------------------------------------------------------------------




--------------------------------------- Iteration      1(   3)  ---------------------------------------


    POTLOK:  cpu time      0.6406: real time      0.6566
    SETDIJ:  cpu time      1.1792: real time      1.1800
    EDDIAG:  cpu time     15.9209: real time     15.9347
     EDDAV:  cpu time     72.7254: real time     72.7928
       DOS:  cpu time      0.0038: real time      0.0038
    CHARGE:  cpu time      6.6545: real time      6.6603
    MIXING:  cpu time      0.0130: real time      0.0130
    --------------------------------------------
      LOOP:  cpu time     97.1374: real time     97.2414

 eigenvalue-minimisations  :  3456
 total energy-change (2. order) :-0.3284082E+01  (-0.7023615E+00)
 number of electron     332.9999999 magnetization 
 augmentation part      -18.1063746 magnetization 

 Broyden mixing:
  rms(total) = 0.41792E+00    rms(broyden)= 0.21347E+02
  rms(prec ) = 0.47294E+00
  weight for this iteration     100.00
  WARNING: grid for Broyden might be to small

 eigenvalues of (default mixing * dielectric matrix)
  average eigenvalue GAMMA=   0.7281
  0.8310  0.6252

 Free energy of the ion-electron system (eV)
  ---------------------------------------------------
  alpha Z        PSCENC =       116.60481463
  Ewald energy   TEWEN  =     -6834.88032860
  -Hartree energ DENC   =     -2629.51403636
  -exchange      EXHF   =         0.00000000
  -V(xc)+E(xc)   XCENC  =      -384.62105155
  PAW double counting   =     41161.05348827   -40343.03653936
  entropy T*S    EENTRO =        -0.10679343
  eigenvalues    EBANDS =      -405.86592560
  atomic energy  EATOM  =      8513.92234410
  Solvation  Ediel_sol  =         0.00000000
  ---------------------------------------------------
  free energy    TOTEN  =      -806.44402789 eV

  energy without entropy =     -806.33723446  energy(sigma->0) =     -806.39063118


--------------------------------------------------------------------------------------------------------




--------------------------------------- Iteration      1(   4)  ---------------------------------------


    POTLOK:  cpu time      0.6378: real time      0.6554
    SETDIJ:  cpu time      1.1777: real time      1.1789
    EDDIAG:  cpu time     15.9081: real time     15.9202
     EDDAV:  cpu time     74.8064: real time     74.8735
       DOS:  cpu time      0.0046: real time      0.0046
    CHARGE:  cpu time      6.6684: real time      6.6749
    MIXING:  cpu time      0.0132: real time      0.0132
    --------------------------------------------
      LOOP:  cpu time     99.2162: real time     99.3208

 eigenvalue-minimisations  :  3600
 total energy-change (2. order) :-0.1758825E+00  (-0.7371911E-01)
 number of electron     332.9999999 magnetization 
 augmentation part      -18.0948657 magnetization 

 Broyden mixing:
  rms(total) = 0.45001E-01    rms(broyden)= 0.21807E+01
  rms(prec ) = 0.67743E-01
  weight for this iteration     100.00
  WARNING: grid for Broyden might be to small

 eigenvalues of (default mixing * dielectric matrix)
  average eigenvalue GAMMA=   0.9786
  1.6104  0.7032  0.6223

 Free energy of the ion-electron system (eV)
  ---------------------------------------------------
  alpha Z        PSCENC =       116.60481463
  Ewald energy   TEWEN  =     -6834.88032860
  -Hartree energ DENC   =     -2634.28062781
  -exchange      EXHF   =         0.00000000
  -V(xc)+E(xc)   XCENC  =      -385.19642998
  PAW double counting   =     48029.51272728   -47211.55491375
  entropy T*S    EENTRO =        -0.10495847
  eigenvalues    EBANDS =      -400.64253779
  atomic energy  EATOM  =      8513.92234410
  Solvation  Ediel_sol  =         0.00000000
  ---------------------------------------------------
  free energy    TOTEN  =      -806.61991038 eV

  energy without entropy =     -806.51495191  energy(sigma->0) =     -806.56743114


--------------------------------------------------------------------------------------------------------




--------------------------------------- Iteration      1(   5)  ---------------------------------------


    POTLOK:  cpu time      0.6367: real time      0.6534
    SETDIJ:  cpu time      1.1809: real time      1.1815
    EDDIAG:  cpu time     15.8766: real time     15.8907
     EDDAV:  cpu time     82.4953: real time     82.5733
       DOS:  cpu time      0.0037: real time      0.0037
    CHARGE:  cpu time      6.5776: real time      6.5838
    MIXING:  cpu time      0.0134: real time      0.0134
    --------------------------------------------
      LOOP:  cpu time    106.7842: real time    106.8997

 eigenvalue-minimisations  :  4248
 total energy-change (2. order) :-0.3874386E-01  (-0.7527544E-02)
 number of electron     332.9999999 magnetization 
 augmentation part      -18.0965375 magnetization 

 Broyden mixing:
  rms(total) = 0.49001E-01    rms(broyden)= 0.60842E+00
  rms(prec ) = 0.83847E-01
  weight for this iteration     100.00
  WARNING: grid for Broyden might be to small

 eigenvalues of (default mixing * dielectric matrix)
  average eigenvalue GAMMA=   1.0202
  2.1614  0.7874  0.6212  0.5108

 Free energy of the ion-electron system (eV)
  ---------------------------------------------------
  alpha Z        PSCENC =       116.60481463
  Ewald energy   TEWEN  =     -6834.88032860
  -Hartree energ DENC   =     -2634.69256905
  -exchange      EXHF   =         0.00000000
  -V(xc)+E(xc)   XCENC  =      -386.22455278
  PAW double counting   =     47762.79332506   -46944.80923463
  entropy T*S    EENTRO =        -0.10561161
  eigenvalues    EBANDS =      -399.26684137
  atomic energy  EATOM  =      8513.92234410
  Solvation  Ediel_sol  =         0.00000000
  ---------------------------------------------------
  free energy    TOTEN  =      -806.65865424 eV

  energy without entropy =     -806.55304263  energy(sigma->0) =     -806.60584843


--------------------------------------------------------------------------------------------------------




--------------------------------------- Iteration      1(   6)  ---------------------------------------


    POTLOK:  cpu time      0.6359: real time      0.6547
    SETDIJ:  cpu time      1.1784: real time      1.1792
    EDDIAG:  cpu time     15.8457: real time     15.8609
     EDDAV:  cpu time     77.7892: real time     77.8576
       DOS:  cpu time      0.0032: real time      0.0032
    CHARGE:  cpu time      6.5247: real time      6.5295
    MIXING:  cpu time      0.0134: real time      0.0134
    --------------------------------------------
      LOOP:  cpu time    101.9905: real time    102.0983

 eigenvalue-minimisations  :  3864
 total energy-change (2. order) : 0.1156099E-03  (-0.2396739E-02)
 number of electron     332.9999999 magnetization 
 augmentation part      -18.0972009 magnetization 

 Broyden mixing:
  rms(total) = 0.23015E-01    rms(broyden)= 0.29713E+00
  rms(prec ) = 0.26842E-01
  weight for this iteration     100.00
  WARNING: grid for Broyden might be to small

 eigenvalues of (default mixing * dielectric matrix)
  average eigenvalue GAMMA=   1.0322
  2.5339  0.9564  0.6592  0.6271  0.3842

 Free energy of the ion-electron system (eV)
  ---------------------------------------------------
  alpha Z        PSCENC =       116.60481463
  Ewald energy   TEWEN  =     -6834.88032860
  -Hartree energ DENC   =     -2634.84768084
  -exchange      EXHF   =         0.00000000
  -V(xc)+E(xc)   XCENC  =      -386.50877261
  PAW double counting   =     47685.61861797   -46867.62515711
  entropy T*S    EENTRO =        -0.10658450
  eigenvalues    EBANDS =      -398.83579167
  atomic energy  EATOM  =      8513.92234410
  Solvation  Ediel_sol  =         0.00000000
  ---------------------------------------------------
  free energy    TOTEN  =      -806.65853863 eV

  energy without entropy =     -806.55195413  energy(sigma->0) =     -806.60524638


--------------------------------------------------------------------------------------------------------




--------------------------------------- Iteration      1(   7)  ---------------------------------------


    POTLOK:  cpu time      0.6431: real time      0.6554
    SETDIJ:  cpu time      1.1790: real time      1.1796
    EDDIAG:  cpu time     15.8240: real time     15.8378
     EDDAV:  cpu time     75.0231: real time     75.0911
       DOS:  cpu time      0.0033: real time      0.0033
    CHARGE:  cpu time      6.4869: real time      6.4918
    MIXING:  cpu time      0.0144: real time      0.0145
    --------------------------------------------
      LOOP:  cpu time     99.1737: real time     99.2733

 eigenvalue-minimisations  :  3640
 total energy-change (2. order) :-0.1788246E-02  (-0.1035098E-02)
 number of electron     332.9999999 magnetization 
 augmentation part      -18.0948441 magnetization 

 Broyden mixing:
  rms(total) = 0.12504E-01    rms(broyden)= 0.22159E+00
  rms(prec ) = 0.19426E-01
  weight for this iteration     100.00
  WARNING: grid for Broyden might be to small

 eigenvalues of (default mixing * dielectric matrix)
  average eigenvalue GAMMA=   1.0176
  2.5575  1.1465  0.7593  0.6297  0.6297  0.3828

 Free energy of the ion-electron system (eV)
  ---------------------------------------------------
  alpha Z        PSCENC =       116.60481463
  Ewald energy   TEWEN  =     -6834.88032860
  -Hartree energ DENC   =     -2635.45955578
  -exchange      EXHF   =         0.00000000
  -V(xc)+E(xc)   XCENC  =      -386.36909721
  PAW double counting   =     47642.26799531   -46824.25596941
  entropy T*S    EENTRO =        -0.10603484
  eigenvalues    EBANDS =      -398.38449508
  atomic energy  EATOM  =      8513.92234410
  Solvation  Ediel_sol  =         0.00000000
  ---------------------------------------------------
  free energy    TOTEN  =      -806.66032687 eV

  energy without entropy =     -806.55429203  energy(sigma->0) =     -806.60730945


--------------------------------------------------------------------------------------------------------




--------------------------------------- Iteration      1(   8)  ---------------------------------------


    POTLOK:  cpu time      0.7053: real time      0.7221
    SETDIJ:  cpu time      1.1801: real time      1.1807
    EDDIAG:  cpu time     15.8166: real time     15.8299
     EDDAV:  cpu time     78.5329: real time     78.6032
       DOS:  cpu time      0.0040: real time      0.0040
    CHARGE:  cpu time      6.5683: real time      6.5734
    MIXING:  cpu time      0.0138: real time      0.0138
    --------------------------------------------
      LOOP:  cpu time    102.8210: real time    102.9271

 eigenvalue-minimisations  :  3912
 total energy-change (2. order) :-0.3742479E-03  (-0.1902601E-03)
 number of electron     332.9999999 magnetization 
 augmentation part      -18.0940364 magnetization 

 Broyden mixing:
  rms(total) = 0.39059E-02    rms(broyden)= 0.14487E+00
  rms(prec ) = 0.62505E-02
  weight for this iteration     100.00
  WARNING: grid for Broyden might be to small

 eigenvalues of (default mixing * dielectric matrix)
  average eigenvalue GAMMA=   0.9825
  2.5553  1.3666  0.8736  0.6528  0.6334  0.3978  0.3978

 Free energy of the ion-electron system (eV)
  ---------------------------------------------------
  alpha Z        PSCENC =       116.60481463
  Ewald energy   TEWEN  =     -6834.88032860
  -Hartree energ DENC   =     -2635.78876376
  -exchange      EXHF   =         0.00000000
  -V(xc)+E(xc)   XCENC  =      -386.29716265
  PAW double counting   =     47658.96271107   -46840.94041877
  entropy T*S    EENTRO =        -0.10648109
  eigenvalues    EBANDS =      -398.13741605
  atomic energy  EATOM  =      8513.92234410
  Solvation  Ediel_sol  =         0.00000000
  ---------------------------------------------------
  free energy    TOTEN  =      -806.66070112 eV

  energy without entropy =     -806.55422003  energy(sigma->0) =     -806.60746058


--------------------------------------------------------------------------------------------------------




--------------------------------------- Iteration      1(   9)  ---------------------------------------


    POTLOK:  cpu time      0.6348: real time      0.6515
    SETDIJ:  cpu time      1.1822: real time      1.1827
    EDDIAG:  cpu time     15.8640: real time     15.8781
     EDDAV:  cpu time     75.9322: real time     75.9952
       DOS:  cpu time      0.0054: real time      0.0054
    CHARGE:  cpu time      6.6295: real time      6.6348
    MIXING:  cpu time      0.0138: real time      0.0138
    --------------------------------------------
      LOOP:  cpu time    100.2621: real time    100.3617

 eigenvalue-minimisations  :  3688
 total energy-change (2. order) : 0.2264418E-04  (-0.6177448E-04)
 number of electron     332.9999999 magnetization 
 augmentation part      -18.0943478 magnetization 

 Broyden mixing:
  rms(total) = 0.18949E-02    rms(broyden)= 0.96351E-01
  rms(prec ) = 0.26810E-02
  weight for this iteration     100.00
  WARNING: grid for Broyden might be to small

 eigenvalues of (default mixing * dielectric matrix)
  average eigenvalue GAMMA=   1.0553
  2.6112  1.9613  1.0189  0.8038  0.6409  0.6325  0.3778  0.3958

 Free energy of the ion-electron system (eV)
  ---------------------------------------------------
  alpha Z        PSCENC =       116.60481463
  Ewald energy   TEWEN  =     -6834.88032860
  -Hartree energ DENC   =     -2635.73763726
  -exchange      EXHF   =         0.00000000
  -V(xc)+E(xc)   XCENC  =      -386.34119911
  PAW double counting   =     47693.94264910   -46875.91905924
  entropy T*S    EENTRO =        -0.10656281
  eigenvalues    EBANDS =      -398.14569928
  atomic energy  EATOM  =      8513.92234410
  Solvation  Ediel_sol  =         0.00000000
  ---------------------------------------------------
  free energy    TOTEN  =      -806.66067848 eV

  energy without entropy =     -806.55411567  energy(sigma->0) =     -806.60739707


--------------------------------------------------------------------------------------------------------




--------------------------------------- Iteration      1(  10)  ---------------------------------------


    POTLOK:  cpu time      0.6407: real time      0.6540
    SETDIJ:  cpu time      1.1778: real time      1.1789
    EDDIAG:  cpu time     15.8279: real time     15.8408
     EDDAV:  cpu time     80.2829: real time     80.3554
       DOS:  cpu time      0.0047: real time      0.0047
    CHARGE:  cpu time      6.5576: real time      6.5627
    MIXING:  cpu time      0.0141: real time      0.0141
    --------------------------------------------
      LOOP:  cpu time    104.5056: real time    104.6105

 eigenvalue-minimisations  :  4056
 total energy-change (2. order) :-0.1885740E-04  (-0.1159272E-04)
 number of electron     332.9999999 magnetization 
 augmentation part      -18.0944002 magnetization 

 Broyden mixing:
  rms(total) = 0.11629E-02    rms(broyden)= 0.25630E-01
  rms(prec ) = 0.15769E-02
  weight for this iteration     100.00
  WARNING: grid for Broyden might be to small

 eigenvalues of (default mixing * dielectric matrix)
  average eigenvalue GAMMA=   1.1141
  2.7753  2.4873  1.1298  0.8911  0.7081  0.6299  0.6232  0.3758  0.4059

 Free energy of the ion-electron system (eV)
  ---------------------------------------------------
  alpha Z        PSCENC =       116.60481463
  Ewald energy   TEWEN  =     -6834.88032860
  -Hartree energ DENC   =     -2635.69065074
  -exchange      EXHF   =         0.00000000
  -V(xc)+E(xc)   XCENC  =      -386.35497615
  PAW double counting   =     47690.67786829   -46872.65287147
  entropy T*S    EENTRO =        -0.10648864
  eigenvalues    EBANDS =      -398.18040876
  atomic energy  EATOM  =      8513.92234410
  Solvation  Ediel_sol  =         0.00000000
  ---------------------------------------------------
  free energy    TOTEN  =      -806.66069733 eV

  energy without entropy =     -806.55420870  energy(sigma->0) =     -806.60745302


--------------------------------------------------------------------------------------------------------




--------------------------------------- Iteration      1(  11)  ---------------------------------------


    POTLOK:  cpu time      0.6393: real time      0.6562
    SETDIJ:  cpu time      1.1802: real time      1.1808
    EDDIAG:  cpu time     15.8218: real time     15.8359
     EDDAV:  cpu time     77.9501: real time     78.0249
       DOS:  cpu time      0.0043: real time      0.0043
    CHARGE:  cpu time      6.5354: real time      6.5413
    MIXING:  cpu time      0.0146: real time      0.0146
    --------------------------------------------
      LOOP:  cpu time    102.1457: real time    102.2580

 eigenvalue-minimisations  :  3864
 total energy-change (2. order) :-0.1870498E-04  (-0.3975170E-05)
 number of electron     332.9999999 magnetization 
 augmentation part      -18.0944251 magnetization 

 Broyden mixing:
  rms(total) = 0.44860E-03    rms(broyden)= 0.10985E-01
  rms(prec ) = 0.62148E-03
  weight for this iteration     100.00
  WARNING: grid for Broyden might be to small

 eigenvalues of (default mixing * dielectric matrix)
  average eigenvalue GAMMA=   1.1733
  3.1246  2.6070  1.4278  1.0275  0.8485  0.3761  0.4038  0.6789  0.6318  0.6072

 Free energy of the ion-electron system (eV)
  ---------------------------------------------------
  alpha Z        PSCENC =       116.60481463
  Ewald energy   TEWEN  =     -6834.88032860
  -Hartree energ DENC   =     -2635.66564986
  -exchange      EXHF   =         0.00000000
  -V(xc)+E(xc)   XCENC  =      -386.35936523
  PAW double counting   =     47683.97924783   -46865.95279096
  entropy T*S    EENTRO =        -0.10649635
  eigenvalues    EBANDS =      -398.20249161
  atomic energy  EATOM  =      8513.92234410
  Solvation  Ediel_sol  =         0.00000000
  ---------------------------------------------------
  free energy    TOTEN  =      -806.66071604 eV

  energy without entropy =     -806.55421968  energy(sigma->0) =     -806.60746786


--------------------------------------------------------------------------------------------------------




--------------------------------------- Iteration      1(  12)  ---------------------------------------


    POTLOK:  cpu time      0.6420: real time      0.6591
    SETDIJ:  cpu time      1.1809: real time      1.1817
    EDDIAG:  cpu time     15.7632: real time     15.7776
     EDDAV:  cpu time     76.9048: real time     76.9748
       DOS:  cpu time      0.0049: real time      0.0049
    CHARGE:  cpu time      6.4914: real time      6.4972
    MIXING:  cpu time      0.0150: real time      0.0150
    --------------------------------------------
      LOOP:  cpu time    101.0022: real time    101.1104

 eigenvalue-minimisations  :  3784
 total energy-change (2. order) :-0.6945695E-05  (-0.1506021E-05)
 number of electron     332.9999999 magnetization 
 augmentation part      -18.0945015 magnetization 

 Broyden mixing:
  rms(total) = 0.23011E-03    rms(broyden)= 0.12244E-01
  rms(prec ) = 0.38732E-03
  weight for this iteration     100.00
  WARNING: grid for Broyden might be to small

 eigenvalues of (default mixing * dielectric matrix)
  average eigenvalue GAMMA=   1.1818
  3.3244  2.6177  1.6268  1.0243  0.9723  0.3759  0.4036  0.7492  0.6601  0.6228
  0.6228

 Free energy of the ion-electron system (eV)
  ---------------------------------------------------
  alpha Z        PSCENC =       116.60481463
  Ewald energy   TEWEN  =     -6834.88032860
  -Hartree energ DENC   =     -2635.62956387
  -exchange      EXHF   =         0.00000000
  -V(xc)+E(xc)   XCENC  =      -386.36922848
  PAW double counting   =     47684.35758234   -46866.33106582
  entropy T*S    EENTRO =        -0.10650731
  eigenvalues    EBANDS =      -398.22876998
  atomic energy  EATOM  =      8513.92234410
  Solvation  Ediel_sol  =         0.00000000
  ---------------------------------------------------
  free energy    TOTEN  =      -806.66072298 eV

  energy without entropy =     -806.55421568  energy(sigma->0) =     -806.60746933


--------------------------------------------------------------------------------------------------------




--------------------------------------- Iteration      1(  13)  ---------------------------------------


    POTLOK:  cpu time      0.6428: real time      0.6569
    SETDIJ:  cpu time      1.1805: real time      1.1818
    EDDIAG:  cpu time     15.8220: real time     15.8373
     EDDAV:  cpu time     74.2241: real time     74.2913
       DOS:  cpu time      0.0037: real time      0.0037
    --------------------------------------------
      LOOP:  cpu time     91.8735: real time     91.9714

 eigenvalue-minimisations  :  3560
 total energy-change (2. order) :-0.6324917E-06  (-0.6556269E-06)
 number of electron     332.9999999 magnetization 
 augmentation part      -18.0945015 magnetization 

 Free energy of the ion-electron system (eV)
  ---------------------------------------------------
  alpha Z        PSCENC =       116.60481463
  Ewald energy   TEWEN  =     -6834.88032860
  -Hartree energ DENC   =     -2635.61023262
  -exchange      EXHF   =         0.00000000
  -V(xc)+E(xc)   XCENC  =      -386.37384031
  PAW double counting   =     47683.84592733   -46865.81957302
  entropy T*S    EENTRO =        -0.10650425
  eigenvalues    EBANDS =      -398.24333089
  atomic energy  EATOM  =      8513.92234410
  Solvation  Ediel_sol  =         0.00000000
  ---------------------------------------------------
  free energy    TOTEN  =      -806.66072362 eV

  energy without entropy =     -806.55421937  energy(sigma->0) =     -806.60747149


--------------------------------------------------------------------------------------------------------




 average (electrostatic) potential at core
  the test charge radii are     0.5201  0.9892
  (the norm of the test charge is              1.0000)
       1 -34.3249       2 -35.1250       3 -34.5739       4 -34.4106       5 -35.0101
       6 -88.2777       7 -88.0927       8 -87.9269       9 -88.0753      10 -88.6390
      11 -88.1318      12 -88.0355      13 -88.1045      14 -88.1229      15 -88.3186
      16 -87.9201      17 -88.1746      18 -88.6042      19 -88.0329      20 -88.0245
      21 -88.1983      22 -88.2073      23 -88.3450      24 -88.1900      25 -88.3196
      26 -88.6641      27 -88.3918      28 -88.1531      29 -88.2405      30 -88.2149
      31 -88.2899      32 -88.0587      33 -88.1865      34 -88.1946      35 -88.1968
      36 -88.3212      37 -88.2390      38 -88.0965      39 -88.6133      40 -87.9621
      41 -88.2017      42 -88.6228      43 -88.4501      44 -88.3988      45 -88.6508
      46 -88.2053      47 -88.4064      48 -88.3987      49 -88.3740      50 -88.6054
      51 -88.4389      52 -88.1742      53 -88.2326      54 -88.2557      55 -87.9423
      56 -88.1728      57 -88.3395      58 -88.1921      59 -88.3093      60 -88.1074
      61 -88.1302      62 -87.8572      63 -88.1713      64 -88.3275      65 -88.3592
      66 -88.1023      67 -88.5408      68 -88.1489      69 -88.1709      70 -88.4246
      71 -88.1964      72 -88.4539      73 -88.0853      74 -88.5380      75 -87.9382
      76 -88.1163      77 -88.1926      78 -88.4483      79 -88.6624      80 -88.7406
      81 -88.1666      82 -88.4504      83 -87.9860      84 -88.1116      85 -87.9740
      86 -88.2840      87 -87.7998



 E-fermi :   3.9380     XC(G=0):  -8.7980     alpha+bet : -9.8752

 WARNING: Could not determine fundamental gap because eigenvalues are not
     sorted.

 Fermi energy:         3.9379870664

 k-point     1 :       0.0000    0.0000    0.0000
  band No.  band energies     occupation 
      1      -8.3960      2.00000
      2      -8.0798      2.00000
      3      -7.8943      2.00000
      4      -7.7248      2.00000
      5      -7.3579      2.00000
      6      -7.3250      2.00000
      7      -7.1307      2.00000
      8      -6.9972      2.00000
      9      -6.9190      2.00000
     10      -6.7912      2.00000
     11      -6.7208      2.00000
     12      -6.6180      2.00000
     13      -6.5246      2.00000
     14      -6.4441      2.00000
     15      -6.4035      2.00000
     16      -6.3136      2.00000
     17      -6.2295      2.00000
     18      -6.1597      2.00000
     19      -6.0591      2.00000
     20      -5.9979      2.00000
     21      -5.8876      2.00000
     22      -5.8481      2.00000
     23      -5.7280      2.00000
     24      -5.7108      2.00000
     25      -5.6575      2.00000
     26      -5.6101      2.00000
     27      -5.5757      2.00000
     28      -5.4184      2.00000
     29      -5.3300      2.00000
     30      -5.2907      2.00000
     31      -5.1682      2.00000
     32      -5.0826      2.00000
     33      -5.0262      2.00000
     34      -4.9972      2.00000
     35      -4.7362      2.00000
     36      -4.7035      2.00000
     37      -4.5960      2.00000
     38      -4.5097      2.00000
     39      -4.4434      2.00000
     40      -4.2834      2.00000
     41      -4.2463      2.00000
     42      -4.1231      2.00000
     43      -3.9929      2.00000
     44      -3.8989      2.00000
     45      -3.7795      2.00000
     46      -3.7069      2.00000
     47      -3.4870      2.00000
     48      -3.4664      2.00000
     49      -3.3520      2.00000
     50      -3.3071      2.00000
     51      -3.1839      2.00000
     52      -3.1499      2.00000
     53      -3.0491      2.00000
     54      -2.8271      2.00000
     55      -2.8082      2.00000
     56      -2.6425      2.00000
     57      -2.6064      2.00000
     58      -2.5521      2.00000
     59      -2.3752      2.00000
     60      -2.2811      2.00000
     61      -2.2226      2.00000
     62      -2.0626      2.00000
     63      -1.9787      2.00000
     64      -1.9386      2.00000
     65      -1.8221      2.00000
     66      -1.7448      2.00000
     67      -1.6605      2.00000
     68      -1.6046      2.00000
     69      -1.5150      2.00000
     70      -1.4268      2.00000
     71      -1.3707      2.00000
     72      -1.3078      2.00000
     73      -1.1741      2.00000
     74      -1.0613      2.00000
     75      -1.0352      2.00000
     76      -0.9839      2.00000
     77      -0.8273      2.00000
     78      -0.7969      2.00000
     79      -0.6943      2.00000
     80      -0.5977      2.00000
     81      -0.5052      2.00000
     82      -0.4018      2.00000
     83      -0.3387      2.00000
     84      -0.2866      2.00000
     85      -0.2706      2.00000
     86      -0.0880      2.00000
     87      -0.0549      2.00000
     88      -0.0053      2.00000
     89       0.0163      2.00000
     90       0.0640      2.00000
[...]
   0.369E+02 0.599E+01 0.235E+02   -.366E+02 -.360E+01 -.224E+02   -.136E+01 -.283E+01 -.682E+00   0.364E-03 -.899E-04 0.288E-04
   -.367E+02 0.178E+02 -.189E+02   0.342E+02 -.189E+02 0.183E+02   0.333E+01 0.208E+01 0.110E+00   0.196E-03 -.305E-03 0.190E-04
   -.834E+01 0.189E+01 -.513E+01   0.880E+01 -.235E+01 0.502E+01   -.152E+01 0.921E+00 0.301E+00   0.575E-03 0.225E-03 0.259E-03
   -.470E+02 0.693E+02 0.216E+02   0.464E+02 -.671E+02 -.207E+02   0.962E+00 -.131E+01 -.106E+01   -.771E-03 0.295E-03 0.333E-04
   0.375E+02 0.979E+01 0.143E+02   -.371E+02 -.946E+01 -.140E+02   -.121E+01 -.410E+00 -.157E+01   0.767E-03 -.239E-03 -.129E-03
   -.198E+02 0.129E+02 -.818E+01   0.203E+02 -.132E+02 0.662E+01   -.858E+00 -.100E+01 0.174E+01   -.183E-03 -.329E-04 0.802E-04
   -.608E+01 -.601E+02 -.311E+01   0.580E+01 0.596E+02 0.241E+01   0.417E-01 0.399E+00 0.216E+00   -.388E-03 0.511E-03 -.854E-04
   -.185E+02 0.102E+03 -.261E+02   0.171E+02 -.980E+02 0.248E+02   0.122E+01 -.441E+01 0.126E+00   -.114E-02 0.729E-03 -.987E-04
   0.191E+02 0.159E+02 0.505E+01   -.186E+02 -.150E+02 -.600E+01   0.737E+00 -.174E+01 0.127E+01   0.145E-03 0.370E-04 -.102E-03
   0.102E+03 0.707E+02 0.323E+02   -.992E+02 -.689E+02 -.310E+02   -.407E+01 -.117E+01 -.486E-02   0.132E-02 0.455E-03 -.172E-03
   -.126E+02 -.238E+02 0.191E+02   0.117E+02 0.217E+02 -.180E+02   0.730E+00 0.221E+01 -.832E+00   0.355E-03 0.217E-03 0.890E-04
   -.194E+02 -.511E+02 0.741E+01   0.186E+02 0.524E+02 -.515E+01   0.119E+01 -.302E+01 -.248E+01   -.230E-03 0.213E-03 0.723E-04
   -.569E+02 -.265E+02 0.456E+01   0.556E+02 0.247E+02 -.447E+01   0.826E+00 0.254E+01 -.297E+00   -.492E-03 0.518E-05 0.704E-04
   0.371E+01 -.712E+01 0.626E+01   -.414E+01 0.924E+01 -.412E+01   0.903E+00 -.297E+01 -.172E+01   0.305E-03 0.555E-03 -.822E-04
   0.620E+01 -.676E+01 -.368E+01   -.632E+01 0.520E+01 0.166E+01   0.440E-01 0.929E+00 0.266E+01   0.439E-03 0.323E-03 -.195E-03
   -.924E+02 -.598E+02 -.116E+02   0.932E+02 0.594E+02 0.102E+02   -.579E+00 0.474E+00 0.215E+01   -.784E-03 -.677E-03 -.237E-03
   0.339E+01 -.830E+01 -.184E+02   -.283E+01 0.839E+01 0.176E+02   0.888E-02 -.120E+01 0.226E+00   0.205E-03 0.245E-03 -.225E-04
   0.531E+01 -.312E+01 0.749E+01   -.655E+01 0.262E+01 -.630E+01   0.433E-01 0.173E+00 -.222E+01   -.270E-03 0.387E-03 -.700E-04
   0.632E+02 -.739E+02 -.619E+01   -.650E+02 0.747E+02 0.491E+01   0.389E+01 -.189E+01 0.261E+01   0.558E-03 -.973E-03 -.558E-04
   -.867E+02 -.493E+02 0.189E+02   0.846E+02 0.471E+02 -.187E+02   0.284E+01 0.262E+01 0.777E+00   -.456E-03 -.562E-03 -.525E-03
   -.483E+01 -.383E+02 -.327E+01   0.745E+01 0.366E+02 0.167E+01   -.275E+01 0.203E+01 0.237E+01   -.133E-03 0.518E-03 0.105E-03
   0.261E+02 -.712E+02 0.245E+02   -.278E+02 0.703E+02 -.228E+02   0.169E+01 0.124E+01 -.856E+00   0.242E-03 -.359E-03 0.978E-04
   -.174E+01 -.482E+01 -.725E+01   0.354E+00 0.512E+01 0.841E+01   0.692E+00 0.689E-01 -.996E+00   0.330E-03 0.908E-04 -.138E-04
   -.287E+02 -.486E+01 -.529E+00   0.290E+02 0.430E+01 0.105E+01   0.134E+00 0.152E-01 0.384E+00   0.181E-03 -.456E-03 0.660E-05
   0.302E+02 0.409E+02 0.387E+02   -.320E+02 -.392E+02 -.353E+02   0.307E+01 -.229E+01 -.328E+01   0.777E-03 -.131E-03 -.265E-03
   -.311E+02 0.371E+02 -.127E+02   0.314E+02 -.352E+02 0.125E+02   -.369E+00 -.125E+01 -.234E-01   -.268E-03 -.211E-04 0.576E-04
   0.699E+02 -.504E+02 0.397E+02   -.693E+02 0.508E+02 -.395E+02   -.467E+00 -.638E+00 -.435E+00   0.848E-03 -.291E-03 -.520E-04
   0.465E+02 0.860E+02 -.161E+02   -.467E+02 -.846E+02 0.151E+02   0.161E+00 -.188E+01 0.591E+00   0.592E-03 0.592E-03 -.284E-03
   -.232E+01 0.361E+02 0.119E+02   0.267E+01 -.365E+02 -.112E+02   -.609E+00 0.646E+00 -.898E+00   -.481E-03 0.687E-03 -.137E-03
   0.822E+01 0.117E+02 0.183E+02   -.728E+01 -.120E+02 -.186E+02   -.141E+01 0.135E+01 0.848E+00   0.645E-03 0.120E-03 -.408E-03
   0.471E+02 -.771E+02 -.129E+02   -.462E+02 0.752E+02 0.140E+02   -.410E+00 0.182E+01 -.237E+01   0.273E-03 -.428E-03 0.366E-04
   -.226E+02 0.117E+02 0.161E+02   0.208E+02 -.112E+02 -.152E+02   0.139E+01 0.125E+00 0.373E+00   0.151E-03 0.440E-04 -.243E-03
   -.760E+02 -.314E+02 -.404E+00   0.752E+02 0.305E+02 0.403E+01   0.226E+00 0.911E+00 -.426E+01   -.886E-03 -.872E-03 0.400E-03
   -.468E+01 -.231E+02 0.194E+02   0.552E+01 0.245E+02 -.177E+02   -.752E+00 -.348E+00 -.171E+01   -.940E-04 -.479E-04 -.367E-03
   -.988E+01 -.435E+02 -.129E+02   0.811E+01 0.415E+02 0.111E+02   0.149E+01 0.210E+01 0.157E+01   -.331E-03 0.558E-03 0.131E-03
   0.277E+02 -.153E+02 0.111E+01   -.276E+02 0.159E+02 -.567E-01   -.123E+00 -.321E+00 -.745E+00   0.509E-03 -.133E-03 -.126E-03
   0.365E+02 0.273E+02 -.347E+02   -.363E+02 -.284E+02 0.320E+02   -.268E+00 0.150E+01 0.317E+01   0.637E-03 -.386E-03 0.271E-03
   0.110E+03 0.624E+02 0.165E+01   -.108E+03 -.621E+02 -.115E+01   -.223E+01 0.824E+00 -.128E+01   0.131E-02 0.344E-03 -.154E-03
   0.200E+01 -.198E+02 0.207E+02   -.123E+01 0.187E+02 -.169E+02   -.117E+01 0.133E+01 -.375E+01   0.141E-03 0.362E-03 -.256E-05
   0.386E+01 0.293E+02 -.547E+01   -.457E+01 -.285E+02 0.447E+01   0.142E+01 -.142E+01 0.969E+00   0.416E-03 -.196E-03 0.233E-03
   0.499E+01 0.103E+02 -.502E-01   -.405E+01 -.903E+01 -.278E+01   -.298E+00 -.221E+01 0.361E+01   0.452E-04 0.322E-03 -.305E-04
   0.642E+02 0.305E+02 -.257E+02   -.629E+02 -.291E+02 0.255E+02   -.630E+00 -.166E+01 0.231E+00   0.847E-03 -.512E-03 0.356E-03
   -.848E+02 0.213E+01 0.108E+02   0.867E+02 -.195E+01 -.810E+01   -.215E+01 -.266E-01 -.357E+01   -.119E-02 -.259E-03 -.149E-03
   0.363E+01 0.473E+01 -.265E+02   -.268E+01 -.594E+01 0.251E+02   -.379E+00 0.691E+00 0.146E+01   -.112E-03 0.248E-03 0.519E-04
   0.873E+02 -.250E+02 0.178E+02   -.878E+02 0.252E+02 -.158E+02   0.506E-01 -.525E+00 -.194E+01   0.974E-03 -.217E-03 0.951E-04
   0.393E+02 -.478E+02 0.590E+01   -.370E+02 0.460E+02 -.426E+01   -.321E+01 0.222E+01 -.209E+01   0.124E-03 -.586E-04 0.596E-04
   -.196E+02 -.123E+02 -.162E+01   0.207E+02 0.136E+02 0.103E+01   -.168E+01 -.122E+01 0.703E+00   -.102E-03 0.878E-04 -.122E-03
   -.351E+02 0.206E+01 -.162E+02   0.350E+02 -.141E+01 0.159E+02   0.156E+01 0.460E+00 0.174E+00   -.247E-04 -.228E-03 0.369E-03
 -----------------------------------------------------------------------------------------------
   0.278E+01 0.896E+01 0.126E+02   0.263E-12 0.131E-12 0.782E-13   -.278E+01 -.896E+01 -.126E+02   0.350E-02 0.649E-02 -.565E-03


 POSITION                                       TOTAL-FORCE (eV/Angst)
 -----------------------------------------------------------------------------------
     10.03770     11.80070      2.17198        -0.928020     -0.167947      0.288950
     11.60260     12.34730      2.87738        -1.054319      0.464971     -0.115059
      8.86402      0.16360      0.89086         0.317955     -0.293065      0.042282
     11.95930     10.12170      0.23803         0.063005      0.171371     -0.324536
     14.23230      9.07648      3.85629         0.599851     -0.149477      0.648941
     13.84860      8.31301      1.03054         0.992207     -0.139901     -0.257671
      7.60932      7.45029      3.41113         1.040609     -0.791388     -1.614960
      4.55409     13.33680      1.05906        -1.069939     -0.633567      0.262314
      2.41885     13.37230      2.14678         0.468306      1.211394     -0.221463
      5.50007      4.23559      3.16067         0.081944      0.103693     -0.570133
     13.47560      4.76694      0.48262         0.313657     -0.047446      0.217745
     11.76600      8.49733      6.19694        -0.329131      0.745303      0.969632
      7.89618      9.11228      6.92544         0.084775     -0.198814      1.040617
     11.70920      4.87857      6.02426        -0.821274      1.542766     -0.281923
     11.14990      5.82259      3.87194         1.407727     -0.555860     -0.434043
     12.85280      6.67638      7.11386        -0.314194      0.130838     -0.890756
      1.69659      5.61841      7.52590        -0.097741      0.221502     -1.595484
     11.91420      3.35188      8.98446         0.426772     -0.398840     -0.048607
      7.11946     10.99830      0.94969         0.332533     -0.140953     -0.432563
      3.62358     13.43080      6.72448        -1.146265     -0.364755      0.521794
      3.41647      9.39696      6.74780        -0.824029      0.259462     -0.743586
      8.76170     11.10020      2.67495         0.230715      1.411703     -0.430963
     14.06650     12.02470      5.35670         0.066596      0.109808     -1.448583
      7.82898      0.04018      4.55356        -0.134581     -0.348759      0.215313
      0.26032     14.38620      5.63020         0.388900     -1.413062      0.366902
      7.97611      2.16895      8.05266         0.074161      0.340052      0.596885
      5.66732      6.48884      2.23723        -0.340921      0.555715      0.615625
     13.13320      4.89522      2.74672        -0.403416     -0.843936      0.988444
      8.66082      5.61204      0.75389         1.093036      0.680600      0.664580
      5.62321      0.05330      3.87288         0.726948     -0.683261     -0.815757
     12.42880      6.73921      9.47687         0.183082      0.763409     -0.195059
      7.46768      5.60184      6.17017        -0.232629     -0.470516      0.138847
     11.32020      8.19083      3.89045        -0.435569      0.141676      0.424378
      9.03396      5.39283      3.03290        -1.585065      0.013547      1.100779
      3.55103      9.78920      1.58694        -0.489434      0.240020     -1.116061
      0.86469      3.62215      6.44681        -0.246508     -0.171852      0.532526
      5.30903     12.10150      4.26606         1.363268      0.754790     -0.351993
      1.04755      9.12861      6.12645         0.138571      0.641943      0.116007
      8.06124      2.00021      5.63601        -0.233264     -0.385379      0.519016
      1.79733     11.18830      2.17293        -1.179764     -0.528867      0.398110
      4.02204      2.41701      6.80662         1.017075      1.035439     -0.482667
      1.43602      5.11792      0.28128        -1.191833      0.509484      0.172673
      7.52241      3.94501      4.40806         0.349070      0.858039     -0.191146
      2.05392      0.31476      4.08520        -0.905076     -0.076677     -1.370800
      4.87654      3.02279      1.07428        -0.409498     -1.454170      0.276047
      9.90140      7.97023      7.68901        -0.249117     -0.141044     -0.504250
      9.55507      4.02577      8.91003        -0.036545     -1.087809     -1.124311
      4.24729     10.01070      8.80476         1.309539     -0.872224      0.379457
     13.61430      2.45824      3.09889        -1.632567      0.537740      1.386704
      1.39257      6.97781      1.78837        -0.104143      0.158122      0.250954
      9.36873      8.93433      2.71135         0.425664     -1.983701     -0.331013
      5.77549      0.66258      1.55606        -0.409433      0.822871     -0.240267
      0.34795      6.94728      5.95378         0.546664     -1.009180      0.376563
      0.55244      5.87267      3.69951        -0.091832     -0.611679      0.769820
      8.41417     11.37180      6.74066        -0.048336      0.015881      0.832143
      3.81502      5.99958      6.55626         0.591901     -1.191913     -0.624708
      6.73656      6.80472      0.22605        -1.185823     -0.368381     -1.126584
     12.91370     11.81310      2.95214         2.179534     -1.294280      1.456196
      7.04276     12.42550      8.42358         0.862434      0.529536      1.160120
      6.74553      7.71344      5.42569        -0.256262      0.368512      0.875746
     13.38890     10.23900      9.23778         0.030773      0.365402      0.897874
      3.50452     11.41410      5.54097        -0.636289      0.388476      0.104030
      3.97199      0.74300      5.26021         0.451122     -0.608370      0.932342
      1.22928      2.14150      2.63853         1.451535     -0.667508     -0.022460
      5.78102      3.16144      8.34411        -0.129924      0.603314     -0.200429
     14.33260     12.00600      1.07940         0.090831     -0.303623     -0.242624
     13.00760      3.16990      6.82907        -0.079381     -0.501187     -0.445552
      9.69609      5.55912      7.11744        -0.290416      0.283284     -0.200829
      1.75379      3.77873      4.21026        -0.563558      1.136456      0.600734
     13.46640     10.14520      6.94811         0.462983      0.007097     -1.464999
      3.95825      4.06299      4.94496        -0.389575      0.598289      1.251874
      7.79943     12.15800      4.73531        -0.527827      0.163705     -0.858830
      4.70928     12.29290      8.46356         0.067156      0.954923     -0.047784
     10.16810      7.51521      0.55884        -0.195359      0.085955     -0.271283
      1.44406     10.81880      4.47870         0.019858      0.283788      0.322852
      1.98659      2.08567      7.84462         0.055915      0.473944      0.628828
     13.19650      1.39905      5.24031        -0.265887      1.229267     -0.869070
      4.35687      7.83656      5.22355        -0.456164      0.251856     -0.108188
      2.34856      3.00814      0.64358         0.757218     -0.650902      0.027605
      3.57809      7.77540      2.61818         0.629333     -1.034686      0.942517
      1.46853     14.34940      7.70902         0.580904     -0.253309     -0.061525
      7.62938      0.13942      0.08582        -0.305102      0.196564     -1.032759
      5.77197      5.52372      7.84298         0.585152     -0.515535      0.084277
      0.78957     14.09970      0.51208        -0.327431     -0.592207     -0.134133
     13.12190      9.35726      2.97973        -1.050657      0.417479     -0.529935
      6.71323      9.12584      9.00794        -0.731773     -0.004768      0.158272
      5.11138     11.27260      2.13940         1.476592      1.170810     -0.181970
 -----------------------------------------------------------------------------------
    total drift:                                0.003682      0.000657     -0.014893


--------------------------------------------------------------------------------------------------------



  FREE ENERGIE OF THE ION-ELECTRON SYSTEM (eV)
  ---------------------------------------------------
  free  energy   TOTEN  =      -806.66072362 eV

  energy  without entropy=     -806.55421937  energy(sigma->0) =     -806.60747149



--------------------------------------------------------------------------------------------------------


    POTLOK:  cpu time      1.8076: real time      1.8090


--------------------------------------------------------------------------------------------------------


     LOOP+:  cpu time   1453.6437: real time   1455.1200
    4ORBIT:  cpu time      0.0000: real time      0.0000



 total charge

# of ion       s       p       d       tot
------------------------------------------
    1        0.545   0.015   0.000   0.559
    2        0.597   0.021   0.000   0.617
    3        0.571   0.016   0.000   0.588
    4        0.557   0.015   0.000   0.572
    5        0.592   0.020   0.000   0.612
    6        0.757   0.905   0.000   1.662
    7        0.756   0.924   0.000   1.680
    8        0.765   0.933   0.000   1.698
    9        0.761   0.910   0.000   1.671
   10        0.747   0.882   0.000   1.629
   11        0.755   0.946   0.000   1.701
   12        0.755   0.911   0.000   1.666
   13        0.748   0.923   0.000   1.672
   14        0.754   0.927   0.000   1.682
   15        0.749   0.910   0.000   1.659
   16        0.757   0.940   0.000   1.697
   17        0.749   0.929   0.000   1.678
   18        0.792   0.819   0.000   1.612
   19        0.750   0.915   0.000   1.664
   20        0.761   0.910   0.000   1.671
   21        0.756   0.921   0.000   1.677
   22        0.739   0.951   0.000   1.690
   23        0.765   0.820   0.000   1.585
   24        0.780   0.888   0.000   1.668
   25        0.750   0.907   0.000   1.657
   26        0.753   0.832   0.000   1.585
   27        0.754   0.893   0.000   1.646
   28        0.760   0.897   0.000   1.657
   29        0.752   0.956   0.000   1.708
   30        0.759   0.916   0.000   1.675
   31        0.756   0.916   0.000   1.672
   32        0.756   0.911   0.000   1.666
   33        0.748   0.933   0.000   1.681
   34        0.756   0.905   0.000   1.661
   35        0.751   0.991   0.000   1.742
   36        0.762   0.880   0.000   1.642
   37        0.761   0.898   0.000   1.659
   38        0.761   0.898   0.000   1.659
   39        0.767   0.868   0.000   1.635
   40        0.758   0.955   0.000   1.712
   41        0.754   0.926   0.000   1.680
   42        0.752   0.904   0.000   1.656
   43        0.748   0.886   0.000   1.634
   44        0.756   0.895   0.000   1.651
   45        0.755   0.833   0.000   1.589
   46        0.762   0.863   0.000   1.625
   47        0.755   0.902   0.000   1.657
   48        0.756   0.898   0.000   1.654
   49        0.790   0.838   0.000   1.629
   50        0.752   0.869   0.000   1.622
   51        0.759   0.887   0.000   1.646
   52        0.751   0.909   0.000   1.661
   53        0.753   0.902   0.000   1.655
   54        0.751   0.893   0.000   1.645
   55        0.786   0.888   0.000   1.674
   56        0.755   0.903   0.000   1.657
   57        0.750   0.916   0.000   1.666
   58        0.749   0.925   0.000   1.674
   59        0.755   0.865   0.000   1.620
   60        0.752   0.969   0.000   1.721
   61        0.749   0.952   0.000   1.701
   62        0.754   0.953   0.000   1.707
   63        0.761   0.969   0.000   1.729
   64        0.752   0.925   0.000   1.677
   65        0.750   0.885   0.000   1.635
   66        0.755   0.904   0.000   1.659
   67        0.754   0.888   0.000   1.642
   68        0.757   0.896   0.000   1.653
   69        0.761   0.908   0.000   1.669
   70        0.753   0.874   0.000   1.627
   71        0.753   0.899   0.000   1.653
   72        0.757   0.874   0.000   1.632
   73        0.756   0.940   0.000   1.696
   74        0.769   0.825   0.000   1.595
   75        0.762   0.905   0.000   1.667
   76        0.756   0.929   0.000   1.685
   77        0.781   0.871   0.000   1.652
   78        0.757   0.877   0.000   1.633
   79        0.752   0.862   0.000   1.614
   80        0.751   0.862   0.000   1.614
   81        0.754   0.893   0.000   1.647
   82        0.744   0.881   0.000   1.625
   83        0.752   0.909   0.000   1.661
   84        0.796   0.825   0.000   1.621
   85        0.750   0.981   0.000   1.731
   86        0.760   0.862   0.000   1.621
   87        0.761   0.987   0.000   1.748
--------------------------------------------------
tot         64.961  74.114   0.000 139.076


 total amount of memory used by VASP MPI-rank0   165154. kBytes
=======================================================================

   base                                    :      30000. kBytes
   nonl-proj                               :      28663. kBytes
   fftplans                                :      36876. kBytes
   grid                                    :      28430. kBytes
   one-center                              :         18. kBytes
   wavefun                                 :      41167. kBytes

  
  
 General timing and accounting informations for this job:
 ========================================================
  
                  Total CPU time used (sec):     1512.499
                            User time (sec):     1505.857
                          System time (sec):        6.642
                         Elapsed time (sec):     1513.973
  
                   Maximum memory used (kb):      347468.
                   Average memory used (kb):          N/A
  
                          Minor page faults:       235689
                          Major page faults:         1151
                 Voluntary context switches:         2551
