 vasp.6.5.0 16Dec24 (build Jan 20 2025 08:32:48) complex                         
 executed on        HPECrayEX_GCC date 2025.07.29  10:27:04
 running  128 mpi-ranks, with    1 threads/rank, on    1 nodes
 distrk:  each k-point on  128 cores,    1 groups
 distr:  one band on NCORE=  16 cores,    8 groups


--------------------------------------------------------------------------------------------------------


 INCAR:
   SYSTEM = a-Si SPC
   NCORE = 16
   ISTART = 1
   ICHARG = 1
   ISPIN = 1
   ISYM = 1
   EDIFF = 1E-6
   NELM = 150
   EDIFFG = -0.01
   NSW = 0
   ISIF = 2
   IBRION = -1
   PREC = Accurate
   ENCUT = 1200
   KSPACING = 0.23
   KGAMMA = .TRUE.
   METAGGA = SCAN
   LASPH = .TRUE.
   LDIAG = .FALSE.
   LMIXTAU = .TRUE.
   ADDGRID = .TRUE.
   ALGO = Normal
   ISMEAR = 0
   SIGMA = 0.1
   LORBIT = 11
   NEDOS = 2000
   LWAVE = .FALSE.
   LCHARG = .FALSE.

 POTCAR:    PAW_PBE H 15Jun2001                   
 POTCAR:    PAW_PBE Si 05Jan2001                  
 POTCAR:    PAW_PBE H 15Jun2001                   
   SHA256 =  030f79b5d3ab3cf0e668861823c8fb652ff669f3e15e46930bd03bfd63a607b6 H/POTCAR              
   COPYR  = (c) Copyright 15Jun2001 Georg Kresse                                                    
   COPYR  = This file is part of the software VASP. Any use, copying, and all other rights are regul
   COPYR  = If you do not have a valid VASP license, you may not use, copy or distribute this file. 
   VRHFIN =H: ultrasoft test                                                                        
   LEXCH  = PE                                                                                      
   EATOM  =    12.4884 eV,    0.9179 Ry                                                             
                                                                                                    
   TITEL  = PAW_PBE H 15Jun2001                                                                     
   LULTRA =        F    use ultrasoft PP ?                                                          
   IUNSCR =        0    unscreen: 0-lin 1-nonlin 2-no                                               
   RPACOR =    0.000    partial core radius                                                         
   POMASS =    1.000; ZVAL   =    1.000    mass and valenz                                          
   RCORE  =    1.100    outmost cutoff radius                                                       
   RWIGS  =    0.700; RWIGS  =    0.370    wigner-seitz radius (au A)                               
   ENMAX  =  250.000; ENMIN  =  200.000 eV                                                          
   RCLOC  =    0.701    cutoff for local pot                                                        
   LCOR   =        T    correct aug charges                                                         
   LPAW   =        T    paw PP                                                                      
   EAUG   =  400.000                                                                                
   RMAX   =    1.123    core radius for proj-oper                                                   
   RAUG   =    1.200    factor for augmentation sphere                                              
   RDEP   =    1.112    radius for radial grids                                                     
   RDEPT  =    0.926    core radius for aug-charge                                                  
                                                                                                    
   Atomic configuration                                                                             
    2 entries                                                                                       
     n  l   j            E        occ.                                                              
     1  0  0.50        -6.4927   1.0000                                                             
     2  1  0.50        -3.4015   0.0000                                                             
   Description                                                                                      
     l       E           TYP  RCUT    TYP  RCUT                                                     
     0     -6.4927494     23  1.100                                                                 
     0      6.8029130     23  1.100                                                                 
     1     -4.0817478     23  1.100                                                                 
  local pseudopotential read in
  atomic valenz-charges read in
  non local Contribution for L=           0  read in
    real space projection operators read in
  non local Contribution for L=           0  read in
    real space projection operators read in
  non local Contribution for L=           1  read in
    real space projection operators read in
    PAW grid and wavefunctions read in

   number of l-projection  operators is LMAX  =           3
   number of lm-projection operators is LMMAX =           5

 POTCAR:    PAW_PBE Si 05Jan2001                  
   SHA256 =  79d9987ad8750f624c4d6acb2a16d13abf6a777132adc04dc6c8399be72b42bb Si/POTCAR             
   COPYR  = (c) Copyright 05Jan2001 Georg Kresse                                                    
   COPYR  = This file is part of the software VASP. Any use, copying, and all other rights are regul
   COPYR  = If you do not have a valid VASP license, you may not use, copy or distribute this file. 
   VRHFIN =Si: s2p2                                                                                 
   LEXCH  = PE                                                                                      
   EATOM  =   103.0669 eV,    7.5752 Ry                                                             
                                                                                                    
   TITEL  = PAW_PBE Si 05Jan2001                                                                    
   LULTRA =        F    use ultrasoft PP ?                                                          
   IUNSCR =        1    unscreen: 0-lin 1-nonlin 2-no                                               
   RPACOR =    1.500    partial core radius                                                         
   POMASS =   28.085; ZVAL   =    4.000    mass and valenz                                          
   RCORE  =    1.900    outmost cutoff radius                                                       
   RWIGS  =    2.480; RWIGS  =    1.312    wigner-seitz radius (au A)                               
   ENMAX  =  245.345; ENMIN  =  184.009 eV                                                          
   ICORE  =        2    local potential                                                             
   LCOR   =        T    correct aug charges                                                         
   LPAW   =        T    paw PP                                                                      
   EAUG   =  322.069                                                                                
   DEXC   =    0.000                                                                                
   RMAX   =    1.950    core radius for proj-oper                                                   
   RAUG   =    1.300    factor for augmentation sphere                                              
   RDEP   =    1.993    radius for radial grids                                                     
   RDEPT  =    1.837    core radius for aug-charge                                                  
                                                                                                    
   Atomic configuration                                                                             
    6 entries                                                                                       
     n  l   j            E        occ.                                                              
     1  0  0.50     -1785.8828   2.0000                                                             
     2  0  0.50      -139.4969   2.0000                                                             
     2  1  1.50       -95.5546   6.0000                                                             
     3  0  0.50       -10.8127   2.0000                                                             
     3  1  0.50        -4.0811   2.0000                                                             
     3  2  1.50        -4.0817   0.0000                                                             
   Description                                                                                      
     l       E           TYP  RCUT    TYP  RCUT                                                     
     0    -10.8127223     23  1.900                                                                 
     0     -7.6451159     23  1.900                                                                 
     1     -4.0811372     23  1.900                                                                 
     1      2.4879257     23  1.900                                                                 
     2     -4.0817478      7  1.900                                                                 
  local pseudopotential read in
  partial core-charges read in
  partial kinetic energy density read in
  atomic valenz-charges read in
  non local Contribution for L=           0  read in
    real space projection operators read in
  non local Contribution for L=           0  read in
    real space projection operators read in
  non local Contribution for L=           1  read in
    real space projection operators read in
  non local Contribution for L=           1  read in
    real space projection operators read in
    PAW grid and wavefunctions read in

   number of l-projection  operators is LMAX  =           4
   number of lm-projection operators is LMMAX =           8

 -----------------------------------------------------------------------------
|                                                                             |
|               ----> ADVICE to this user running VASP <----                  |
|                                                                             |
|     You have a (more or less) 'large supercell' and for larger cells it     |
|     might be more efficient to use real-space projection operators.         |
|     Therefore, try LREAL= Auto in the INCAR file.                           |
|     Mind: For very accurate calculation, you might also keep the            |
|     reciprocal projection scheme (i.e. LREAL=.FALSE.).                      |
|                                                                             |
 -----------------------------------------------------------------------------

 -----------------------------------------------------------------------------
|                                                                             |
|               ----> ADVICE to this user running VASP <----                  |
|                                                                             |
|     You enforced a specific xc type in the INCAR file but a different       |
|     type was found in the POTCAR file.                                      |
|     I HOPE YOU KNOW WHAT YOU ARE DOING!                                     |
|                                                                             |
 -----------------------------------------------------------------------------

  PAW_PBE H 15Jun2001                   :
 energy of atom  1       EATOM=  -12.4884
 kinetic energy error for atom=    0.0000 (will be added to EATOM!!)
  PAW_PBE Si 05Jan2001                  :
 energy of atom  2       EATOM= -103.0669
 kinetic energy error for atom=    0.0001 (will be added to EATOM!!)


 POSCAR:  H Si
  positions in cartesian coordinates
  No initial velocities read in


 exchange-correlation table for SCAN
   RHO(1)=    0.500       N(1)  =     2000
   RHO(2)=  100.500       N(2)  =     4000



--------------------------------------------------------------------------------------------------------


 ion  position               nearest neighbor table
   1  0.809  0.429  0.564-  33 0.74
   2  0.466  0.601  0.448-  54 1.49
   3  0.055  0.734  0.620-  38 1.48
   4  0.786  0.473  0.421-  14 0.79 108 1.97
   5  0.490  0.432  0.470- 112 1.49
   6  0.955  0.577  0.441-  62 1.48
   7  0.868  0.619  0.487-  29 0.75
   8  0.969  0.626  0.574-  38 1.48
   9  0.045  0.512  0.378-  62 1.48
  10  0.613  0.473  0.493-  17 0.74
  11  0.883  0.437  0.350-  16 0.74
  12  0.993  0.430  0.541-  70 1.49
  13  0.627  0.274  0.516-  68 1.50
  14  0.761  0.517  0.411-   4 0.79
  15  0.837  0.742  0.437-  89 1.49
  16  0.917  0.471  0.359-  11 0.74
  17  0.646  0.510  0.498-  10 0.74
  18  0.666  0.621  0.408- 109 1.48
  19  0.698  0.303  0.581-  51 1.50
  20  0.799  0.765  0.506-  73 1.49
  21  0.595  0.618  0.653-  57 1.47
  22  0.126  0.466  0.479-  88 1.51
  23  0.869  0.636  0.318-  77 1.48
  24  0.083  0.270  0.332-  50 1.48
  25  0.998  0.738  0.314-  77 1.48
  26  0.821  0.370  0.499- 108 1.47
  27  0.505  0.555  0.546-  31 0.81
  28  0.284  0.246  0.671-  93 1.48
  29  0.844  0.629  0.510-   7 0.75
  30  0.717  0.566  0.601-  57 1.47
  31  0.546  0.567  0.565-  27 0.81  57 1.86
  32  0.279  0.000  0.678-  48 1.49
  33  0.781  0.464  0.577-   1 0.74
  34  0.528  0.412  0.568- 110 1.49
  35  0.541  0.146  0.566-  69 1.51
  36  0.952  0.413  0.452- 108 1.48
  37  0.308  0.398  0.574- 107 2.34 110 2.39  87 2.41 111 2.42  93 2.89  42 3.04
  38  0.060  0.671  0.578-   3 1.48   8 1.48  79 2.34  83 2.38
  39  0.948  0.915  0.424-  43 2.32  65 2.34  89 2.34  91 2.40
  40  0.228  0.011  0.464-  52 2.30  49 2.30 105 2.34 101 2.35
  41  0.843  0.298  0.663-  51 2.36  94 2.38
  42  0.411  0.251  0.518- 103 2.34  87 2.34 110 2.37 112 2.38  37 3.04
  43  0.833  0.013  0.450-  60 2.28  39 2.32  97 2.32  85 3.13
  44  0.252  0.873  0.344-  64 2.31  55 2.38 101 2.40  63 3.14
  45  0.090  0.169  0.627-  93 2.29  71 2.29  94 2.36  72 3.13
  46  0.017  0.139  0.493-  49 2.33  96 2.37  85 2.38  75 2.38
  47  0.683  0.215  0.413-  60 2.27  68 2.34  95 2.36  53 2.48
  48  0.280  0.973  0.626-  32 1.49  82 2.32  71 2.49  80 2.50
  49  0.102  0.009  0.514-  40 2.30  46 2.33  71 2.36  91 2.36  72 3.13
  50  0.062  0.278  0.383-  24 1.48  81 2.32  85 2.33
  51  0.698  0.262  0.631-  19 1.50  41 2.36  86 2.36 104 2.46
  52  0.333  0.902  0.489-  40 2.30  63 2.32 100 2.33 106 2.37
  53  0.523  0.264  0.398- 102 2.36 112 2.40  47 2.48
  54  0.455  0.690  0.474-   2 1.49  76 2.29  56 2.30  63 2.33
  55  0.412  0.872  0.361-  90 2.27  63 2.32  44 2.38  92 2.44
  56  0.365  0.675  0.541-  54 2.30 107 2.31  59 2.33 106 2.36
  57  0.633  0.622  0.604-  30 1.47  21 1.47  31 1.86  58 2.30
  58  0.641  0.768  0.572-  57 2.30  73 2.35  67 2.36  76 2.38
  59  0.406  0.737  0.615-  67 2.27  56 2.33  82 2.35 106 3.15
  60  0.713  0.062  0.405-  47 2.27  43 2.28  84 2.28
  61  0.148  0.657  0.438-  64 2.30  62 2.33  83 2.38  88 2.40
  62  0.017  0.599  0.401-   6 1.48   9 1.48  61 2.33  77 2.34
  63  0.368  0.796  0.430-  64 2.27  55 2.32  52 2.32  54 2.33  44 3.14
  64  0.244  0.740  0.390-  63 2.27  61 2.30  44 2.31
  65  0.025  0.018  0.374-  39 2.34 101 2.35  85 2.36
  66  0.932  0.859  0.570-  72 2.29  73 2.31  91 2.36
  67  0.521  0.842  0.613-  59 2.27  58 2.36  80 2.37
  68  0.644  0.182  0.493-  13 1.50  47 2.34 103 2.41  99 2.42
  69  0.538  0.114  0.617-  35 1.51  86 2.33  80 2.35 104 2.36
  70  0.047  0.353  0.562-  12 1.49 111 2.37  75 2.38  94 2.40
  71  0.129  0.028  0.597-  45 2.29  49 2.36  72 2.38  48 2.49
  72  0.968  1.000  0.601-  66 2.29  71 2.38  96 2.42  49 3.13  45 3.13
  73  0.783  0.827  0.547-  20 1.49  66 2.31  97 2.31  58 2.35
  74  0.587  0.915  0.481-  76 2.32 100 2.34  97 2.36  84 2.38
  75  0.126  0.258  0.507-  87 2.34  70 2.38  46 2.38  81 2.39
  76  0.593  0.758  0.491-  54 2.29  74 2.32 109 2.33  58 2.38
  77  0.935  0.690  0.347-  25 1.48  23 1.48  89 2.33  62 2.34
  78  0.293  0.403  0.419-  81 2.34 112 2.35  88 2.36
  79  0.173  0.565  0.601- 111 2.31 107 2.32  38 2.34
  80  0.445  0.985  0.602- 100 2.35  69 2.35  67 2.37  48 2.50
  81  0.195  0.278  0.429-  50 2.32  78 2.34  75 2.39 105 2.42
  82  0.265  0.814  0.621- 106 2.31  48 2.32  59 2.35
  83  0.115  0.745  0.508- 106 2.36  91 2.37  38 2.38  61 2.38
  84  0.608  0.947  0.398-  60 2.28  90 2.30  98 2.35  74 2.38  92 2.92
  85  0.976  0.155  0.411-  50 2.33  65 2.36  95 2.37  46 2.38  43 3.13
  86  0.697  0.100  0.625-  69 2.33  99 2.34  51 2.36
  87  0.263  0.246  0.550-  42 2.34  75 2.34  93 2.39  37 2.41
  88  0.214  0.515  0.465-  22 1.51 107 2.35  78 2.36  61 2.40
  89  0.856  0.797  0.394-  15 1.49  77 2.33  39 2.34  98 2.39
  90  0.486  0.009  0.357-  55 2.27  84 2.30 102 2.32
  91  0.018  0.874  0.499-  49 2.36  66 2.36  83 2.37  39 2.40
  92  0.550  0.779  0.349- 109 2.38  98 2.42  55 2.44  84 2.92
  93  0.218  0.260  0.632-  28 1.48  45 2.29 111 2.37  87 2.39  37 2.89
  94  0.953  0.246  0.606-  96 2.35  45 2.36  41 2.38  70 2.40
  95  0.841  0.246  0.405- 108 2.27  47 2.36  85 2.37
  96  0.907  0.126  0.555-  94 2.35  46 2.37  99 2.39  72 2.42
  97  0.733  0.959  0.509-  73 2.31  99 2.32  43 2.32  74 2.36
  98  0.704  0.832  0.367- 109 2.34  84 2.35  89 2.39  92 2.42
  99  0.746  0.101  0.546-  97 2.32  86 2.34  96 2.39  68 2.42
 100  0.460  0.981  0.519-  52 2.33 103 2.34  74 2.34  80 2.35
 101  0.185  0.003  0.383-  40 2.35  65 2.35  44 2.40 105 2.45
 102  0.435  0.128  0.405-  90 2.32  53 2.36 103 2.37 105 2.39
 103  0.489  0.125  0.485-  42 2.34 100 2.34 102 2.37  68 2.41
 104  0.533  0.263  0.649-  69 2.36 110 2.39  51 2.46
 105  0.272  0.134  0.415-  40 2.34 102 2.39  81 2.42 101 2.45
 106  0.258  0.795  0.539-  82 2.31  56 2.36  83 2.36  52 2.37  59 3.15
 107  0.278  0.542  0.540-  56 2.31  79 2.32  37 2.34  88 2.35
 108  0.859  0.374  0.450-  26 1.47  36 1.48   4 1.97  95 2.27
 109  0.637  0.717  0.414-  18 1.48  76 2.33  98 2.34  92 2.38
 110  0.461  0.341  0.584-  34 1.49  42 2.37 104 2.39  37 2.39
 111  0.162  0.409  0.615-  79 2.31  93 2.37  70 2.37  37 2.42
 112  0.433  0.354  0.453-   5 1.49  78 2.35  42 2.38  53 2.40

  LATTYP: Found a simple tetragonal cell.
 ALAT       =    14.5676482755
 C/A-ratio  =     1.9185862722
  
  Lattice vectors:
  
 A1 = (  14.5676482755,   0.0000000000,   0.0000000000)
 A2 = (   0.0000000000,  14.5676482755,   0.0000000000)
 A3 = (   0.0000000000,   0.0000000000,  27.9492900000)


Analysis of symmetry for initial positions (statically):
=====================================================================
 Subroutine PRICEL returns:
 Original cell was already a primitive cell.
 

 Routine SETGRP: Setting up the symmetry group for a 
 simple tetragonal supercell.


 Subroutine GETGRP returns: Found  1 space group operations
 (whereof  1 operations were pure point group operations)
 out of a pool of 16 trial point group operations.


The static configuration has the point symmetry C_1 .


Analysis of symmetry for dynamics (positions and initial velocities):
=====================================================================
 Subroutine PRICEL returns:
 Original cell was already a primitive cell.
 

 Routine SETGRP: Setting up the symmetry group for a 
 simple tetragonal supercell.


 Subroutine GETGRP returns: Found  1 space group operations
 (whereof  1 operations were pure point group operations)
 out of a pool of 16 trial point group operations.


The dynamic configuration has the point symmetry C_1 .


 Subroutine INISYM returns: Found  1 space group operations
 (whereof  1 operations are pure point group operations),
 and found     1 'primitive' translations


----------------------------------------------------------------------------------------

                                     Primitive cell                                     

  volume of cell :    5931.2970

  direct lattice vectors                    reciprocal lattice vectors
    14.567648276  0.000000000  0.000000000     0.068645260  0.000000000  0.000000000
     0.000000000 14.567648276  0.000000000     0.000000000  0.068645260  0.000000000
     0.000000000  0.000000000 27.949290000     0.000000000  0.000000000  0.035779084

  length of vectors
    14.567648276 14.567648276 27.949290000     0.068645260  0.068645260  0.035779084

  position of ions in fractional coordinates (direct lattice)
     0.809171695  0.429437733  0.563840702
     0.466067575  0.601374484  0.448120583
     0.055288740  0.734374874  0.619694070
     0.786168095  0.473204035  0.421154790
     0.489543967  0.431953954  0.470168347
     0.954772616  0.576633035  0.440915910
     0.868312555  0.618874794  0.486847929
     0.969366999  0.625823749  0.573965670
     0.045419695  0.511502678  0.378480982
     0.612539458  0.472900865  0.493107083
     0.883159852  0.437193180  0.349763680
     0.993449101  0.430313592  0.541323880
     0.627276305  0.273724803  0.515815504
     0.760577367  0.516524131  0.410611013
     0.836905154  0.741980951  0.437399681
     0.916638513  0.471179814  0.358992400
     0.646137633  0.510345183  0.497859835
     0.665717482  0.620684216  0.407880488
     0.697979891  0.303146101  0.581335515
     0.799237395  0.765070470  0.505894476
     0.595483613  0.618148880  0.652669879
     0.126370267  0.466307770  0.478806384
     0.868839947  0.635945802  0.318332258
     0.082610316  0.270413263  0.331687385
     0.997936746  0.737939399  0.313863445
     0.820886018  0.369766883  0.498955194
     0.505439480  0.555112430  0.545608452
     0.283777333  0.245700032  0.671055021
     0.843519859  0.628630753  0.509608579
     0.717424881  0.566111794  0.600861085
     0.545875697  0.567348574  0.564585898
     0.279109572  0.000003099  0.677685761
     0.781427614  0.463863561  0.577185244
     0.528429172  0.412160066  0.568175231
     0.540893369  0.145657565  0.565625553
     0.952361315  0.413330763  0.451702748
     0.308213860  0.398018380  0.573911113
     0.060381389  0.670693632  0.578446239
     0.947685613  0.914639958  0.424101727
     0.228091086  0.010777693  0.464235531
     0.843344318  0.298396565  0.662783067
     0.411058326  0.251268398  0.517889420
     0.833171325  0.012957551  0.450457597
     0.252141946  0.872902695  0.344331417
     0.090067380  0.169472162  0.626659284
     0.017045641  0.138618987  0.493172104
     0.683351980  0.214916221  0.413306470
     0.279870966  0.972747987  0.626384501
     0.102205423  0.009282341  0.514071282
     0.062128644  0.278294274  0.383400267
     0.698061994  0.261702474  0.630557501
     0.332727483  0.902430254  0.488831210
     0.522878799  0.263638175  0.397894538
     0.454716023  0.690032160  0.473794091
     0.412456937  0.872189340  0.360967730
     0.365427435  0.674691398  0.541162951
     0.633491191  0.621927684  0.603925901
     0.640807701  0.767541778  0.572274660
     0.406100311  0.736990189  0.615073552
     0.712945967  0.062470813  0.405025563
     0.147813008  0.656592336  0.438422019
     0.017292946  0.599275413  0.400883031
     0.368269196  0.795527391  0.430038256
     0.244308574  0.740431371  0.389896609
     0.025305389  0.017777376  0.374272374
     0.931924397  0.858646965  0.569684250
     0.520644830  0.842102324  0.613263690
     0.643527721  0.182235760  0.492557698
     0.538371093  0.113613517  0.616816935
     0.046903724  0.352695728  0.561960869
     0.128537190  0.028202011  0.596648088
     0.967761785  0.999627186  0.601178577
     0.782882652  0.827191113  0.547274813
     0.587262596  0.915413075  0.480506297
     0.125969006  0.257659472  0.506516464
     0.592829412  0.757838226  0.491133855
     0.935105993  0.690335802  0.347030233
     0.293366274  0.403242708  0.419390579
     0.172541513  0.564805334  0.601442774
     0.444948052  0.984753357  0.602307275
     0.194649909  0.278335760  0.429480500
     0.265262512  0.814390996  0.621063703
     0.115274864  0.744859829  0.508134841
     0.607590385  0.947227563  0.397555806
     0.975839157  0.154964634  0.411371513
     0.697101627  0.099820741  0.625227956
     0.262830692  0.245816921  0.549828059
     0.213691431  0.514592215  0.464828138
     0.855838105  0.796580373  0.393540461
     0.485582864  0.009459926  0.356763539
     0.018025742  0.874146748  0.498630979
     0.550181123  0.779059831  0.349119408
     0.218019128  0.259889464  0.631585892
     0.953328668  0.246306282  0.605729243
     0.841478983  0.245666895  0.404773456
     0.907050750  0.126278398  0.555222804
     0.733452119  0.958668937  0.508699033
     0.703645870  0.831727597  0.366977028
     0.746234130  0.100533920  0.545682630
     0.460002813  0.980903928  0.518641077
     0.185213494  0.003426849  0.383310000
     0.434969668  0.128265424  0.405419107
     0.488701124  0.125488626  0.485469889
     0.532803882  0.263262374  0.649098773
     0.272062158  0.133941707  0.415442346
     0.257689883  0.795172756  0.539077342
     0.277878391  0.542133179  0.540475901
     0.859242081  0.373590194  0.450250717
     0.636536110  0.717055048  0.413872931
     0.461169418  0.340698734  0.583554419
     0.161565747  0.408562915  0.614528624
     0.432829221  0.353522517  0.452555109

  ion indices of the primitive-cell ions
   primitive index   ion index
                 1           1
                 2           2
                 3           3
                 4           4
                 5           5
                 6           6
                 7           7
                 8           8
                 9           9
                10          10
                11          11
                12          12
                13          13
                14          14
                15          15
                16          16
                17          17
                18          18
                19          19
                20          20
                21          21
                22          22
                23          23
                24          24
                25          25
                26          26
                27          27
                28          28
                29          29
                30          30
                31          31
                32          32
                33          33
                34          34
                35          35
                36          36
                37          37
                38          38
                39          39
                40          40
                41          41
                42          42
                43          43
                44          44
                45          45
                46          46
                47          47
                48          48
                49          49
                50          50
                51          51
                52          52
                53          53
                54          54
                55          55
                56          56
                57          57
                58          58
                59          59
                60          60
                61          61
                62          62
                63          63
                64          64
                65          65
                66          66
                67          67
                68          68
                69          69
                70          70
                71          71
                72          72
                73          73
                74          74
                75          75
                76          76
                77          77
                78          78
                79          79
                80          80
                81          81
                82          82
                83          83
                84          84
                85          85
                86          86
                87          87
                88          88
                89          89
                90          90
                91          91
                92          92
                93          93
                94          94
                95          95
                96          96
                97          97
                98          98
                99          99
               100         100
               101         101
               102         102
               103         103
               104         104
               105         105
               106         106
               107         107
               108         108
               109         109
               110         110
               111         111
               112         112

----------------------------------------------------------------------------------------


 -----------------------------------------------------------------------------
|                                                                             |
|           W    W    AA    RRRRR   N    N  II  N    N   GGGG   !!!           |
|           W    W   A  A   R    R  NN   N  II  NN   N  G    G  !!!           |
|           W    W  A    A  R    R  N N  N  II  N N  N  G       !!!           |
|           W WW W  AAAAAA  RRRRR   N  N N  II  N  N N  G  GGG   !            |
|           WW  WW  A    A  R   R   N   NN  II  N   NN  G    G                |
|           W    W  A    A  R    R  N    N  II  N    N   GGGG   !!!           |
|                                                                             |
|     The requested file  could not be found or opened for reading            |
|     k-point information. Automatic k-point generation is used as a          |
|     fallback, which may lead to unwanted results.                           |
|                                                                             |
 -----------------------------------------------------------------------------



Automatic generation of k-mesh.
 Grid dimensions derived from KSPACING:
 generate k-points for:    2    2    1

 Generating k-lattice:

  Cartesian coordinates                     Fractional coordinates (reciprocal lattice)
     0.034322630  0.000000000  0.000000000     0.500000000  0.000000000  0.000000000
     0.000000000  0.034322630  0.000000000     0.000000000  0.500000000  0.000000000
     0.000000000  0.000000000  0.035779084     0.000000000  0.000000000  1.000000000

  Length of vectors
     0.034322630  0.034322630  0.035779084

  Shift w.r.t. Gamma in fractional coordinates (k-lattice)
     0.000000000  0.000000000  0.000000000

 
 Subroutine IBZKPT returns following result:
 ===========================================
 
 Found      4 irreducible k-points:
 
 Following reciprocal coordinates:
            Coordinates               Weight
  0.000000  0.000000  0.000000      1.000000
  0.500000  0.000000  0.000000      1.000000
  0.000000  0.500000  0.000000      1.000000
  0.500000  0.500000  0.000000      1.000000
 
 Following cartesian coordinates:
            Coordinates               Weight
  0.000000  0.000000  0.000000      1.000000
  0.034323  0.000000  0.000000      1.000000
  0.000000  0.034323  0.000000      1.000000
  0.034323  0.034323  0.000000      1.000000
 


--------------------------------------------------------------------------------------------------------




 Dimension of arrays:
   k-points           NKPTS =      4   k-points in BZ     NKDIM =      4   number of bands    NBANDS=    232
   number of dos      NEDOS =   2000   number of ions     NIONS =    112
   non local maximal  LDIM  =      4   non local SUM 2l+1 LMDIM =      8
   total plane-waves  NPLWV = ******
   max r-space proj   IRMAX =      1   max aug-charges    IRDMAX= 407447
   dimension x,y,z NGX =   168 NGY =  168 NGZ =  320
   dimension x,y,z NGXF=   336 NGYF=  336 NGZF=  640
   support grid    NGXF=   672 NGYF=  672 NGZF= 1280
   ions per type =              36  76
   NGX,Y,Z   is equivalent  to a cutoff of  19.17, 19.17, 19.03 a.u.
   NGXF,Y,Z  is equivalent  to a cutoff of  38.34, 38.34, 38.07 a.u.

 SYSTEM =  a-Si SPC                                
 POSCAR =   H Si                                   

 Startparameter for this run:
   NWRITE =      2    write-flag & timer
   PREC   = accura    normal or accurate (medium, high low for compatibility)
   ISTART =      1    job   : 0-new  1-cont  2-samecut
   ICHARG =      1    charge: 1-file 2-atom 10-const
   ISPIN  =      1    spin polarized calculation?
   LNONCOLLINEAR =      F non collinear calculations
   LSORBIT =      F    spin-orbit coupling
   INIWAV =      1    electr: 0-lowe 1-rand  2-diag
   LASPH  =      T    aspherical Exc in radial PAW
 Electronic Relaxation 1
   ENCUT  = 1200.0 eV  88.20 Ry    9.39 a.u.  41.15 41.15 78.94*2*pi/ulx,y,z
   ENINI  = 1200.0     initial cutoff
   ENAUG  =  400.0 eV  augmentation charge cutoff
   NELM   =    150;   NELMIN=  2; NELMDL=  0     # of ELM steps 
   EDIFF  = 0.1E-05   stopping-criterion for ELM
   LREAL  =      F    real-space projection
   NLSPLINE    = F    spline interpolate recip. space projectors
   LCOMPAT=      F    compatible to vasp.4.4
   GGA_COMPAT  = T    GGA compatible to vasp.4.4-vasp.4.6
   LMAXPAW     = -100 max onsite density
   LMAXMIX     =    2 max onsite mixed and CHGCAR
   VOSKOWN=      0    Vosko Wilk Nusair interpolation
   ROPT   =    0.00000   0.00000
 Ionic relaxation
   EDIFFG = -.1E-01   stopping-criterion for IOM
   NSW    =      0    number of steps for IOM
   NBLOCK =      1;   KBLOCK =      1    inner block; outer block 
   IBRION =     -1    ionic relax: 0-MD 1-quasi-New 2-CG
   NFREE  =      0    steps in history (QN), initial steepest desc. (CG)
   ISIF   =      2    stress and relaxation
   IWAVPR =     10    prediction:  0-non 1-charg 2-wave 3-comb
   ISYM   =      1    0-nonsym 1-usesym 2-fastsym
   LCORR  =      T    Harris-Foulkes like correction to forces

   POTIM  = 0.5000    time-step for ionic-motion
   TEIN   =    0.0    initial temperature
   TEBEG  =    0.0;   TEEND  =   0.0 temperature during run
   SMASS  =  -3.00    Nose mass-parameter (am)
   estimated Nose-frequenzy (Omega)   =  0.10E-29 period in steps = 0.13E+47 mass=  -0.485E-26a.u.
   SCALEE = 1.0000    scale energy and forces
   NPACO  =    256;   APACO  = 10.0  distance and # of slots for P.C.
   PSTRESS=    0.0 pullay stress

  Mass of Ions in am
   POMASS =   1.00 28.09
  Ionic Valenz
   ZVAL   =   1.00  4.00
  Atomic Wigner-Seitz radii
   RWIGS  =  -1.00 -1.00
  virtual crystal weights 
   VCA    =   1.00  1.00
   NELECT =     340.0000    total number of electrons
   NUPDOWN=      -1.0000    fix difference up-down

 DOS related values:
   EMIN   =  10.00;   EMAX   =-10.00  energy-range for DOS
   EFERMI =   0.00;   METHOD = LEGACY      
   ISMEAR =     0;   SIGMA  =   0.10  broadening in eV -4-tet -1-fermi 0-gaus
   EFERMI_NEDOS =   21; number of points for ismear=-14 and -15

 Electronic relaxation 2 (details)
   IALGO  =     38    algorithm
   LDIAG  =      F    sub-space diagonalisation (order eigenvalues)
   LSUBROT=      F    optimize rotation matrix (better conditioning)
   TURBO    =      0    0=normal 1=particle mesh
   IRESTART =      0    0=no restart 2=restart with 2 vectors
   NREBOOT  =      0    no. of reboots
   NMIN     =      0    reboot dimension
   EREF     =   0.00    reference energy to select bands
   IMIX   =      4    mixing-type and parameters
     AMIX     =   0.40;   BMIX     =  1.00
     AMIX_MAG =   1.60;   BMIX_MAG =  1.00
     AMIN     =   0.10
     WC   =   100.;   INIMIX=   1;  MIXPRE=   1;  MAXMIX= -45

 Intra band minimization:
   WEIMIN = 0.0000     energy-eigenvalue tresh-hold
   EBREAK =  0.11E-08  absolut break condition
   DEPER  =   0.30     relativ break condition  

   TIME   =   0.40     timestep for ELM

  volume/ion in A,a.u.               =      52.96       357.38
  Fermi-wavevector in a.u.,A,eV,Ry     =   0.631226  1.192843  5.421183  0.398446
  Thomas-Fermi vector in A             =   1.694128

 Write flags
   LWAVE        =      F    write WAVECAR
   LDOWNSAMPLE  =      F    k-point downsampling of WAVECAR
   LCHARG       =      F    write CHGCAR
   LVTOT        =      F    write LOCPOT, total local potential
   LVHAR        =      F    write LOCPOT, Hartree potential only
   WRT_POTENTIAL= false  ! write potential to hdf5 file
   LELF         =      F    write electronic localiz. function (ELF)
   LORBIT       =     11    0 simple, 1 ext, 2 COOP (PROOUT), +10 PAW based schemes


 Python interface
   PLUGINS active      =      F    recompile with -DPLUGINS to activate

 Dipole corrections
   LMONO      =      F    monopole corrections only (constant potential shift)
   LDIPOL     =      F    correct potential (dipole corrections)
   IDIPOL     =      0    1-x, 2-y, 3-z, 4-all directions 
   EPSILON    =  1.0000000 bulk dielectric constant
   LVACPOTAV  =      F  vacuum potentials using an averaging scheme for the charge density
   VACPOTFLAT =  0.1000000 required flatness to determine vacuum potential

Coulomb truncation method
  LTRUNCATE          =      F  Coulomb kernel truncation to be used
  IDIMENSIONALITY    =      3  Dimensionality of cutoff (0 molecules / 2 surfaces)
  ISURFACE           =     -1  Direction of surface normal
  LCOARSEN           =      F  Coarsen the charge grid before padding, preferred


 Exchange correlation treatment:
   METAGGA = SCAN    functional components
   XC_C    = 1    coefficients multiplying the functional components
   LIBXC   =     F    Libxc                    
   VOSKOWN =     0    Vosko Wilk Nusair interpolation
   LHFCALC =     F    Hartree Fock is set to
   LHFONE  =     F    Hartree Fock one center treatment
   AEXX    =    0.0000 exact exchange contribution

 Parameters of functionals:
   SCAN:
     P1 =  0.000000E+00
     P2 =  0.000000E+00
     P3 =  0.000000E+00

 Accuracy and mixing parameters for tau-dependent meta-GGA functionals:
   LMAXTAU = 6
   LMIXTAU = T

 Van der Waals corrections
   IVDW    =     0    specifies the selected vdW correction

 Linear response parameters
   LEPSILON=     F    determine dielectric tensor
   LRPA    =     F    only Hartree local field effects (RPA)
   LNABLA  =     F    use nabla operator in PAW spheres
   LVEL    =     F    velocity operator in full k-point grid
   CSHIFT  =0.1000    complex shift for real part using Kramers Kronig
   OMEGAMAX=  -1.0    maximum frequency
   DEG_THRESHOLD= 0.2000000E-02 threshold for treating states as degnerate
   RTIME   =   -0.100 relaxation time in fs
  (WPLASMAI=    0.000 imaginary part of plasma frequency in eV, 0.658/RTIME)
   DFIELD  = 0.0000000 0.0000000 0.0000000 field for delta impulse in time

  Optional k-point grid parameters
   LKPOINTS_OPT  =     F    use optional k-point grid
   KPOINTS_OPT_MODE=     1    mode for optional k-point grid

 Orbital magnetization related:
   ORBITALMAG=     F  switch on orbital magnetization
   LCHIMAG   =     F  perturbation theory with respect to B field
   DQ        =  0.001000  dq finite difference perturbation B field
   LLRAUG    =     F  two centre corrections for induced B field
   LBONE     =     F  B-component reconstruction in AE one-centre
   LVGVCALC  =     T  calculate vGv susceptibility
   LVGVAPPL  =     F  apply vGv susceptibility instead of pGv for G=0

 Random number generation:
   RANDOM_GENERATOR = DEFAULT
   PCG_SEED         = not used


--------------------------------------------------------------------------------------------------------


 Static calculation
 charge density and potential will be updated during run
 non-spin polarized calculation
 Variant of blocked Davidson
 perform Loewdin sub-space diagonalisation
    ordering is kept fixed
    before iterative eigenvector-optimisation
 modified Broyden-mixing scheme, WC =      100.0
 initial mixing is a Kerker type mixing with AMIX =  0.4000 and BMIX =      1.0000
 Hartree-type preconditioning will be used
 using additional bands           62
 reciprocal scheme for non local part
 use partial core corrections
 calculate Harris-corrections to forces   (improved forces if not selfconsistent)
 use gradient corrections 
 use of overlap-Matrix (Vanderbilt PP)
 Gauss-broadening in eV      SIGMA  =   0.10


--------------------------------------------------------------------------------------------------------


  energy-cutoff  :     1200.00
  volume of cell :     5931.30
      direct lattice vectors                 reciprocal lattice vectors
    14.567648276  0.000000000  0.000000000     0.068645260  0.000000000  0.000000000
     0.000000000 14.567648276  0.000000000     0.000000000  0.068645260  0.000000000
     0.000000000  0.000000000 27.949290000     0.000000000  0.000000000  0.035779084

  length of vectors
    14.567648276 14.567648276 27.949290000     0.068645260  0.068645260  0.035779084



 old parameters found on file WAVECAR:
  energy-cutoff  :     1200.00
  volume of cell :     5931.30
      direct lattice vectors                 reciprocal lattice vectors
    14.567648276  0.000000000  0.000000000     0.068645260  0.000000000  0.000000000
     0.000000000 14.567648276  0.000000000     0.000000000  0.068645260  0.000000000
     0.000000000  0.000000000 27.949290000     0.000000000  0.000000000  0.035779084

  length of vectors


 k-points in units of 2pi/SCALE and weight: read from INCAR                         
   0.00000000  0.00000000  0.00000000       0.250
   0.03432263  0.00000000  0.00000000       0.250
   0.00000000  0.03432263  0.00000000       0.250
   0.03432263  0.03432263  0.00000000       0.250

 k-points in reciprocal lattice and weights: read from INCAR                         
   0.00000000  0.00000000  0.00000000       0.250
   0.50000000  0.00000000  0.00000000       0.250
   0.00000000  0.50000000  0.00000000       0.250
   0.50000000  0.50000000  0.00000000       0.250

 position of ions in fractional coordinates (direct lattice) 
   0.80917170  0.42943773  0.56384070
   0.46606757  0.60137448  0.44812058
   0.05528874  0.73437487  0.61969407
   0.78616810  0.47320403  0.42115479
   0.48954397  0.43195395  0.47016835
   0.95477262  0.57663304  0.44091591
   0.86831255  0.61887479  0.48684793
   0.96936700  0.62582375  0.57396567
   0.04541969  0.51150268  0.37848098
   0.61253946  0.47290086  0.49310708
   0.88315985  0.43719318  0.34976368
   0.99344910  0.43031359  0.54132388
   0.62727631  0.27372480  0.51581550
   0.76057737  0.51652413  0.41061101
   0.83690515  0.74198095  0.43739968
   0.91663851  0.47117981  0.35899240
   0.64613763  0.51034518  0.49785984
   0.66571748  0.62068422  0.40788049
   0.69797989  0.30314610  0.58133551
   0.79923740  0.76507047  0.50589448
   0.59548361  0.61814888  0.65266988
   0.12637027  0.46630777  0.47880638
   0.86883995  0.63594580  0.31833226
   0.08261032  0.27041326  0.33168739
   0.99793675  0.73793940  0.31386345
   0.82088602  0.36976688  0.49895519
   0.50543948  0.55511243  0.54560845
   0.28377733  0.24570003  0.67105502
   0.84351986  0.62863075  0.50960858
   0.71742488  0.56611179  0.60086109
   0.54587570  0.56734857  0.56458590
   0.27910957  0.00000310  0.67768576
   0.78142761  0.46386356  0.57718524
   0.52842917  0.41216007  0.56817523
   0.54089337  0.14565756  0.56562555
   0.95236132  0.41333076  0.45170275
   0.30821386  0.39801838  0.57391111
   0.06038139  0.67069363  0.57844624
   0.94768561  0.91463996  0.42410173
   0.22809109  0.01077769  0.46423553
   0.84334432  0.29839657  0.66278307
   0.41105833  0.25126840  0.51788942
   0.83317133  0.01295755  0.45045760
   0.25214195  0.87290270  0.34433142
   0.09006738  0.16947216  0.62665928
   0.01704564  0.13861899  0.49317210
   0.68335198  0.21491622  0.41330647
   0.27987097  0.97274799  0.62638450
   0.10220542  0.00928234  0.51407128
   0.06212864  0.27829427  0.38340027
   0.69806199  0.26170247  0.63055750
   0.33272748  0.90243025  0.48883121
   0.52287880  0.26363818  0.39789454
   0.45471602  0.69003216  0.47379409
   0.41245694  0.87218934  0.36096773
   0.36542744  0.67469140  0.54116295
   0.63349119  0.62192768  0.60392590
   0.64080770  0.76754178  0.57227466
   0.40610031  0.73699019  0.61507355
   0.71294597  0.06247081  0.40502556
   0.14781301  0.65659234  0.43842202
   0.01729295  0.59927541  0.40088303
   0.36826920  0.79552739  0.43003826
   0.24430857  0.74043137  0.38989661
   0.02530539  0.01777738  0.37427237
   0.93192440  0.85864697  0.56968425
   0.52064483  0.84210232  0.61326369
   0.64352772  0.18223576  0.49255770
   0.53837109  0.11361352  0.61681694
   0.04690372  0.35269573  0.56196087
   0.12853719  0.02820201  0.59664809
   0.96776179  0.99962719  0.60117858
   0.78288265  0.82719111  0.54727481
   0.58726260  0.91541308  0.48050630
   0.12596901  0.25765947  0.50651646
   0.59282941  0.75783823  0.49113385
   0.93510599  0.69033580  0.34703023
   0.29336627  0.40324271  0.41939058
   0.17254151  0.56480533  0.60144277
   0.44494805  0.98475336  0.60230727
   0.19464991  0.27833576  0.42948050
   0.26526251  0.81439100  0.62106370
   0.11527486  0.74485983  0.50813484
   0.60759038  0.94722756  0.39755581
   0.97583916  0.15496463  0.41137151
   0.69710163  0.09982074  0.62522796
   0.26283069  0.24581692  0.54982806
   0.21369143  0.51459222  0.46482814
   0.85583810  0.79658037  0.39354046
   0.48558286  0.00945993  0.35676354
   0.01802574  0.87414675  0.49863098
   0.55018112  0.77905983  0.34911941
   0.21801913  0.25988946  0.63158589
   0.95332867  0.24630628  0.60572924
   0.84147898  0.24566690  0.40477346
   0.90705075  0.12627840  0.55522280
   0.73345212  0.95866894  0.50869903
   0.70364587  0.83172760  0.36697703
   0.74623413  0.10053392  0.54568263
   0.46000281  0.98090393  0.51864108
   0.18521349  0.00342685  0.38331000
   0.43496967  0.12826542  0.40541911
   0.48870112  0.12548863  0.48546989
   0.53280388  0.26326237  0.64909877
   0.27206216  0.13394171  0.41544235
   0.25768988  0.79517276  0.53907734
   0.27787839  0.54213318  0.54047590
   0.85924208  0.37359019  0.45025072
   0.63653611  0.71705505  0.41387293
   0.46116942  0.34069873  0.58355442
   0.16156575  0.40856292  0.61452862
   0.43282922  0.35352252  0.45255511

 position of ions in cartesian coordinates  (Angst):
  11.78772865  6.25589785 15.75894730
   6.78950850  8.76061196 12.52465214
   0.80542691 10.69811486 17.32000926
  11.45262030  6.89346994 11.77097737
   7.13150432  6.29255327 13.14087147
  13.90879166  8.40018724 12.32328663
  12.64927189  9.01555032 13.60705395
  14.12139749  9.11678026 16.04193295
   0.66165814  7.45139111 10.57827473
   8.92325938  6.88905347 13.78199285
  12.86556209  6.36887648  9.77564653
  14.47221709  6.26865705 15.12961810
   9.13794059  3.98752665 14.41667711
  11.07982357  7.52454187 11.47628628
  12.19173993 10.80891752 12.22501054
  13.35326745  6.86398180 10.03358269
   9.41270578  7.43452913 13.91482892
   9.69793813  9.04190935 11.39997004
  10.16792556  4.41612578 16.24791489
  11.64300926 11.14527751 14.13939141
   8.67479583  9.00497547 18.24165972
   1.84091760  6.79300758 13.38229847
  12.65695475  9.26423476  8.89716059
   1.20343803  3.93928531  9.27042692
  14.53759151 10.75004161  8.77226045
  11.95837878  5.38663389 13.94544342
   7.36306457  8.08668263 15.24936884
   4.13396837  3.57927165 18.75551138
  12.28810062  9.15767170 14.24319795
  10.45119333  8.24691750 16.79364072
   7.95212516  8.26493447 15.77977498
   4.06597008  0.00004514 18.94083587
  11.38356264  6.75740121 16.13191776
   7.69797032  6.00420287 15.88009431
   7.87954436  2.12188817 15.80883261
  13.87366467  6.02125717 12.62477109
   4.48995111  5.79819177 16.04040814
   0.87961484  9.77042893 16.16716168
  13.80555068 13.32415321 11.85334215
   3.32275072  0.15700564 12.97505348
  12.28554340  4.34693621 18.52431616
   5.98815311  3.66038965 14.47464158
  12.13734682  0.18876104 12.58997000
   3.67311518 12.71613944  9.62381864
   1.31206992  2.46881085 17.51468206
   0.24831491  2.01935265 13.78381016
   9.95483129  3.13082392 11.55162238
   4.07706180 14.17065054 17.50700206
   1.48889265  0.13522188 14.36792735
   0.90506824  4.05409310 10.71576526
  10.16912161  3.81238959 17.62363447
   4.84705695 13.14628654 13.66248524
   7.61711443  3.84058821 11.12086982
   6.62414309 10.05214581 13.24220845
   6.00852758 12.70574754 10.08879176
   5.32341835  9.82866698 15.12512025
   9.22847686  9.06002376 16.87930014
   9.33506120 11.18127866 15.99467044
   5.91592650 10.73621385 17.19086907
  10.38594609  0.91005283 11.32017692
   2.15328791  9.56500621 12.25358415
   0.25191755  8.73003344 11.20439608
   5.36481612 11.58896323 12.01926392
   3.55900137 10.78634379 10.89733339
   0.36864000  0.25897456 10.46064713
  13.57594684 12.50846698 15.92227030
   7.58457076 12.26745047 17.14028472
   9.37468550  2.65474645 13.76663795
   7.84280073  1.65508175 17.23959540
   0.68327695  5.13794731 15.70640730
   1.87248458  0.41083697 16.67589043
  14.09801330 14.56221725 16.80251440
  11.40475912 12.05022919 15.29594245
   8.55503495 13.33541571 13.42980984
   1.83507217  3.75349256 14.15677554
   8.63613036 11.03992072 13.72684253
  13.62229521 10.05656916  9.69924862
   4.27365669  5.87429794 11.72166891
   2.51352407  8.22788545 16.80989852
   6.48184672 14.34554054 16.83406069
   2.83559141  4.05469746 12.00367503
   3.86425097 11.86376159 17.35828954
   1.67928367 10.85085600 14.20200804
   8.85116302 13.79887798 11.11140251
  14.21568161  2.25747029 11.49754172
  10.15513131  1.45415345 17.47467746
   3.82882508  3.58097445 15.36730388
   3.11298161  7.49639840 12.99161642
  12.46754849 11.60430270 10.99917648
   7.07380037  0.13780887  9.97128762
   0.26259267 12.73426236 13.93638184
   8.01484509 11.34906961  9.75763959
   3.17602598  3.78597830 17.65237725
  13.88775672  3.58810329 16.92970228
  12.25836986  3.57878892 11.31313071
  13.21359630  1.83957928 15.51808315
  10.68467250 13.96555188 14.21777680
  10.25046555 12.11631510 10.25674737
  10.87087634  1.46454279 15.25144207
   6.70115918 14.28946342 14.49564986
   2.69812503  0.04992112 10.71324235
   6.33648513  1.86852558 11.33117620
   7.11922609  1.82807416 13.56853871
   7.76169956  3.83511367 18.14184984
   3.96330582  1.95121567 11.61131862
   3.75393558 11.58379703 15.06682896
   4.04803466  7.89760547 15.10591769
  12.51713642  5.44233055 12.58418787
   9.27283417 10.44580573 11.56745456
   6.71815388  4.96317933 16.30993170
   2.35363297  5.95180085 17.17563873
   6.30530385  5.14999169 12.64859397



--------------------------------------------------------------------------------------------------------


 k-point     1 :   0.0000 0.0000 0.0000  plane waves:  559733
 k-point     2 :   0.5000 0.0000 0.0000  plane waves:  559838
 k-point     3 :   0.0000 0.5000 0.0000  plane waves:  559838
 k-point     4 :   0.5000 0.5000 0.0000  plane waves:  559924

 maximum and minimum number of plane-waves per node :     35045    34906

 maximum number of plane-waves:    559924
 maximum index in each direction: 
   IXMAX=   41   IYMAX=   41   IZMAX=   78
   IXMIN=  -41   IYMIN=  -41   IZMIN=  -78


 parallel 3D FFT for wavefunctions:
    minimum data exchange during FFTs selected (reduces bandwidth)
 parallel 3D FFT for charge:
    minimum data exchange during FFTs selected (reduces bandwidth)


 total amount of memory used by VASP MPI-rank0   368607. kBytes
=======================================================================

   base                                    :      30000. kBytes
   nonl-proj                               :      80658. kBytes
   fftplans                                :     108859. kBytes
   grid                                    :      83991. kBytes
   one-center                              :         21. kBytes
   wavefun                                 :      65078. kBytes

     INWAV:  cpu time     19.3733: real time     19.3852
 Broyden mixing: mesh for mixing (old mesh)
   NGX = 83   NGY = 83   NGZ =157
  (NGX  =336   NGY  =336   NGZ  =640)
  gives a total of ****** points

 initial charge density was supplied:
 number of electron     339.9999999 magnetization 
 keeping initial charge density in first step


--------------------------------------------------------------------------------------------------------


 Maximum index for augmentation-charges        11380 (set IRDMAX)


--------------------------------------------------------------------------------------------------------


 First call to EWALD:  gamma=   0.098
 Maximum number of real-space cells   3x   3x   2
 Maximum number of reciprocal cells   2x   2x   4

    FEWALD:  cpu time      0.0211: real time      0.0212


--------------------------------------- Ionic step        1  -------------------------------------------




--------------------------------------- Iteration      1(   1)  ---------------------------------------


    POTLOK:  cpu time      2.1750: real time      2.1762
    SETDIJ:  cpu time      1.8057: real time      1.8068
    EDDIAG:  cpu time     38.8554: real time     38.8816
     EDDAV:  cpu time    184.4047: real time    184.4977
       DOS:  cpu time      0.0088: real time      0.0090
    CHARGE:  cpu time     22.5013: real time     22.5218
    MIXING:  cpu time      0.0499: real time      0.0510
    --------------------------------------------
      LOOP:  cpu time    249.8009: real time    249.9441

 eigenvalue-minimisations  :  1944
 total energy-change (2. order) :-0.8927486E+03  (-0.1005121E+01)
 number of electron     339.9999999 magnetization 
 augmentation part      -16.4287724 magnetization 

 Broyden mixing:
  rms(total) = 0.10932E+01    rms(broyden)= 0.26965E+02
  rms(prec ) = 0.11301E+01
  weight for this iteration     100.00
  WARNING: grid for Broyden might be to small

 Free energy of the ion-electron system (eV)
  ---------------------------------------------------
  alpha Z        PSCENC =        41.69113659
  Ewald energy   TEWEN  =     46703.00968758
  -Hartree energ DENC   =    -53931.14323775
  -exchange      EXHF   =         0.00000000
  -V(xc)+E(xc)   XCENC  =      -262.17259450
  PAW double counting   =     30026.85498330   -29269.96323384
  entropy T*S    EENTRO =        -0.24232427
  eigenvalues    EBANDS =     -2483.44355512
  atomic energy  EATOM  =      8282.66055418
  Solvation  Ediel_sol  =         0.00000000
  ---------------------------------------------------
  free energy    TOTEN  =      -892.74858382 eV

  energy without entropy =     -892.50625955  energy(sigma->0) =     -892.62742168


--------------------------------------------------------------------------------------------------------




--------------------------------------- Iteration      1(   2)  ---------------------------------------


    POTLOK:  cpu time      2.1348: real time      2.1605
    SETDIJ:  cpu time      1.8075: real time      1.8084
    EDDIAG:  cpu time     38.8737: real time     38.8945
     EDDAV:  cpu time    181.5890: real time    181.6843
       DOS:  cpu time      0.0019: real time      0.0019
    CHARGE:  cpu time     22.4028: real time     22.4196
    MIXING:  cpu time      0.0432: real time      0.0435
    --------------------------------------------
      LOOP:  cpu time    246.8529: real time    247.0128

 eigenvalue-minimisations  :  1896
 total energy-change (2. order) : 0.6040846E+02  (-0.1029652E+01)
 number of electron     339.9999999 magnetization 
 augmentation part      -16.3853718 magnetization 

 Broyden mixing:
  rms(total) = 0.76934E+00    rms(broyden)= 0.15373E+02
  rms(prec ) = 0.79813E+00
  weight for this iteration     100.00
  WARNING: grid for Broyden might be to small

 eigenvalues of (default mixing * dielectric matrix)
  average eigenvalue GAMMA=   0.6370
  0.6370

 Free energy of the ion-electron system (eV)
  ---------------------------------------------------
  alpha Z        PSCENC =        41.69113659
  Ewald energy   TEWEN  =     46703.00968758
  -Hartree energ DENC   =    -53918.47315881
  -exchange      EXHF   =         0.00000000
  -V(xc)+E(xc)   XCENC  =      -256.42991442
  PAW double counting   =     35722.92150465   -34965.77725064
  entropy T*S    EENTRO =        -0.23177667
  eigenvalues    EBANDS =     -2441.71091037
  atomic energy  EATOM  =      8282.66055418
  Solvation  Ediel_sol  =         0.00000000
  ---------------------------------------------------
  free energy    TOTEN  =      -832.34012790 eV

  energy without entropy =     -832.10835123  energy(sigma->0) =     -832.22423957


--------------------------------------------------------------------------------------------------------




--------------------------------------- Iteration      1(   3)  ---------------------------------------


    POTLOK:  cpu time      2.1337: real time      2.1578
    SETDIJ:  cpu time      1.8008: real time      1.8018
    EDDIAG:  cpu time     38.8892: real time     38.9115
     EDDAV:  cpu time    179.2431: real time    179.3404
       DOS:  cpu time      0.0049: real time      0.0049
    CHARGE:  cpu time     22.3752: real time     22.3956
    MIXING:  cpu time      0.0401: real time      0.0409
    --------------------------------------------
      LOOP:  cpu time    244.4869: real time    244.6529

 eigenvalue-minimisations  :  1856
 total energy-change (2. order) :-0.2145328E+01  (-0.9947145E+00)
 number of electron     339.9999999 magnetization 
 augmentation part      -16.3237135 magnetization 

 Broyden mixing:
  rms(total) = 0.48026E+00    rms(broyden)= 0.13985E+02
  rms(prec ) = 0.54206E+00
  weight for this iteration     100.00
  WARNING: grid for Broyden might be to small

 eigenvalues of (default mixing * dielectric matrix)
  average eigenvalue GAMMA=   0.6512
  0.6771  0.6252

 Free energy of the ion-electron system (eV)
  ---------------------------------------------------
  alpha Z        PSCENC =        41.69113659
  Ewald energy   TEWEN  =     46703.00968758
  -Hartree energ DENC   =    -53920.08089534
  -exchange      EXHF   =         0.00000000
  -V(xc)+E(xc)   XCENC  =      -258.59888344
  PAW double counting   =     40977.26255259   -40220.22630498
  entropy T*S    EENTRO =        -0.19585366
  eigenvalues    EBANDS =     -2440.00744913
  atomic energy  EATOM  =      8282.66055418
  Solvation  Ediel_sol  =         0.00000000
  ---------------------------------------------------
  free energy    TOTEN  =      -834.48545560 eV

  energy without entropy =     -834.28960194  energy(sigma->0) =     -834.38752877


--------------------------------------------------------------------------------------------------------




--------------------------------------- Iteration      1(   4)  ---------------------------------------


    POTLOK:  cpu time      2.1336: real time      2.1616
    SETDIJ:  cpu time      1.8847: real time      1.8859
    EDDIAG:  cpu time     38.8793: real time     38.9011
     EDDAV:  cpu time    187.5069: real time    187.6060
       DOS:  cpu time      0.0026: real time      0.0026
    CHARGE:  cpu time     22.3865: real time     22.4064
    MIXING:  cpu time      0.0407: real time      0.0416
    --------------------------------------------
      LOOP:  cpu time    252.8344: real time    253.0052

 eigenvalue-minimisations  :  2008
 total energy-change (2. order) : 0.2417410E+00  (-0.3079563E+00)
 number of electron     339.9999999 magnetization 
 augmentation part      -16.3232539 magnetization 

 Broyden mixing:
  rms(total) = 0.11945E+00    rms(broyden)= 0.75897E+01
  rms(prec ) = 0.17497E+00
  weight for this iteration     100.00
  WARNING: grid for Broyden might be to small

 eigenvalues of (default mixing * dielectric matrix)
  average eigenvalue GAMMA=   0.8046
  1.3241  0.6327  0.4570

 Free energy of the ion-electron system (eV)
  ---------------------------------------------------
  alpha Z        PSCENC =        41.69113659
  Ewald energy   TEWEN  =     46703.00968758
  -Hartree energ DENC   =    -53923.76646743
  -exchange      EXHF   =         0.00000000
  -V(xc)+E(xc)   XCENC  =      -258.32138927
  PAW double counting   =     46849.67147654   -46092.69119653
  entropy T*S    EENTRO =        -0.22344014
  eigenvalues    EBANDS =     -2436.27407607
  atomic energy  EATOM  =      8282.66055418
  Solvation  Ediel_sol  =         0.00000000
  ---------------------------------------------------
  free energy    TOTEN  =      -834.24371455 eV

  energy without entropy =     -834.02027441  energy(sigma->0) =     -834.13199448


--------------------------------------------------------------------------------------------------------




--------------------------------------- Iteration      1(   5)  ---------------------------------------


    POTLOK:  cpu time      2.1331: real time      2.1641
    SETDIJ:  cpu time      1.7987: real time      1.7995
    EDDIAG:  cpu time     38.9322: real time     38.9576
     EDDAV:  cpu time    188.2215: real time    188.3177
       DOS:  cpu time      0.0023: real time      0.0023
    CHARGE:  cpu time     22.3747: real time     22.3939
    MIXING:  cpu time      0.0417: real time      0.0417
    --------------------------------------------
      LOOP:  cpu time    253.5042: real time    253.6769

 eigenvalue-minimisations  :  2016
 total energy-change (2. order) :-0.9843247E-01  (-0.4353708E-01)
 number of electron     339.9999999 magnetization 
 augmentation part      -16.3220277 magnetization 

 Broyden mixing:
  rms(total) = 0.94884E-01    rms(broyden)= 0.87184E+00
  rms(prec ) = 0.13213E+00
  weight for this iteration     100.00
  WARNING: grid for Broyden might be to small

 eigenvalues of (default mixing * dielectric matrix)
  average eigenvalue GAMMA=   0.9525
  2.1335  0.6573  0.6065  0.4127

 Free energy of the ion-electron system (eV)
  ---------------------------------------------------
  alpha Z        PSCENC =        41.69113659
  Ewald energy   TEWEN  =     46703.00968758
  -Hartree energ DENC   =    -53925.84425069
  -exchange      EXHF   =         0.00000000
  -V(xc)+E(xc)   XCENC  =      -259.00549587
  PAW double counting   =     47501.33939227   -46744.34953166
  entropy T*S    EENTRO =        -0.25495560
  eigenvalues    EBANDS =     -2433.58868381
  atomic energy  EATOM  =      8282.66055418
  Solvation  Ediel_sol  =         0.00000000
  ---------------------------------------------------
  free energy    TOTEN  =      -834.34214701 eV

  energy without entropy =     -834.08719142  energy(sigma->0) =     -834.21466922


--------------------------------------------------------------------------------------------------------




--------------------------------------- Iteration      1(   6)  ---------------------------------------


    POTLOK:  cpu time      2.1313: real time      2.1587
    SETDIJ:  cpu time      1.7997: real time      1.8011
    EDDIAG:  cpu time     38.9078: real time     38.9319
     EDDAV:  cpu time    190.6050: real time    190.7017
       DOS:  cpu time      0.0023: real time      0.0023
    CHARGE:  cpu time     22.4073: real time     22.4284
    MIXING:  cpu time      0.0423: real time      0.0423
    --------------------------------------------
      LOOP:  cpu time    255.8958: real time    256.0664

 eigenvalue-minimisations  :  2064
 total energy-change (2. order) : 0.8329044E-02  (-0.1892177E-01)
 number of electron     339.9999999 magnetization 
 augmentation part      -16.3243715 magnetization 

 Broyden mixing:
  rms(total) = 0.74817E-01    rms(broyden)= 0.47758E+00
  rms(prec ) = 0.10264E+00
  weight for this iteration     100.00
  WARNING: grid for Broyden might be to small

 eigenvalues of (default mixing * dielectric matrix)
  average eigenvalue GAMMA=   0.9034
  2.4098  0.7444  0.6257  0.3685  0.3685

 Free energy of the ion-electron system (eV)
  ---------------------------------------------------
  alpha Z        PSCENC =        41.69113659
  Ewald energy   TEWEN  =     46703.00968758
  -Hartree energ DENC   =    -53925.28015956
  -exchange      EXHF   =         0.00000000
  -V(xc)+E(xc)   XCENC  =      -259.28389684
  PAW double counting   =     47357.98508157   -46600.98188273
  entropy T*S    EENTRO =        -0.23258867
  eigenvalues    EBANDS =     -2433.90175009
  atomic energy  EATOM  =      8282.66055418
  Solvation  Ediel_sol  =         0.00000000
  ---------------------------------------------------
  free energy    TOTEN  =      -834.33381797 eV

  energy without entropy =     -834.10122930  energy(sigma->0) =     -834.21752364


--------------------------------------------------------------------------------------------------------




--------------------------------------- Iteration      1(   7)  ---------------------------------------


    POTLOK:  cpu time      2.1316: real time      2.1605
    SETDIJ:  cpu time      1.8014: real time      1.8028
    EDDIAG:  cpu time     38.9339: real time     38.9590
     EDDAV:  cpu time    182.8093: real time    182.9046
       DOS:  cpu time      0.0024: real time      0.0024
    CHARGE:  cpu time     22.3961: real time     22.4142
    MIXING:  cpu time      0.0424: real time      0.0432
    --------------------------------------------
      LOOP:  cpu time    248.1170: real time    248.2867

 eigenvalue-minimisations  :  1920
 total energy-change (2. order) : 0.1351904E-01  (-0.7490354E-02)
 number of electron     339.9999999 magnetization 
 augmentation part      -16.3233350 magnetization 

 Broyden mixing:
  rms(total) = 0.29371E-01    rms(broyden)= 0.14722E+00
  rms(prec ) = 0.33339E-01
  weight for this iteration     100.00
  WARNING: grid for Broyden might be to small

 eigenvalues of (default mixing * dielectric matrix)
  average eigenvalue GAMMA=   0.9070
  2.5598  0.9320  0.6296  0.6296  0.4312  0.2601

 Free energy of the ion-electron system (eV)
  ---------------------------------------------------
  alpha Z        PSCENC =        41.69113659
  Ewald energy   TEWEN  =     46703.00968758
  -Hartree energ DENC   =    -53925.15415540
  -exchange      EXHF   =         0.00000000
  -V(xc)+E(xc)   XCENC  =      -259.30221776
  PAW double counting   =     47279.39428471   -46522.38244846
  entropy T*S    EENTRO =        -0.24477608
  eigenvalues    EBANDS =     -2433.99236430
  atomic energy  EATOM  =      8282.66055418
  Solvation  Ediel_sol  =         0.00000000
  ---------------------------------------------------
  free energy    TOTEN  =      -834.32029893 eV

  energy without entropy =     -834.07552286  energy(sigma->0) =     -834.19791090


--------------------------------------------------------------------------------------------------------




--------------------------------------- Iteration      1(   8)  ---------------------------------------


    POTLOK:  cpu time      2.1377: real time      2.1643
    SETDIJ:  cpu time      1.7965: real time      1.7974
    EDDIAG:  cpu time     38.9588: real time     38.9817
     EDDAV:  cpu time    184.7491: real time    184.8504
       DOS:  cpu time      0.0019: real time      0.0019
    CHARGE:  cpu time     22.4176: real time     22.4365
    MIXING:  cpu time      0.0439: real time      0.0439
    --------------------------------------------
      LOOP:  cpu time    250.1054: real time    250.2761

 eigenvalue-minimisations  :  1952
 total energy-change (2. order) :-0.5736685E-04  (-0.1837839E-02)
 number of electron     339.9999999 magnetization 
 augmentation part      -16.3223109 magnetization 

 Broyden mixing:
  rms(total) = 0.19624E-01    rms(broyden)= 0.73245E-01
  rms(prec ) = 0.22301E-01
  weight for this iteration     100.00
  WARNING: grid for Broyden might be to small

 eigenvalues of (default mixing * dielectric matrix)
  average eigenvalue GAMMA=   0.8757
  2.5848  1.0277  0.6315  0.6184  0.6184  0.3998  0.2496

 Free energy of the ion-electron system (eV)
  ---------------------------------------------------
  alpha Z        PSCENC =        41.69113659
  Ewald energy   TEWEN  =     46703.00968758
  -Hartree energ DENC   =    -53925.38702491
  -exchange      EXHF   =         0.00000000
  -V(xc)+E(xc)   XCENC  =      -259.22409990
  PAW double counting   =     47265.95210985   -46508.93032762
  entropy T*S    EENTRO =        -0.24422283
  eigenvalues    EBANDS =     -2433.84816923
  atomic energy  EATOM  =      8282.66055418
  Solvation  Ediel_sol  =         0.00000000
  ---------------------------------------------------
  free energy    TOTEN  =      -834.32035630 eV

  energy without entropy =     -834.07613347  energy(sigma->0) =     -834.19824489


--------------------------------------------------------------------------------------------------------




--------------------------------------- Iteration      1(   9)  ---------------------------------------


    POTLOK:  cpu time      2.1372: real time      2.1669
    SETDIJ:  cpu time      1.8059: real time      1.8070
    EDDIAG:  cpu time     38.9684: real time     38.9903
     EDDAV:  cpu time    182.9784: real time    183.0754
       DOS:  cpu time      0.0027: real time      0.0027
    CHARGE:  cpu time     22.4001: real time     22.4209
    MIXING:  cpu time      0.0442: real time      0.0442
    --------------------------------------------
      LOOP:  cpu time    248.3369: real time    248.5077

 eigenvalue-minimisations  :  1920
 total energy-change (2. order) :-0.4876414E-03  (-0.5328975E-03)
 number of electron     339.9999999 magnetization 
 augmentation part      -16.3209497 magnetization 

 Broyden mixing:
  rms(total) = 0.93546E-02    rms(broyden)= 0.10904E+00
  rms(prec ) = 0.12990E-01
  weight for this iteration     100.00
  WARNING: grid for Broyden might be to small

 eigenvalues of (default mixing * dielectric matrix)
  average eigenvalue GAMMA=   0.8592
  2.5872  1.1766  0.6994  0.6307  0.5619  0.5619  0.4130  0.2431

 Free energy of the ion-electron system (eV)
  ---------------------------------------------------
  alpha Z        PSCENC =        41.69113659
  Ewald energy   TEWEN  =     46703.00968758
  -Hartree energ DENC   =    -53925.42849282
  -exchange      EXHF   =         0.00000000
  -V(xc)+E(xc)   XCENC  =      -259.10066210
  PAW double counting   =     47261.36178818   -46504.32780781
  entropy T*S    EENTRO =        -0.24532586
  eigenvalues    EBANDS =     -2433.94172188
  atomic energy  EATOM  =      8282.66055418
  Solvation  Ediel_sol  =         0.00000000
  ---------------------------------------------------
  free energy    TOTEN  =      -834.32084394 eV

  energy without entropy =     -834.07551808  energy(sigma->0) =     -834.19818101


--------------------------------------------------------------------------------------------------------




--------------------------------------- Iteration      1(  10)  ---------------------------------------


    POTLOK:  cpu time      2.1416: real time      2.1703
    SETDIJ:  cpu time      1.7933: real time      1.7940
    EDDIAG:  cpu time     38.9653: real time     38.9882
     EDDAV:  cpu time    188.9867: real time    189.0868
       DOS:  cpu time      0.0058: real time      0.0057
    CHARGE:  cpu time     22.3944: real time     22.4161
    MIXING:  cpu time      0.0454: real time      0.0455
    --------------------------------------------
      LOOP:  cpu time    254.3324: real time    254.5065

 eigenvalue-minimisations  :  2032
 total energy-change (2. order) :-0.3468376E-05  (-0.1643949E-03)
 number of electron     339.9999999 magnetization 
 augmentation part      -16.3208347 magnetization 

 Broyden mixing:
  rms(total) = 0.55348E-02    rms(broyden)= 0.48762E-01
  rms(prec ) = 0.73007E-02
  weight for this iteration     100.00
  WARNING: grid for Broyden might be to small

 eigenvalues of (default mixing * dielectric matrix)
  average eigenvalue GAMMA=   0.8820
  2.5685  1.5399  0.9182  0.6531  0.6050  0.5960  0.2412  0.4079  0.4079

 Free energy of the ion-electron system (eV)
  ---------------------------------------------------
  alpha Z        PSCENC =        41.69113659
  Ewald energy   TEWEN  =     46703.00968758
  -Hartree energ DENC   =    -53925.51079947
  -exchange      EXHF   =         0.00000000
  -V(xc)+E(xc)   XCENC  =      -259.07915973
  PAW double counting   =     47260.36959110   -46503.33088405
  entropy T*S    EENTRO =        -0.24489305
  eigenvalues    EBANDS =     -2433.88608057
  atomic energy  EATOM  =      8282.66055418
  Solvation  Ediel_sol  =         0.00000000
  ---------------------------------------------------
  free energy    TOTEN  =      -834.32084741 eV

  energy without entropy =     -834.07595436  energy(sigma->0) =     -834.19840089


--------------------------------------------------------------------------------------------------------




--------------------------------------- Iteration      1(  11)  ---------------------------------------


    POTLOK:  cpu time      2.4666: real time      2.4926
    SETDIJ:  cpu time      1.7975: real time      1.7987
    EDDIAG:  cpu time     38.9337: real time     38.9570
     EDDAV:  cpu time    183.7869: real time    183.8869
       DOS:  cpu time      0.0046: real time      0.0046
    CHARGE:  cpu time     22.3941: real time     22.4157
    MIXING:  cpu time      0.0459: real time      0.0459
    --------------------------------------------
      LOOP:  cpu time    249.4291: real time    249.6014

 eigenvalue-minimisations  :  1936
 total energy-change (2. order) :-0.3394842E-04  (-0.1229318E-03)
 number of electron     339.9999999 magnetization 
 augmentation part      -16.3207914 magnetization 

 Broyden mixing:
  rms(total) = 0.21903E-02    rms(broyden)= 0.23724E-01
  rms(prec ) = 0.25662E-02
  weight for this iteration     100.00
  WARNING: grid for Broyden might be to small

 eigenvalues of (default mixing * dielectric matrix)
  average eigenvalue GAMMA=   0.9528
  2.5250  2.3151  1.0506  0.7286  0.7286  0.6298  0.2414  0.5173  0.3960  0.3960

 Free energy of the ion-electron system (eV)
  ---------------------------------------------------
  alpha Z        PSCENC =        41.69113659
  Ewald energy   TEWEN  =     46703.00968758
  -Hartree energ DENC   =    -53925.54718170
  -exchange      EXHF   =         0.00000000
  -V(xc)+E(xc)   XCENC  =      -259.07391062
  PAW double counting   =     47257.42067204   -46500.37899738
  entropy T*S    EENTRO =        -0.24526989
  eigenvalues    EBANDS =     -2433.85757215
  atomic energy  EATOM  =      8282.66055418
  Solvation  Ediel_sol  =         0.00000000
  ---------------------------------------------------
  free energy    TOTEN  =      -834.32088136 eV

  energy without entropy =     -834.07561147  energy(sigma->0) =     -834.19824642


--------------------------------------------------------------------------------------------------------




--------------------------------------- Iteration      1(  12)  ---------------------------------------


    POTLOK:  cpu time      2.1450: real time      2.1680
    SETDIJ:  cpu time      1.7957: real time      1.7965
    EDDIAG:  cpu time     38.9233: real time     38.9485
     EDDAV:  cpu time    186.7410: real time    186.8382
       DOS:  cpu time      0.0097: real time      0.0102
    CHARGE:  cpu time     22.4103: real time     22.4307
    MIXING:  cpu time      0.0625: real time      0.0631
    --------------------------------------------
      LOOP:  cpu time    252.0882: real time    252.2562

 eigenvalue-minimisations  :  1984
 total energy-change (2. order) : 0.1804731E-04  (-0.3215685E-04)
 number of electron     339.9999999 magnetization 
 augmentation part      -16.3207317 magnetization 

 Broyden mixing:
  rms(total) = 0.13227E-02    rms(broyden)= 0.14499E-01
  rms(prec ) = 0.15357E-02
  weight for this iteration     100.00
  WARNING: grid for Broyden might be to small

 eigenvalues of (default mixing * dielectric matrix)
  average eigenvalue GAMMA=   0.9651
  2.5824  2.5824  1.0607  0.8869  0.6693  0.6693  0.6403  0.2414  0.4902  0.3966
  0.3966

 Free energy of the ion-electron system (eV)
  ---------------------------------------------------
  alpha Z        PSCENC =        41.69113659
  Ewald energy   TEWEN  =     46703.00968758
  -Hartree energ DENC   =    -53925.52375600
  -exchange      EXHF   =         0.00000000
  -V(xc)+E(xc)   XCENC  =      -259.07213629
  PAW double counting   =     47256.39222552   -46499.34907248
  entropy T*S    EENTRO =        -0.24511524
  eigenvalues    EBANDS =     -2433.88438717
  atomic energy  EATOM  =      8282.66055418
  Solvation  Ediel_sol  =         0.00000000
  ---------------------------------------------------
  free energy    TOTEN  =      -834.32086331 eV

  energy without entropy =     -834.07574807  energy(sigma->0) =     -834.19830569


--------------------------------------------------------------------------------------------------------




--------------------------------------- Iteration      1(  13)  ---------------------------------------


    POTLOK:  cpu time      2.1440: real time      2.1687
    SETDIJ:  cpu time      1.8101: real time      1.8123
    EDDIAG:  cpu time     38.9614: real time     38.9866
     EDDAV:  cpu time    191.3819: real time    191.4855
       DOS:  cpu time      0.0048: real time      0.0048
    CHARGE:  cpu time     22.4409: real time     22.4609
    MIXING:  cpu time      0.0483: real time      0.0483
    --------------------------------------------
      LOOP:  cpu time    256.7905: real time    256.9660

 eigenvalue-minimisations  :  2072
 total energy-change (2. order) :-0.3287457E-04  (-0.1195154E-04)
 number of electron     339.9999999 magnetization 
 augmentation part      -16.3207945 magnetization 

 Broyden mixing:
  rms(total) = 0.68584E-03    rms(broyden)= 0.72493E-02
  rms(prec ) = 0.84068E-03
  weight for this iteration     100.00
  WARNING: grid for Broyden might be to small

 eigenvalues of (default mixing * dielectric matrix)
  average eigenvalue GAMMA=   0.9796
  2.6546  2.6546  1.0816  1.0816  0.8290  0.2414  0.6996  0.6372  0.5887  0.4902
  0.3984  0.3984

 Free energy of the ion-electron system (eV)
  ---------------------------------------------------
  alpha Z        PSCENC =        41.69113659
  Ewald energy   TEWEN  =     46703.00968758
  -Hartree energ DENC   =    -53925.46713462
  -exchange      EXHF   =         0.00000000
  -V(xc)+E(xc)   XCENC  =      -259.07230850
  PAW double counting   =     47252.12989674   -46495.08535000
  entropy T*S    EENTRO =        -0.24516505
  eigenvalues    EBANDS =     -2433.94221310
  atomic energy  EATOM  =      8282.66055418
  Solvation  Ediel_sol  =         0.00000000
  ---------------------------------------------------
  free energy    TOTEN  =      -834.32089619 eV

  energy without entropy =     -834.07573113  energy(sigma->0) =     -834.19831366


--------------------------------------------------------------------------------------------------------




--------------------------------------- Iteration      1(  14)  ---------------------------------------


    POTLOK:  cpu time      2.1641: real time      2.1655
    SETDIJ:  cpu time      1.7935: real time      1.7945
    EDDIAG:  cpu time     38.9447: real time     38.9670
     EDDAV:  cpu time    184.7266: real time    184.8189
       DOS:  cpu time      0.0019: real time      0.0019
    CHARGE:  cpu time     22.4078: real time     22.4270
    MIXING:  cpu time      0.0485: real time      0.0485
    --------------------------------------------
      LOOP:  cpu time    250.0871: real time    250.2234

 eigenvalue-minimisations  :  1952
 total energy-change (2. order) :-0.3369585E-04  (-0.6165845E-05)
 number of electron     339.9999999 magnetization 
 augmentation part      -16.3207917 magnetization 

 Broyden mixing:
  rms(total) = 0.38907E-03    rms(broyden)= 0.32144E-02
  rms(prec ) = 0.51249E-03
  weight for this iteration     100.00
  WARNING: grid for Broyden might be to small

[...]
   -.164E+01 -.450E+02 0.345E+03   0.228E+01 0.443E+02 -.347E+03   -.456E+00 0.104E+01 0.914E+00   0.168E-04 0.250E-04 -.159E-04
   0.165E+02 0.461E+02 0.307E+01   -.161E+02 -.454E+02 -.201E+01   -.270E+00 -.734E+00 -.846E+00   -.121E-04 0.868E-05 -.341E-04
   0.100E+02 0.734E+02 0.344E+03   -.104E+02 -.761E+02 -.344E+03   0.379E+00 0.233E+01 0.100E+00   0.811E-05 -.522E-05 -.199E-04
   -.153E+02 -.879E+01 -.316E+03   0.135E+02 0.661E+01 0.317E+03   0.161E+01 0.212E+01 -.159E+00   0.257E-04 0.170E-04 0.106E-04
   0.364E+02 -.486E+02 -.246E+03   -.371E+02 0.479E+02 0.245E+03   0.654E+00 0.740E+00 0.143E+01   -.465E-04 0.133E-04 -.216E-05
   0.178E+02 -.433E+02 0.247E+03   -.166E+02 0.444E+02 -.245E+03   -.128E+01 -.418E+00 -.199E+01   0.123E-05 0.590E-05 -.627E-05
   0.320E+02 -.200E+02 -.131E+03   -.307E+02 0.208E+02 0.131E+03   -.134E+01 -.839E+00 -.104E+00   -.447E-04 0.342E-04 -.383E-05
   -.971E+01 0.199E+02 -.522E+02   0.103E+02 -.197E+02 0.521E+02   -.662E+00 -.151E+00 0.428E-01   -.126E-04 0.418E-04 -.225E-05
   -.413E+02 0.175E+02 0.317E+03   0.388E+02 -.194E+02 -.316E+03   0.240E+01 0.164E+01 -.200E+01   -.566E-05 0.501E-05 -.194E-04
   -.127E+02 -.237E+02 -.119E+03   0.108E+02 0.223E+02 0.121E+03   0.163E+01 0.150E+01 -.169E+01   -.233E-04 0.278E-04 0.220E-04
   0.206E+01 0.631E-01 -.628E+02   -.206E+01 0.622E+00 0.622E+02   0.816E-01 -.842E+00 0.492E+00   0.310E-04 0.296E-04 0.179E-05
   0.121E+02 -.639E+01 0.294E+03   -.126E+02 0.599E+01 -.291E+03   0.527E+00 0.532E+00 -.283E+01   0.420E-05 0.197E-04 -.269E-04
   0.931E+01 -.396E+02 0.248E+03   -.754E+01 0.388E+02 -.248E+03   -.176E+01 0.780E+00 -.954E+00   0.225E-04 0.398E-04 -.163E-04
   -.322E+01 -.188E+02 0.309E+02   0.190E+01 0.197E+02 -.304E+02   0.138E+01 -.599E+00 -.313E+00   0.230E-04 0.330E-04 -.143E-04
   0.877E+01 -.488E+02 -.338E+03   -.887E+01 0.481E+02 0.339E+03   0.334E+00 0.654E+00 -.962E+00   0.174E-04 0.118E-06 0.160E-04
   -.578E+01 -.442E+02 0.224E+03   0.556E+01 0.436E+02 -.223E+03   0.182E+00 0.595E+00 -.151E+01   0.130E-04 0.385E-04 -.189E-04
   0.254E+02 0.131E+02 -.988E+02   -.250E+02 -.138E+02 0.100E+03   -.518E+00 0.612E+00 -.121E+01   0.578E-05 -.126E-04 -.326E-04
   -.205E+02 0.246E+01 -.864E+02   0.192E+02 -.258E+01 0.875E+02   0.158E+01 -.257E-01 -.809E+00   0.884E-05 -.282E-04 -.588E-05
   0.314E+02 -.521E+02 0.104E+03   -.286E+02 0.486E+02 -.102E+03   -.193E+01 0.196E+01 -.118E+01   -.384E-05 -.327E-05 -.134E-04
   -.171E+02 0.927E+02 0.182E+03   0.177E+02 -.924E+02 -.182E+03   -.860E+00 -.130E+00 0.243E+00   0.164E-05 -.108E-04 -.245E-04
   -.282E+02 -.492E+02 -.207E+03   0.305E+02 0.486E+02 0.206E+03   -.197E+01 0.319E+00 0.139E+01   0.291E-04 -.255E-04 0.259E-04
   0.347E+02 -.475E+02 -.297E+03   -.340E+02 0.474E+02 0.294E+03   -.527E+00 0.113E+00 0.300E+01   0.225E-05 -.342E-05 0.636E-05
   -.283E+02 -.576E+02 0.146E+03   0.289E+02 0.586E+02 -.143E+03   -.286E+00 -.865E+00 -.194E+01   0.584E-05 -.165E-04 -.328E-04
 -----------------------------------------------------------------------------------------------
   0.620E+01 -.420E+01 0.339E+01   -.117E-12 0.782E-13 -.909E-12   -.621E+01 0.420E+01 -.339E+01   0.141E-03 0.347E-03 -.741E-03


 POSITION                                       TOTAL-FORCE (eV/Angst)
 -----------------------------------------------------------------------------------
     11.78773      6.25590     15.75895         0.042145      0.040312      0.043974
      6.78951      8.76061     12.52465         0.060855     -0.037423      0.022983
      0.80543     10.69811     17.32001        -0.053947      0.162668      0.000069
     11.45262      6.89347     11.77098        -0.292780      0.420828     -0.234014
      7.13150      6.29255     13.14087        -0.181679      0.013378     -0.070746
     13.90879      8.40019     12.32329        -0.060539     -0.095140     -0.085285
     12.64927      9.01555     13.60705        -0.075716     -0.092430      0.100683
     14.12140      9.11678     16.04193        -0.093633      0.007034     -0.103136
      0.66166      7.45139     10.57827         0.077991     -0.067514     -0.083480
      8.92326      6.88905     13.78199         0.089904      0.036380      0.002724
     12.86556      6.36888      9.77565        -0.090611     -0.058045     -0.097577
     14.47222      6.26866     15.12962        -0.008445      0.030375      0.020708
      9.13794      3.98753     14.41668         0.062836     -0.032139     -0.111325
     11.07982      7.52454     11.47629         0.082623     -0.064684      0.139046
     12.19174     10.80892     12.22501        -0.135756      0.020185      0.019483
     13.35327      6.86398     10.03358        -0.026828      0.020859     -0.136937
      9.41271      7.43453     13.91483         0.098473     -0.008246     -0.032813
      9.69794      9.04191     11.39997         0.120762     -0.159682     -0.249726
     10.16793      4.41613     16.24791        -0.032873      0.126991      0.096737
     11.64301     11.14528     14.13939        -0.062268     -0.010217      0.104311
      8.67480      9.00498     18.24166        -0.082406     -0.140800      0.143447
      1.84092      6.79301     13.38230         0.021093      0.021013     -0.139622
     12.65695      9.26423      8.89716         0.042300     -0.072591      0.016168
      1.20344      3.93929      9.27043        -0.059835      0.025689     -0.259370
     14.53759     10.75004      8.77226         0.077263      0.060936     -0.115810
     11.95838      5.38663     13.94544        -0.413359      0.270114      0.052794
      7.36306      8.08668     15.24937        -0.274256      0.109955     -0.153032
      4.13397      3.57927     18.75551         0.138646      0.048754      0.061755
     12.28810      9.15767     14.24320         0.003020     -0.106132     -0.010821
     10.45119      8.24692     16.79364         0.047313     -0.122807     -0.095188
      7.95213      8.26493     15.77977        -0.036884      0.084417     -0.019205
      4.06597      0.00005     18.94084         0.057943      0.238541     -0.000867
     11.38356      6.75740     16.13192         0.101848     -0.036292      0.002196
      7.69797      6.00420     15.88009        -0.184124      0.021876     -0.031839
      7.87954      2.12189     15.80883        -0.227211     -0.062084     -0.261396
     13.87366      6.02126     12.62477         0.049174      0.159894      0.002295
      4.48995      5.79819     16.04041        -0.094474      0.018779     -0.325341
      0.87961      9.77043     16.16716        -0.283341     -0.159918     -0.023697
     13.80555     13.32415     11.85334         0.133932      0.053830      0.010564
      3.32275      0.15701     12.97505         0.135602     -0.181458     -0.077150
     12.28554      4.34694     18.52432        -0.082022     -0.125028      0.508957
      5.98815      3.66039     14.47464         0.131991     -0.013427      0.078866
     12.13735      0.18876     12.58997         0.098226      0.274775     -0.045928
      3.67312     12.71614      9.62382         0.253811     -0.087226      0.502804
      1.31207      2.46881     17.51468        -0.175715      0.152318      0.155957
      0.24831      2.01935     13.78381        -0.066066     -0.159159      0.033987
      9.95483      3.13082     11.55162        -0.068093     -0.092449     -0.255672
      4.07706     14.17065     17.50700        -0.158370     -0.446820      0.311299
      1.48889      0.13522     14.36793        -0.037671      0.083197     -0.262775
      0.90507      4.05409     10.71577         0.062366     -0.200610      0.160501
     10.16912      3.81239     17.62363        -0.168068      0.288262     -0.644326
      4.84706     13.14629     13.66249        -0.171210      0.067577      0.182689
      7.61711      3.84059     11.12087        -0.078656     -0.188075      0.042435
      6.62414     10.05215     13.24221         0.113135     -0.200940      0.118991
      6.00853     12.70575     10.08879         0.014119      0.104224     -0.144890
      5.32342      9.82867     15.12512         0.002561     -0.459231      0.056816
      9.22848      9.06002     16.87930         0.141474      0.629572      0.344161
      9.33506     11.18128     15.99467        -0.139407     -0.060186      0.039208
      5.91593     10.73621     17.19087        -0.169925      0.682026     -0.283275
     10.38595      0.91005     11.32018         0.132367     -0.045773      0.299892
      2.15329      9.56501     12.25358        -0.043582     -0.048703      0.030487
      0.25192      8.73003     11.20440         0.020116      0.117994      0.119494
      5.36482     11.58896     12.01926         0.050377     -0.314485     -0.295834
      3.55900     10.78634     10.89733        -0.095016      0.136721      0.011599
      0.36864      0.25897     10.46065        -0.102309      0.030974      0.104124
     13.57595     12.50847     15.92227        -0.088332      0.074708     -0.087206
      7.58457     12.26745     17.14028        -0.300082     -0.258365      0.005874
      9.37469      2.65475     13.76664        -0.091065     -0.098480      0.435228
      7.84280      1.65508     17.23960         0.068280      0.066647     -0.036162
      0.68328      5.13795     15.70641        -0.173125      0.215864     -0.102404
      1.87248      0.41084     16.67589         0.308169      0.053873     -0.217601
     14.09801     14.56222     16.80251        -0.235067     -0.118115     -0.213965
     11.40476     12.05023     15.29594         0.296709     -0.026494     -0.051084
      8.55503     13.33542     13.42981         0.045737     -0.056019     -0.157179
      1.83507      3.75349     14.15678        -0.025225     -0.051684      0.110659
      8.63613     11.03992     13.72684        -0.072551     -0.003930     -0.331674
     13.62230     10.05657      9.69925        -0.023661      0.093866     -0.186092
      4.27366      5.87430     11.72167        -0.132500      0.044807     -0.008432
      2.51352      8.22789     16.80990         0.158777      0.194223     -0.102594
      6.48185     14.34554     16.83406        -0.112624      0.054978      0.103884
      2.83559      4.05470     12.00368        -0.081386      0.183276     -0.035292
      3.86425     11.86376     17.35829         0.140590     -0.283074      0.041339
      1.67928     10.85086     14.20201         0.111278      0.061786     -0.005418
      8.85116     13.79888     11.11140        -0.186539     -0.131978      0.500406
     14.21568      2.25747     11.49754        -0.041310      0.064320      0.074360
     10.15513      1.45415     17.47468         0.477758     -0.381877      0.463221
      3.82883      3.58097     15.36730         0.048392      0.150457     -0.071719
      3.11298      7.49640     12.99162        -0.239001     -0.004558      0.098264
     12.46755     11.60430     10.99918        -0.011905      0.159543      0.010738
      7.07380      0.13781      9.97129         0.141685      0.247033     -0.430125
      0.26259     12.73426     13.93638         0.091261     -0.103940      0.209485
      8.01485     11.34907      9.75764         0.149763     -0.147845      0.405940
      3.17603      3.78598     17.65238        -0.083058      0.086957      0.147859
     13.88776      3.58810     16.92970         0.119401     -0.002406     -0.188477
     12.25837      3.57879     11.31313        -0.105396      0.691105      0.418491
     13.21360      1.83958     15.51808        -0.003293     -0.106074     -0.087670
     10.68467     13.96555     14.21778        -0.127562      0.076714     -0.093224
     10.25047     12.11632     10.25675        -0.095256     -0.277065     -0.183024
     10.87088      1.46454     15.25144        -0.112901      0.225424      0.042155
      6.70116     14.28946     14.49565         0.090683     -0.211106     -0.106569
      2.69813      0.04992     10.71324         0.031261      0.155270     -0.157229
      6.33649      1.86853     11.33118        -0.082652      0.033338     -0.061762
      7.11923      1.82807     13.56854         0.126440      0.299162      0.167439
      7.76170      3.83511     18.14185         0.338065     -0.051066     -0.053273
      3.96331      1.95122     11.61132        -0.046339      0.020345     -0.234590
      3.75394     11.58380     15.06683        -0.072460     -0.075363     -0.032368
      4.04803      7.89761     15.10592         0.397852     -0.155760      0.299529
     12.51714      5.44233     12.58419         0.795236     -1.424097     -0.033912
      9.27283     10.44581     11.56745        -0.337095      0.186931      0.038026
      6.71815      4.96318     16.30993         0.193636     -0.186229      0.358353
      2.35363      5.95180     17.17564         0.296167     -0.066491      0.041728
      6.30530      5.14999     12.64859         0.316054      0.170659      0.004939
 -----------------------------------------------------------------------------------
    total drift:                               -0.007113      0.000024      0.002643


--------------------------------------------------------------------------------------------------------



  FREE ENERGIE OF THE ION-ELECTRON SYSTEM (eV)
  ---------------------------------------------------
  free  energy   TOTEN  =      -834.32118337 eV

  energy  without entropy=     -834.07602292  energy(sigma->0) =     -834.19860315



--------------------------------------------------------------------------------------------------------


    POTLOK:  cpu time      3.9072: real time      3.9218


--------------------------------------------------------------------------------------------------------


     LOOP+:  cpu time   6400.4611: real time   6404.8601
    4ORBIT:  cpu time      0.0000: real time      0.0000



 total charge

# of ion       s       p       d       tot
------------------------------------------
    1        0.611   0.033   0.000   0.644
    2        0.566   0.016   0.000   0.582
    3        0.567   0.016   0.000   0.584
    4        0.595   0.030   0.000   0.625
    5        0.568   0.015   0.000   0.584
    6        0.578   0.016   0.000   0.594
    7        0.611   0.033   0.000   0.644
    8        0.573   0.015   0.000   0.588
    9        0.572   0.016   0.000   0.588
   10        0.607   0.033   0.000   0.640
   11        0.614   0.033   0.000   0.648
   12        0.568   0.016   0.000   0.583
   13        0.562   0.016   0.000   0.577
   14        0.567   0.026   0.000   0.593
   15        0.571   0.016   0.000   0.587
   16        0.618   0.034   0.000   0.652
   17        0.615   0.032   0.000   0.647
   18        0.569   0.016   0.000   0.585
   19        0.563   0.016   0.000   0.579
   20        0.569   0.017   0.000   0.586
   21        0.570   0.017   0.000   0.587
   22        0.561   0.015   0.000   0.576
   23        0.570   0.015   0.000   0.585
   24        0.567   0.016   0.000   0.583
   25        0.575   0.015   0.000   0.591
   26        0.572   0.017   0.000   0.588
   27        0.541   0.025   0.000   0.566
   28        0.565   0.016   0.000   0.581
   29        0.613   0.032   0.000   0.645
   30        0.573   0.017   0.000   0.590
   31        0.590   0.030   0.000   0.619
   32        0.569   0.015   0.000   0.584
   33        0.615   0.032   0.000   0.647
   34        0.567   0.015   0.000   0.583
   35        0.570   0.018   0.000   0.588
   36        0.570   0.017   0.000   0.587
   37        0.767   0.899   0.000   1.666
   38        0.740   0.987   0.000   1.727
   39        0.759   0.928   0.000   1.687
   40        0.760   0.958   0.000   1.717
   41        0.873   0.717   0.000   1.590
   42        0.759   0.921   0.000   1.680
   43        0.784   0.898   0.000   1.681
   44        0.805   0.828   0.000   1.633
   45        0.789   0.888   0.000   1.677
   46        0.765   0.917   0.000   1.682
   47        0.754   0.925   0.000   1.680
   48        0.747   0.911   0.000   1.657
   49        0.760   0.947   0.000   1.707
   50        0.775   0.913   0.000   1.689
   51        0.753   0.933   0.000   1.686
   52        0.754   0.962   0.000   1.716
   53        0.803   0.813   0.000   1.616
   54        0.751   0.995   0.000   1.746
   55        0.765   0.907   0.000   1.672
   56        0.758   0.957   0.000   1.715
   57        0.761   0.959   0.000   1.720
   58        0.745   0.933   0.000   1.679
   59        0.787   0.884   0.000   1.672
   60        0.805   0.880   0.000   1.685
   61        0.745   0.952   0.000   1.697
   62        0.736   1.024   0.000   1.760
   63        0.764   0.954   0.000   1.718
   64        0.778   0.907   0.000   1.685
   65        0.797   0.857   0.000   1.654
   66        0.787   0.889   0.000   1.676
   67        0.772   0.884   0.000   1.656
   68        0.749   0.918   0.000   1.667
   69        0.760   0.944   0.000   1.703
   70        0.751   0.930   0.000   1.681
   71        0.752   0.913   0.000   1.665
   72        0.798   0.831   0.000   1.630
   73        0.751   0.979   0.000   1.730
   74        0.759   0.944   0.000   1.703
   75        0.755   0.924   0.000   1.679
   76        0.753   0.976   0.000   1.729
   77        0.732   1.027   0.000   1.759
   78        0.787   0.874   0.000   1.662
   79        0.800   0.861   0.000   1.661
   80        0.757   0.888   0.000   1.645
   81        0.753   0.919   0.000   1.672
   82        0.792   0.882   0.000   1.674
   83        0.752   0.930   0.000   1.682
   84        0.756   0.947   0.000   1.703
   85        0.746   0.897   0.000   1.643
   86        0.807   0.858   0.000   1.664
   87        0.768   0.920   0.000   1.689
   88        0.751   0.941   0.000   1.692
   89        0.746   0.958   0.000   1.704
   90        0.804   0.896   0.000   1.700
   91        0.754   0.916   0.000   1.670
   92        0.832   0.754   0.000   1.586
   93        0.752   0.943   0.000   1.695
   94        0.755   0.927   0.000   1.682
   95        0.765   0.885   0.000   1.650
   96        0.760   0.895   0.000   1.656
   97        0.762   0.957   0.000   1.719
   98        0.768   0.912   0.000   1.680
   99        0.757   0.923   0.000   1.680
  100        0.753   0.953   0.000   1.706
  101        0.759   0.888   0.000   1.647
  102        0.753   0.930   0.000   1.683
  103        0.766   0.915   0.000   1.681
  104        0.812   0.810   0.000   1.622
  105        0.758   0.883   0.000   1.640
  106        0.754   0.941   0.000   1.695
  107        0.762   0.948   0.000   1.710
  108        0.770   0.949   0.000   1.719
  109        0.752   0.952   0.000   1.704
  110        0.750   0.941   0.000   1.692
  111        0.761   0.924   0.000   1.686
  112        0.745   0.944   0.000   1.689
--------------------------------------------------
tot         79.129  70.331   0.000 149.461


 total amount of memory used by VASP MPI-rank0   368607. kBytes
=======================================================================

   base                                    :      30000. kBytes
   nonl-proj                               :      80658. kBytes
   fftplans                                :     108859. kBytes
   grid                                    :      83991. kBytes
   one-center                              :         21. kBytes
   wavefun                                 :      65078. kBytes

  
  
 General timing and accounting informations for this job:
 ========================================================
  
                  Total CPU time used (sec):     6550.608
                            User time (sec):     5830.360
                          System time (sec):      720.249
                         Elapsed time (sec):     6554.961
  
                   Maximum memory used (kb):      638436.
                   Average memory used (kb):          N/A
  
                          Minor page faults:     11391938
                          Major page faults:         1181
                 Voluntary context switches:         3520
