 vasp.6.5.0 16Dec24 (build Jan 20 2025 08:32:48) complex                         
 executed on        HPECrayEX_GCC date 2025.07.28  22:35:58
 running  128 mpi-ranks, with    1 threads/rank, on    1 nodes
 distrk:  each k-point on  128 cores,    1 groups
 distr:  one band on NCORE=  16 cores,    8 groups


--------------------------------------------------------------------------------------------------------


 INCAR:
   SYSTEM = a-Si SPC
   NCORE = 16
   ISTART = 1
   ICHARG = 1
   ISPIN = 1
   ISYM = 1
   EDIFF = 1E-6
   NELM = 150
   EDIFFG = -0.01
   NSW = 0
   ISIF = 2
   IBRION = -1
   PREC = Accurate
   ENCUT = 1200
   KSPACING = 0.23
   KGAMMA = .TRUE.
   METAGGA = SCAN
   LASPH = .TRUE.
   LDIAG = .FALSE.
   LMIXTAU = .TRUE.
   ADDGRID = .TRUE.
   ALGO = Normal
   ISMEAR = 0
   SIGMA = 0.1
   LORBIT = 11
   NEDOS = 2000
   LWAVE = .FALSE.
   LCHARG = .FALSE.

 POTCAR:    PAW_PBE H 15Jun2001                   
 POTCAR:    PAW_PBE Si 05Jan2001                  
 POTCAR:    PAW_PBE H 15Jun2001                   
   SHA256 =  030f79b5d3ab3cf0e668861823c8fb652ff669f3e15e46930bd03bfd63a607b6 H/POTCAR              
   COPYR  = (c) Copyright 15Jun2001 Georg Kresse                                                    
   COPYR  = This file is part of the software VASP. Any use, copying, and all other rights are regul
   COPYR  = If you do not have a valid VASP license, you may not use, copy or distribute this file. 
   VRHFIN =H: ultrasoft test                                                                        
   LEXCH  = PE                                                                                      
   EATOM  =    12.4884 eV,    0.9179 Ry                                                             
                                                                                                    
   TITEL  = PAW_PBE H 15Jun2001                                                                     
   LULTRA =        F    use ultrasoft PP ?                                                          
   IUNSCR =        0    unscreen: 0-lin 1-nonlin 2-no                                               
   RPACOR =    0.000    partial core radius                                                         
   POMASS =    1.000; ZVAL   =    1.000    mass and valenz                                          
   RCORE  =    1.100    outmost cutoff radius                                                       
   RWIGS  =    0.700; RWIGS  =    0.370    wigner-seitz radius (au A)                               
   ENMAX  =  250.000; ENMIN  =  200.000 eV                                                          
   RCLOC  =    0.701    cutoff for local pot                                                        
   LCOR   =        T    correct aug charges                                                         
   LPAW   =        T    paw PP                                                                      
   EAUG   =  400.000                                                                                
   RMAX   =    1.123    core radius for proj-oper                                                   
   RAUG   =    1.200    factor for augmentation sphere                                              
   RDEP   =    1.112    radius for radial grids                                                     
   RDEPT  =    0.926    core radius for aug-charge                                                  
                                                                                                    
   Atomic configuration                                                                             
    2 entries                                                                                       
     n  l   j            E        occ.                                                              
     1  0  0.50        -6.4927   1.0000                                                             
     2  1  0.50        -3.4015   0.0000                                                             
   Description                                                                                      
     l       E           TYP  RCUT    TYP  RCUT                                                     
     0     -6.4927494     23  1.100                                                                 
     0      6.8029130     23  1.100                                                                 
     1     -4.0817478     23  1.100                                                                 
  local pseudopotential read in
  atomic valenz-charges read in
  non local Contribution for L=           0  read in
    real space projection operators read in
  non local Contribution for L=           0  read in
    real space projection operators read in
  non local Contribution for L=           1  read in
    real space projection operators read in
    PAW grid and wavefunctions read in

   number of l-projection  operators is LMAX  =           3
   number of lm-projection operators is LMMAX =           5

 POTCAR:    PAW_PBE Si 05Jan2001                  
   SHA256 =  79d9987ad8750f624c4d6acb2a16d13abf6a777132adc04dc6c8399be72b42bb Si/POTCAR             
   COPYR  = (c) Copyright 05Jan2001 Georg Kresse                                                    
   COPYR  = This file is part of the software VASP. Any use, copying, and all other rights are regul
   COPYR  = If you do not have a valid VASP license, you may not use, copy or distribute this file. 
   VRHFIN =Si: s2p2                                                                                 
   LEXCH  = PE                                                                                      
   EATOM  =   103.0669 eV,    7.5752 Ry                                                             
                                                                                                    
   TITEL  = PAW_PBE Si 05Jan2001                                                                    
   LULTRA =        F    use ultrasoft PP ?                                                          
   IUNSCR =        1    unscreen: 0-lin 1-nonlin 2-no                                               
   RPACOR =    1.500    partial core radius                                                         
   POMASS =   28.085; ZVAL   =    4.000    mass and valenz                                          
   RCORE  =    1.900    outmost cutoff radius                                                       
   RWIGS  =    2.480; RWIGS  =    1.312    wigner-seitz radius (au A)                               
   ENMAX  =  245.345; ENMIN  =  184.009 eV                                                          
   ICORE  =        2    local potential                                                             
   LCOR   =        T    correct aug charges                                                         
   LPAW   =        T    paw PP                                                                      
   EAUG   =  322.069                                                                                
   DEXC   =    0.000                                                                                
   RMAX   =    1.950    core radius for proj-oper                                                   
   RAUG   =    1.300    factor for augmentation sphere                                              
   RDEP   =    1.993    radius for radial grids                                                     
   RDEPT  =    1.837    core radius for aug-charge                                                  
                                                                                                    
   Atomic configuration                                                                             
    6 entries                                                                                       
     n  l   j            E        occ.                                                              
     1  0  0.50     -1785.8828   2.0000                                                             
     2  0  0.50      -139.4969   2.0000                                                             
     2  1  1.50       -95.5546   6.0000                                                             
     3  0  0.50       -10.8127   2.0000                                                             
     3  1  0.50        -4.0811   2.0000                                                             
     3  2  1.50        -4.0817   0.0000                                                             
   Description                                                                                      
     l       E           TYP  RCUT    TYP  RCUT                                                     
     0    -10.8127223     23  1.900                                                                 
     0     -7.6451159     23  1.900                                                                 
     1     -4.0811372     23  1.900                                                                 
     1      2.4879257     23  1.900                                                                 
     2     -4.0817478      7  1.900                                                                 
  local pseudopotential read in
  partial core-charges read in
  partial kinetic energy density read in
  atomic valenz-charges read in
  non local Contribution for L=           0  read in
    real space projection operators read in
  non local Contribution for L=           0  read in
    real space projection operators read in
  non local Contribution for L=           1  read in
    real space projection operators read in
  non local Contribution for L=           1  read in
    real space projection operators read in
    PAW grid and wavefunctions read in

   number of l-projection  operators is LMAX  =           4
   number of lm-projection operators is LMMAX =           8

 -----------------------------------------------------------------------------
|                                                                             |
|               ----> ADVICE to this user running VASP <----                  |
|                                                                             |
|     You have a (more or less) 'large supercell' and for larger cells it     |
|     might be more efficient to use real-space projection operators.         |
|     Therefore, try LREAL= Auto in the INCAR file.                           |
|     Mind: For very accurate calculation, you might also keep the            |
|     reciprocal projection scheme (i.e. LREAL=.FALSE.).                      |
|                                                                             |
 -----------------------------------------------------------------------------

 -----------------------------------------------------------------------------
|                                                                             |
|               ----> ADVICE to this user running VASP <----                  |
|                                                                             |
|     You enforced a specific xc type in the INCAR file but a different       |
|     type was found in the POTCAR file.                                      |
|     I HOPE YOU KNOW WHAT YOU ARE DOING!                                     |
|                                                                             |
 -----------------------------------------------------------------------------

  PAW_PBE H 15Jun2001                   :
 energy of atom  1       EATOM=  -12.4884
 kinetic energy error for atom=    0.0000 (will be added to EATOM!!)
  PAW_PBE Si 05Jan2001                  :
 energy of atom  2       EATOM= -103.0669
 kinetic energy error for atom=    0.0001 (will be added to EATOM!!)


 POSCAR:  H Si
  positions in cartesian coordinates
  No initial velocities read in


 exchange-correlation table for SCAN
   RHO(1)=    0.500       N(1)  =     2000
   RHO(2)=  100.500       N(2)  =     4000



--------------------------------------------------------------------------------------------------------


 ion  position               nearest neighbor table
   1  0.635  0.199  0.353-  67 1.49
   2  0.949  0.473  0.567-  45 1.61  39 1.70
   3  0.963  0.250  0.458-  65 1.51
   4  0.508  0.460  0.526-  24 1.52
   5  0.058  0.337  0.393-  66 1.50
   6  0.590  0.336  0.480-  27 1.49
   7  0.069  0.573  0.334-  16 1.48
   8  0.596  0.542  0.471-  19 1.50
   9  0.446  0.713  0.364-  75 1.48
  10  0.465  0.434  0.356-  62 1.48
  11  0.411  0.131  0.648-  86 1.49
  12  0.287  0.704  0.621-  21 2.27  93 2.29  26 2.33
  13  0.342  0.509  0.440-  20 2.39  33 2.41  62 2.43  29 2.43
  14  0.877  0.899  0.517-  95 2.31  69 2.33  50 2.36  78 2.37
  15  0.136  0.918  0.466-  35 2.26  61 2.31  40 2.33  31 2.33  56 3.04
  16  0.146  0.522  0.356-   7 1.48  29 2.26  66 2.30
  17  0.686  0.539  0.563-  76 2.34  77 2.40  71 2.41  24 2.43
  18  0.737  0.157  0.527-  74 2.33  84 2.33 100 2.34  32 2.46
  19  0.619  0.524  0.420-   8 1.50  43 2.34  62 2.34  30 2.37
  20  0.334  0.612  0.506-  21 2.34  64 2.35  13 2.39  72 2.43
  21  0.302  0.567  0.583-  12 2.27  48 2.31  23 2.33  20 2.34
  22  0.281  0.057  0.566-  70 2.31  92 2.32  86 2.33  51 2.40
  23  0.153  0.512  0.572-  63 2.32  47 2.33  21 2.33  44 2.38
  24  0.543  0.457  0.576-   4 1.52  87 2.30  48 2.35  17 2.43
  25  0.537  0.859  0.622-  73 2.27  26 2.33  80 2.36
  26  0.402  0.797  0.590-  12 2.33  25 2.33  92 2.36  64 2.39
  27  0.539  0.303  0.437-   6 1.49  83 2.35  62 2.37  67 2.38
  28  0.908  0.077  0.624-  59 2.33  74 2.33  37 2.34  99 2.39
  29  0.262  0.607  0.385-  16 2.26  56 2.37  13 2.43
  30  0.761  0.447  0.432-  98 2.33  38 2.35  71 2.36  19 2.37
  31  0.267  0.892  0.420-  41 2.32  15 2.33  96 2.35  56 2.38
  32  0.710  0.108  0.445-  79 2.32  67 2.35  82 2.38  18 2.46
  33  0.236  0.386  0.458-  66 2.36  47 2.36  60 2.37  13 2.41
  34  0.073  0.851  0.602-  69 2.31  93 2.36  40 2.38  37 2.38
  35  0.090  0.066  0.469-  15 2.26  95 2.31  51 2.33  91 2.35
  36  0.960  0.962  0.380-  61 2.45  82 2.47  90 2.52  91 2.65  50 3.06
  37  0.051  0.004  0.631-  70 2.30  28 2.34  34 2.38
  38  0.867  0.568  0.423-  88 2.30  30 2.35  42 2.40  52 2.49
  39  0.917  0.486  0.624-   2 1.70  77 2.30  63 2.44  55 2.45  45 3.12
  40  0.169  0.838  0.535-  92 2.31  15 2.33  72 2.38  34 2.38
  41  0.382  0.920  0.475-  89 2.29  31 2.32  92 2.33  68 2.34  96 3.12
  42  0.999  0.501  0.460-  66 2.33  44 2.37  45 2.39  38 2.40
  43  0.654  0.673  0.396-  57 2.33  75 2.33  19 2.34  52 2.39
  44  0.072  0.599  0.515-  42 2.37  72 2.37  23 2.38  46 2.44
  45  0.926  0.414  0.521-   2 1.61  71 2.35  54 2.37  42 2.39  39 3.12
  46  0.931  0.660  0.549-  69 2.32  88 2.33  77 2.42  44 2.44
  47  0.205  0.375  0.539-  23 2.33  81 2.33  97 2.35  33 2.36
  48  0.401  0.463  0.617-  21 2.31  24 2.35  97 2.36
  49  0.206  0.261  0.634-  70 2.33  81 2.43  97 2.49
  50  0.901  0.811  0.448-  88 2.29  90 2.32  61 2.33  14 2.36  36 3.06
  51  0.203  0.148  0.508-  35 2.33  60 2.37  81 2.37  22 2.40  70 3.15
  52  0.807  0.683  0.366-  43 2.39  90 2.42  38 2.49
  53  0.226  0.140  0.384-  96 2.32  60 2.37  91 2.40
  54  0.964  0.276  0.560-  74 2.29  81 2.33  45 2.37  99 2.49  55 2.56
  55  0.844  0.334  0.618-  99 2.30  39 2.45  84 2.46  54 2.56
  56  0.194  0.746  0.412-  29 2.37  72 2.38  31 2.38  61 2.52  15 3.04
  57  0.695  0.730  0.470-  88 2.33  43 2.33  76 2.33  94 2.34
  58  0.803  0.755  0.629-  80 2.35  77 2.36  69 2.39
  59  0.774  0.001  0.645-  28 2.33 100 2.35
  60  0.279  0.230  0.448-  83 2.36  53 2.37  51 2.37  33 2.37
  61  0.045  0.835  0.415-  15 2.31  50 2.33  36 2.45  56 2.52
  62  0.481  0.444  0.407-  10 1.48  19 2.34  27 2.37  13 2.43
  63  0.062  0.569  0.633-  23 2.32  93 2.42  39 2.44
  64  0.460  0.705  0.526-  89 2.31  20 2.35  76 2.36  26 2.39
  65  0.934  0.215  0.411-   3 1.51  82 2.36  98 2.45  91 2.50
  66  0.103  0.420  0.414-   5 1.50  16 2.30  42 2.33  33 2.36
  67  0.668  0.235  0.399-   1 1.49  98 2.32  32 2.35  27 2.38
  68  0.451  0.047  0.439-  41 2.34  79 2.39  83 2.40  96 2.44
  69  0.926  0.808  0.580-  34 2.31  46 2.32  14 2.33  58 2.39
  70  0.166  0.109  0.616-  37 2.30  22 2.31  49 2.33  81 2.60  51 3.15
  71  0.765  0.430  0.514-  84 2.34  45 2.35  30 2.36  17 2.41
  72  0.194  0.699  0.492-  44 2.37  40 2.38  56 2.38  20 2.43
  73  0.535  0.999  0.587-  25 2.27 100 2.29  86 2.29
  74  0.890  0.139  0.549-  95 2.24  54 2.29  18 2.33  28 2.33
  75  0.521  0.762  0.390-   9 1.48  89 2.33  43 2.33
  76  0.619  0.675  0.536-  57 2.33  17 2.34  64 2.36  80 2.37
  77  0.817  0.602  0.603-  39 2.30  58 2.36  17 2.40  46 2.42
  78  0.720  0.914  0.539-  94 2.31 100 2.32  80 2.34  14 2.37
  79  0.604  0.998  0.421-  94 2.30  32 2.32  68 2.39
  80  0.669  0.794  0.587-  78 2.34  58 2.35  25 2.36  76 2.37
  81  0.122  0.245  0.561-  47 2.33  54 2.33  51 2.37  49 2.43  70 2.60
  82  0.865  0.071  0.426-  95 2.32  65 2.36  32 2.38  36 2.47  91 3.12
  83  0.433  0.199  0.470-  27 2.35  60 2.36  68 2.40  85 2.45
  84  0.722  0.303  0.560-  87 2.30  18 2.33  71 2.34  55 2.46
  85  0.450  0.236  0.553-  86 2.31  87 2.35  97 2.39  83 2.45
  86  0.421  0.106  0.597-  11 1.49  73 2.29  85 2.31  22 2.33
  87  0.576  0.305  0.591-  24 2.30  84 2.30  85 2.35
  88  0.845  0.677  0.480-  50 2.29  38 2.30  46 2.33  57 2.33
  89  0.491  0.808  0.466-  41 2.29  64 2.31  75 2.33  94 2.34
  90  0.831  0.846  0.377-  50 2.32  52 2.42  36 2.52
  91  0.064  0.110  0.390-  35 2.35  53 2.40  65 2.50  36 2.65  82 3.12
  92  0.311  0.904  0.548-  40 2.31  22 2.32  41 2.33  26 2.36
  93  0.134  0.719  0.638-  12 2.29  34 2.36  63 2.42
  94  0.635  0.879  0.472-  79 2.30  78 2.31  89 2.34  57 2.34
  95  0.942  0.038  0.495-  74 2.24  14 2.31  35 2.31  82 2.32
  96  0.330  0.019  0.381-  53 2.32  31 2.35  68 2.44  41 3.12
  97  0.331  0.330  0.586-  47 2.35  48 2.36  85 2.39  49 2.49
  98  0.804  0.315  0.390-  67 2.32  30 2.33  65 2.45
  99  0.951  0.230  0.644-  55 2.30  28 2.39  54 2.49
 100  0.684  0.046  0.580-  73 2.29  78 2.32  18 2.34  59 2.35

  LATTYP: Found a simple tetragonal cell.
 ALAT       =    14.5422910267
 C/A-ratio  =     1.9536384706
  
  Lattice vectors:
  
 A1 = (  14.5422910267,   0.0000000000,   0.0000000000)
 A2 = (   0.0000000000,  14.5422910267,   0.0000000000)
 A3 = (   0.0000000000,   0.0000000000,  28.4103792000)


Analysis of symmetry for initial positions (statically):
=====================================================================
 Subroutine PRICEL returns:
 Original cell was already a primitive cell.
 

 Routine SETGRP: Setting up the symmetry group for a 
 simple tetragonal supercell.


 Subroutine GETGRP returns: Found  1 space group operations
 (whereof  1 operations were pure point group operations)
 out of a pool of 16 trial point group operations.


The static configuration has the point symmetry C_1 .


Analysis of symmetry for dynamics (positions and initial velocities):
=====================================================================
 Subroutine PRICEL returns:
 Original cell was already a primitive cell.
 

 Routine SETGRP: Setting up the symmetry group for a 
 simple tetragonal supercell.


 Subroutine GETGRP returns: Found  1 space group operations
 (whereof  1 operations were pure point group operations)
 out of a pool of 16 trial point group operations.


The dynamic configuration has the point symmetry C_1 .


 Subroutine INISYM returns: Found  1 space group operations
 (whereof  1 operations are pure point group operations),
 and found     1 'primitive' translations


----------------------------------------------------------------------------------------

                                     Primitive cell                                     

  volume of cell :    6008.1767

  direct lattice vectors                    reciprocal lattice vectors
    14.542291027  0.000000000  0.000000000     0.068764956  0.000000000  0.000000000
     0.000000000 14.542291027  0.000000000     0.000000000  0.068764956  0.000000000
     0.000000000  0.000000000 28.410379200     0.000000000  0.000000000  0.035198404

  length of vectors
    14.542291027 14.542291027 28.410379200     0.068764956  0.068764956  0.035198404

  position of ions in fractional coordinates (direct lattice)
     0.635010541  0.198521090  0.353187754
     0.949456819  0.472875525  0.567129995
     0.963377610  0.249855068  0.458411790
     0.507594675  0.459579253  0.525939197
     0.057645530  0.336674543  0.392519724
     0.590243411  0.335558951  0.479549887
     0.068763300  0.572689271  0.333904361
     0.596126494  0.542440468  0.470536514
     0.446350051  0.713196939  0.364251790
     0.465498569  0.434177496  0.355892604
     0.411372125  0.130630312  0.647914684
     0.287447107  0.704022615  0.621291172
     0.342215016  0.508755622  0.440416890
     0.877072130  0.898938649  0.516963044
     0.135991336  0.917590773  0.466162504
     0.145895217  0.521517970  0.355876358
     0.685732232  0.539290583  0.563146067
     0.736857615  0.156779042  0.527045463
     0.618810789  0.523617598  0.419956987
     0.334428646  0.612256207  0.505665043
     0.301546307  0.567409346  0.583129436
     0.280851291  0.056755856  0.566452462
     0.152622830  0.512166947  0.572435337
     0.542616413  0.456875412  0.576260872
     0.536518008  0.858816072  0.621966206
     0.402438017  0.797143080  0.589625650
     0.538707577  0.303049234  0.437189631
     0.908463834  0.076742719  0.623744470
     0.262062391  0.607497035  0.385139823
     0.760991179  0.446821440  0.431592982
     0.266632616  0.892318177  0.420475588
     0.710092613  0.107856360  0.445468783
     0.236048298  0.385946329  0.457946033
     0.072606991  0.851486079  0.602267101
     0.089830664  0.065748982  0.468809529
     0.959661012  0.962312816  0.379679505
     0.051431406  0.003914369  0.630622660
     0.866620074  0.567836704  0.422907182
     0.917261766  0.486001591  0.624314311
     0.169287976  0.837632464  0.535113004
     0.381806001  0.920286939  0.475037179
     0.998703613  0.500921655  0.460100377
     0.654207531  0.673056278  0.395776531
     0.072370852  0.599335957  0.514613169
     0.925776077  0.414171887  0.520808352
     0.931155868  0.660086207  0.548834424
     0.204604612  0.375244074  0.539382465
     0.401461066  0.462547177  0.616672002
     0.205671345  0.260665798  0.634113109
     0.901397060  0.810681608  0.448378450
     0.203446505  0.147766825  0.508366998
     0.807404619  0.682877732  0.365729749
     0.226034583  0.140115478  0.383937886
     0.964229826  0.275668454  0.560096837
     0.844011375  0.334463361  0.618371897
     0.194359824  0.746446321  0.412130930
     0.695324499  0.729523265  0.469527093
     0.803323214  0.755269549  0.628782020
     0.774176417  0.000585229  0.645180059
     0.279336440  0.229834788  0.447820376
     0.045300452  0.834792716  0.414846822
     0.481280537  0.443735010  0.407072076
     0.062131728  0.568846492  0.633239579
     0.459877093  0.705333554  0.526484815
     0.933867401  0.214904036  0.410770661
     0.102596448  0.419535485  0.413711953
     0.667590483  0.234699712  0.399263026
     0.451433329  0.046995650  0.438738017
     0.926107740  0.807562807  0.579696960
     0.166271648  0.109226115  0.615751036
     0.765281787  0.429503335  0.514297115
     0.193886829  0.699304692  0.492306824
     0.535004022  0.999384610  0.587345719
     0.890155950  0.138719184  0.548647738
     0.521141545  0.761850613  0.389572709
     0.618596542  0.675243106  0.536012012
     0.817306602  0.601636059  0.603067978
     0.720225523  0.913752921  0.538638349
     0.604424447  0.997981080  0.421417212
     0.668969315  0.793874231  0.586999609
     0.121623520  0.244772266  0.560771407
     0.864910861  0.070826634  0.425716297
     0.432846366  0.199178725  0.469806033
     0.722412231  0.302806948  0.560257860
     0.449892919  0.236136264  0.553328527
     0.420780790  0.105672255  0.597256274
     0.576058611  0.305324540  0.590921394
     0.845198219  0.677310955  0.480275433
     0.490779083  0.808124124  0.466484529
     0.830833337  0.845991265  0.377464120
     0.063983224  0.110192308  0.390238484
     0.311406644  0.904257503  0.548336655
     0.134111957  0.718710875  0.638376049
     0.634934811  0.878788053  0.472345998
     0.941977213  0.037728886  0.495290440
     0.329834575  0.019435537  0.381165262
     0.330547784  0.329717035  0.585742408
     0.804196306  0.315142491  0.390220136
     0.951345538  0.229961482  0.644255412
     0.684488626  0.045942766  0.580343834

  ion indices of the primitive-cell ions
   primitive index   ion index
                 1           1
                 2           2
                 3           3
                 4           4
                 5           5
                 6           6
                 7           7
                 8           8
                 9           9
                10          10
                11          11
                12          12
                13          13
                14          14
                15          15
                16          16
                17          17
                18          18
                19          19
                20          20
                21          21
                22          22
                23          23
                24          24
                25          25
                26          26
                27          27
                28          28
                29          29
                30          30
                31          31
                32          32
                33          33
                34          34
                35          35
                36          36
                37          37
                38          38
                39          39
                40          40
                41          41
                42          42
                43          43
                44          44
                45          45
                46          46
                47          47
                48          48
                49          49
                50          50
                51          51
                52          52
                53          53
                54          54
                55          55
                56          56
                57          57
                58          58
                59          59
                60          60
                61          61
                62          62
                63          63
                64          64
                65          65
                66          66
                67          67
                68          68
                69          69
                70          70
                71          71
                72          72
                73          73
                74          74
                75          75
                76          76
                77          77
                78          78
                79          79
                80          80
                81          81
                82          82
                83          83
                84          84
                85          85
                86          86
                87          87
                88          88
                89          89
                90          90
                91          91
                92          92
                93          93
                94          94
                95          95
                96          96
                97          97
                98          98
                99          99
               100         100

----------------------------------------------------------------------------------------


 -----------------------------------------------------------------------------
|                                                                             |
|           W    W    AA    RRRRR   N    N  II  N    N   GGGG   !!!           |
|           W    W   A  A   R    R  NN   N  II  NN   N  G    G  !!!           |
|           W    W  A    A  R    R  N N  N  II  N N  N  G       !!!           |
|           W WW W  AAAAAA  RRRRR   N  N N  II  N  N N  G  GGG   !            |
|           WW  WW  A    A  R   R   N   NN  II  N   NN  G    G                |
|           W    W  A    A  R    R  N    N  II  N    N   GGGG   !!!           |
|                                                                             |
|     The requested file  could not be found or opened for reading            |
|     k-point information. Automatic k-point generation is used as a          |
|     fallback, which may lead to unwanted results.                           |
|                                                                             |
 -----------------------------------------------------------------------------



Automatic generation of k-mesh.
 Grid dimensions derived from KSPACING:
 generate k-points for:    2    2    1

 Generating k-lattice:

  Cartesian coordinates                     Fractional coordinates (reciprocal lattice)
     0.034382478  0.000000000  0.000000000     0.500000000  0.000000000  0.000000000
     0.000000000  0.034382478  0.000000000     0.000000000  0.500000000  0.000000000
     0.000000000  0.000000000  0.035198404     0.000000000  0.000000000  1.000000000

  Length of vectors
     0.034382478  0.034382478  0.035198404

  Shift w.r.t. Gamma in fractional coordinates (k-lattice)
     0.000000000  0.000000000  0.000000000

 
 Subroutine IBZKPT returns following result:
 ===========================================
 
 Found      4 irreducible k-points:
 
 Following reciprocal coordinates:
            Coordinates               Weight
  0.000000  0.000000  0.000000      1.000000
  0.500000  0.000000  0.000000      1.000000
  0.000000  0.500000  0.000000      1.000000
  0.500000  0.500000  0.000000      1.000000
 
 Following cartesian coordinates:
            Coordinates               Weight
  0.000000  0.000000  0.000000      1.000000
  0.034382  0.000000  0.000000      1.000000
  0.000000  0.034382  0.000000      1.000000
  0.034382  0.034382  0.000000      1.000000
 


--------------------------------------------------------------------------------------------------------




 Dimension of arrays:
   k-points           NKPTS =      4   k-points in BZ     NKDIM =      4   number of bands    NBANDS=    240
   number of dos      NEDOS =   2000   number of ions     NIONS =    100
   non local maximal  LDIM  =      4   non local SUM 2l+1 LMDIM =      8
   total plane-waves  NPLWV = ******
   max r-space proj   IRMAX =      1   max aug-charges    IRDMAX= 407261
   dimension x,y,z NGX =   168 NGY =  168 NGZ =  324
   dimension x,y,z NGXF=   336 NGYF=  336 NGZF=  648
   support grid    NGXF=   672 NGYF=  672 NGZF= 1296
   ions per type =              11  89
   NGX,Y,Z   is equivalent  to a cutoff of  19.21, 19.21, 18.96 a.u.
   NGXF,Y,Z  is equivalent  to a cutoff of  38.41, 38.41, 37.92 a.u.

 SYSTEM =  a-Si SPC                                
 POSCAR =   H Si                                   

 Startparameter for this run:
   NWRITE =      2    write-flag & timer
   PREC   = accura    normal or accurate (medium, high low for compatibility)
   ISTART =      1    job   : 0-new  1-cont  2-samecut
   ICHARG =      1    charge: 1-file 2-atom 10-const
   ISPIN  =      1    spin polarized calculation?
   LNONCOLLINEAR =      F non collinear calculations
   LSORBIT =      F    spin-orbit coupling
   INIWAV =      1    electr: 0-lowe 1-rand  2-diag
   LASPH  =      T    aspherical Exc in radial PAW
 Electronic Relaxation 1
   ENCUT  = 1200.0 eV  88.20 Ry    9.39 a.u.  41.08 41.08 80.25*2*pi/ulx,y,z
   ENINI  = 1200.0     initial cutoff
   ENAUG  =  400.0 eV  augmentation charge cutoff
   NELM   =    150;   NELMIN=  2; NELMDL=  0     # of ELM steps 
   EDIFF  = 0.1E-05   stopping-criterion for ELM
   LREAL  =      F    real-space projection
   NLSPLINE    = F    spline interpolate recip. space projectors
   LCOMPAT=      F    compatible to vasp.4.4
   GGA_COMPAT  = T    GGA compatible to vasp.4.4-vasp.4.6
   LMAXPAW     = -100 max onsite density
   LMAXMIX     =    2 max onsite mixed and CHGCAR
   VOSKOWN=      0    Vosko Wilk Nusair interpolation
   ROPT   =    0.00000   0.00000
 Ionic relaxation
   EDIFFG = -.1E-01   stopping-criterion for IOM
   NSW    =      0    number of steps for IOM
   NBLOCK =      1;   KBLOCK =      1    inner block; outer block 
   IBRION =     -1    ionic relax: 0-MD 1-quasi-New 2-CG
   NFREE  =      0    steps in history (QN), initial steepest desc. (CG)
   ISIF   =      2    stress and relaxation
   IWAVPR =     10    prediction:  0-non 1-charg 2-wave 3-comb
   ISYM   =      1    0-nonsym 1-usesym 2-fastsym
   LCORR  =      T    Harris-Foulkes like correction to forces

   POTIM  = 0.5000    time-step for ionic-motion
   TEIN   =    0.0    initial temperature
   TEBEG  =    0.0;   TEEND  =   0.0 temperature during run
   SMASS  =  -3.00    Nose mass-parameter (am)
   estimated Nose-frequenzy (Omega)   =  0.10E-29 period in steps = 0.13E+47 mass=  -0.483E-26a.u.
   SCALEE = 1.0000    scale energy and forces
   NPACO  =    256;   APACO  = 10.0  distance and # of slots for P.C.
   PSTRESS=    0.0 pullay stress

  Mass of Ions in am
   POMASS =   1.00 28.09
  Ionic Valenz
   ZVAL   =   1.00  4.00
  Atomic Wigner-Seitz radii
   RWIGS  =  -1.00 -1.00
  virtual crystal weights 
   VCA    =   1.00  1.00
   NELECT =     367.0000    total number of electrons
   NUPDOWN=      -1.0000    fix difference up-down

 DOS related values:
   EMIN   =  10.00;   EMAX   =-10.00  energy-range for DOS
   EFERMI =   0.00;   METHOD = LEGACY      
   ISMEAR =     0;   SIGMA  =   0.10  broadening in eV -4-tet -1-fermi 0-gaus
   EFERMI_NEDOS =   21; number of points for ismear=-14 and -15

 Electronic relaxation 2 (details)
   IALGO  =     38    algorithm
   LDIAG  =      F    sub-space diagonalisation (order eigenvalues)
   LSUBROT=      F    optimize rotation matrix (better conditioning)
   TURBO    =      0    0=normal 1=particle mesh
   IRESTART =      0    0=no restart 2=restart with 2 vectors
   NREBOOT  =      0    no. of reboots
   NMIN     =      0    reboot dimension
   EREF     =   0.00    reference energy to select bands
   IMIX   =      4    mixing-type and parameters
     AMIX     =   0.40;   BMIX     =  1.00
     AMIX_MAG =   1.60;   BMIX_MAG =  1.00
     AMIN     =   0.10
     WC   =   100.;   INIMIX=   1;  MIXPRE=   1;  MAXMIX= -45

 Intra band minimization:
   WEIMIN = 0.0000     energy-eigenvalue tresh-hold
   EBREAK =  0.10E-08  absolut break condition
   DEPER  =   0.30     relativ break condition  

   TIME   =   0.40     timestep for ELM

  volume/ion in A,a.u.               =      60.08       405.45
  Fermi-wavevector in a.u.,A,eV,Ry     =   0.644737  1.218376  5.655749  0.415686
  Thomas-Fermi vector in A             =   1.712163

 Write flags
   LWAVE        =      F    write WAVECAR
   LDOWNSAMPLE  =      F    k-point downsampling of WAVECAR
   LCHARG       =      F    write CHGCAR
   LVTOT        =      F    write LOCPOT, total local potential
   LVHAR        =      F    write LOCPOT, Hartree potential only
   WRT_POTENTIAL= false  ! write potential to hdf5 file
   LELF         =      F    write electronic localiz. function (ELF)
   LORBIT       =     11    0 simple, 1 ext, 2 COOP (PROOUT), +10 PAW based schemes


 Python interface
   PLUGINS active      =      F    recompile with -DPLUGINS to activate

 Dipole corrections
   LMONO      =      F    monopole corrections only (constant potential shift)
   LDIPOL     =      F    correct potential (dipole corrections)
   IDIPOL     =      0    1-x, 2-y, 3-z, 4-all directions 
   EPSILON    =  1.0000000 bulk dielectric constant
   LVACPOTAV  =      F  vacuum potentials using an averaging scheme for the charge density
   VACPOTFLAT =  0.1000000 required flatness to determine vacuum potential

Coulomb truncation method
  LTRUNCATE          =      F  Coulomb kernel truncation to be used
  IDIMENSIONALITY    =      3  Dimensionality of cutoff (0 molecules / 2 surfaces)
  ISURFACE           =     -1  Direction of surface normal
  LCOARSEN           =      F  Coarsen the charge grid before padding, preferred


 Exchange correlation treatment:
   METAGGA = SCAN    functional components
   XC_C    = 1    coefficients multiplying the functional components
   LIBXC   =     F    Libxc                    
   VOSKOWN =     0    Vosko Wilk Nusair interpolation
   LHFCALC =     F    Hartree Fock is set to
   LHFONE  =     F    Hartree Fock one center treatment
   AEXX    =    0.0000 exact exchange contribution

 Parameters of functionals:
   SCAN:
     P1 =  0.000000E+00
     P2 =  0.000000E+00
     P3 =  0.000000E+00

 Accuracy and mixing parameters for tau-dependent meta-GGA functionals:
   LMAXTAU = 6
   LMIXTAU = T

 Van der Waals corrections
   IVDW    =     0    specifies the selected vdW correction

 Linear response parameters
   LEPSILON=     F    determine dielectric tensor
   LRPA    =     F    only Hartree local field effects (RPA)
   LNABLA  =     F    use nabla operator in PAW spheres
   LVEL    =     F    velocity operator in full k-point grid
   CSHIFT  =0.1000    complex shift for real part using Kramers Kronig
   OMEGAMAX=  -1.0    maximum frequency
   DEG_THRESHOLD= 0.2000000E-02 threshold for treating states as degnerate
   RTIME   =   -0.100 relaxation time in fs
  (WPLASMAI=    0.000 imaginary part of plasma frequency in eV, 0.658/RTIME)
   DFIELD  = 0.0000000 0.0000000 0.0000000 field for delta impulse in time

  Optional k-point grid parameters
   LKPOINTS_OPT  =     F    use optional k-point grid
   KPOINTS_OPT_MODE=     1    mode for optional k-point grid

 Orbital magnetization related:
   ORBITALMAG=     F  switch on orbital magnetization
   LCHIMAG   =     F  perturbation theory with respect to B field
   DQ        =  0.001000  dq finite difference perturbation B field
   LLRAUG    =     F  two centre corrections for induced B field
   LBONE     =     F  B-component reconstruction in AE one-centre
   LVGVCALC  =     T  calculate vGv susceptibility
   LVGVAPPL  =     F  apply vGv susceptibility instead of pGv for G=0

 Random number generation:
   RANDOM_GENERATOR = DEFAULT
   PCG_SEED         = not used


--------------------------------------------------------------------------------------------------------


 Static calculation
 charge density and potential will be updated during run
 non-spin polarized calculation
 Variant of blocked Davidson
 perform Loewdin sub-space diagonalisation
    ordering is kept fixed
    before iterative eigenvector-optimisation
 modified Broyden-mixing scheme, WC =      100.0
 initial mixing is a Kerker type mixing with AMIX =  0.4000 and BMIX =      1.0000
 Hartree-type preconditioning will be used
 using additional bands           56
 reciprocal scheme for non local part
 use partial core corrections
 calculate Harris-corrections to forces   (improved forces if not selfconsistent)
 use gradient corrections 
 use of overlap-Matrix (Vanderbilt PP)
 Gauss-broadening in eV      SIGMA  =   0.10


--------------------------------------------------------------------------------------------------------


  energy-cutoff  :     1200.00
  volume of cell :     6008.18
      direct lattice vectors                 reciprocal lattice vectors
    14.542291027  0.000000000  0.000000000     0.068764956  0.000000000  0.000000000
     0.000000000 14.542291027  0.000000000     0.000000000  0.068764956  0.000000000
     0.000000000  0.000000000 28.410379200     0.000000000  0.000000000  0.035198404

  length of vectors
    14.542291027 14.542291027 28.410379200     0.068764956  0.068764956  0.035198404



 old parameters found on file WAVECAR:
  energy-cutoff  :     1200.00
  volume of cell :     6008.18
      direct lattice vectors                 reciprocal lattice vectors
    14.542291027  0.000000000  0.000000000     0.068764956  0.000000000  0.000000000
     0.000000000 14.542291027  0.000000000     0.000000000  0.068764956  0.000000000
     0.000000000  0.000000000 28.410379200     0.000000000  0.000000000  0.035198404

  length of vectors


 k-points in units of 2pi/SCALE and weight: read from INCAR                         
   0.00000000  0.00000000  0.00000000       0.250
   0.03438248  0.00000000  0.00000000       0.250
   0.00000000  0.03438248  0.00000000       0.250
   0.03438248  0.03438248  0.00000000       0.250

 k-points in reciprocal lattice and weights: read from INCAR                         
   0.00000000  0.00000000  0.00000000       0.250
   0.50000000  0.00000000  0.00000000       0.250
   0.00000000  0.50000000  0.00000000       0.250
   0.50000000  0.50000000  0.00000000       0.250

 position of ions in fractional coordinates (direct lattice) 
   0.63501054  0.19852109  0.35318775
   0.94945682  0.47287552  0.56712999
   0.96337761  0.24985507  0.45841179
   0.50759468  0.45957925  0.52593920
   0.05764553  0.33667454  0.39251972
   0.59024341  0.33555895  0.47954989
   0.06876330  0.57268927  0.33390436
   0.59612649  0.54244047  0.47053651
   0.44635005  0.71319694  0.36425179
   0.46549857  0.43417750  0.35589260
   0.41137212  0.13063031  0.64791468
   0.28744711  0.70402261  0.62129117
   0.34221502  0.50875562  0.44041689
   0.87707213  0.89893865  0.51696304
   0.13599134  0.91759077  0.46616250
   0.14589522  0.52151797  0.35587636
   0.68573223  0.53929058  0.56314607
   0.73685761  0.15677904  0.52704546
   0.61881079  0.52361760  0.41995699
   0.33442865  0.61225621  0.50566504
   0.30154631  0.56740935  0.58312944
   0.28085129  0.05675586  0.56645246
   0.15262283  0.51216695  0.57243534
   0.54261641  0.45687541  0.57626087
   0.53651801  0.85881607  0.62196621
   0.40243802  0.79714308  0.58962565
   0.53870758  0.30304923  0.43718963
   0.90846383  0.07674272  0.62374447
   0.26206239  0.60749703  0.38513982
   0.76099118  0.44682144  0.43159298
   0.26663262  0.89231818  0.42047559
   0.71009261  0.10785636  0.44546878
   0.23604830  0.38594633  0.45794603
   0.07260699  0.85148608  0.60226710
   0.08983066  0.06574898  0.46880953
   0.95966101  0.96231282  0.37967951
   0.05143141  0.00391437  0.63062266
   0.86662007  0.56783670  0.42290718
   0.91726177  0.48600159  0.62431431
   0.16928798  0.83763246  0.53511300
   0.38180600  0.92028694  0.47503718
   0.99870361  0.50092166  0.46010038
   0.65420753  0.67305628  0.39577653
   0.07237085  0.59933596  0.51461317
   0.92577608  0.41417189  0.52080835
   0.93115587  0.66008621  0.54883442
   0.20460461  0.37524407  0.53938246
   0.40146107  0.46254718  0.61667200
   0.20567135  0.26066580  0.63411311
   0.90139706  0.81068161  0.44837845
   0.20344650  0.14776682  0.50836700
   0.80740462  0.68287773  0.36572975
   0.22603458  0.14011548  0.38393789
   0.96422983  0.27566845  0.56009684
   0.84401137  0.33446336  0.61837190
   0.19435982  0.74644632  0.41213093
   0.69532450  0.72952326  0.46952709
   0.80332321  0.75526955  0.62878202
   0.77417642  0.00058523  0.64518006
   0.27933644  0.22983479  0.44782038
   0.04530045  0.83479272  0.41484682
   0.48128054  0.44373501  0.40707208
   0.06213173  0.56884649  0.63323958
   0.45987709  0.70533355  0.52648482
   0.93386740  0.21490404  0.41077066
   0.10259645  0.41953549  0.41371195
   0.66759048  0.23469971  0.39926303
   0.45143333  0.04699565  0.43873802
   0.92610774  0.80756281  0.57969696
   0.16627165  0.10922611  0.61575104
   0.76528179  0.42950334  0.51429711
   0.19388683  0.69930469  0.49230682
   0.53500402  0.99938461  0.58734572
   0.89015595  0.13871918  0.54864774
   0.52114155  0.76185061  0.38957271
   0.61859654  0.67524311  0.53601201
   0.81730660  0.60163606  0.60306798
   0.72022552  0.91375292  0.53863835
   0.60442445  0.99798108  0.42141721
   0.66896931  0.79387423  0.58699961
   0.12162352  0.24477227  0.56077141
   0.86491086  0.07082663  0.42571630
   0.43284637  0.19917872  0.46980603
   0.72241223  0.30280695  0.56025786
   0.44989292  0.23613626  0.55332853
   0.42078079  0.10567226  0.59725627
   0.57605861  0.30532454  0.59092139
   0.84519822  0.67731095  0.48027543
   0.49077908  0.80812412  0.46648453
   0.83083334  0.84599126  0.37746412
   0.06398322  0.11019231  0.39023848
   0.31140664  0.90425750  0.54833666
   0.13411196  0.71871088  0.63837605
   0.63493481  0.87878805  0.47234600
   0.94197721  0.03772889  0.49529044
   0.32983457  0.01943554  0.38116526
   0.33054778  0.32971704  0.58574241
   0.80419631  0.31514249  0.39022014
   0.95134554  0.22996148  0.64425541
   0.68448863  0.04594277  0.58034383

 position of ions in cartesian coordinates  (Angst):
   9.23450809  2.88695147 10.03419802
  13.80727738  6.87669350 16.11237821
  14.00971757  3.63346512 13.02365279
   7.38158949  6.68333524 14.94213202
   0.83829807  4.89601918 11.15163421
   8.58349146  4.87979592 13.62419413
   0.99997592  8.32821404  9.48634950
   8.66904497  7.88832715 13.36812080
   6.49095234 10.37151744 10.34853147
   6.76941566  6.31393550 10.11104383
   5.98229316  1.89966401 18.40750185
   4.18013948 10.23810175 17.65111780
   4.97659036  7.39847232 12.51241086
  12.75463817 13.07262745 14.68711610
   1.97762558 13.34387207 13.24385350
   2.12165070  7.58406609 10.11058229
   9.97211768  7.84252060 15.99919330
  10.71559788  2.27992645 14.97356147
   8.99892658  7.61459950 11.93113726
   4.86335870  8.90360794 14.36613561
   4.38517415  8.25143184 16.56692839
   4.08422121  0.82536017 16.09312925
   2.21948561  7.44808080 16.26310499
   7.89088579  6.64401520 16.37178990
   7.80220102 12.48915326 17.67029576
   5.85237077 11.59228666 16.75148829
   7.83404237  4.40703016 12.42072321
  13.21114546  1.11601496 17.72081691
   3.81098755  8.83439868 10.94196842
  11.06655519  6.49780742 12.26172029
   3.87744910 12.97635062 11.94587089
  10.32637343  1.56847857 12.65593705
   3.43268305  5.61254383 13.01042044
   1.05587199 12.38255836 17.11063671
   1.30634366  0.95614083 13.31905650
  13.95566972 13.99423303 10.78683872
   0.74793048  0.05692389 17.91622890
  12.60264132  8.25764660 12.01495342
  13.33908755  7.06757657 17.73700631
   2.46183502 12.18109507 15.20276335
   5.55233398 13.38308049 13.49598638
  14.52343860  7.28454849 13.07162617
   9.51367631  9.78778027 11.24416132
   1.05243799  8.71571791 14.62035526
  13.46290513  6.02300811 14.79636277
  13.54113963  9.59916573 15.59259410
   2.97541982  5.45690853 15.32406036
   5.83816366  6.72649566 17.51988543
   2.99093256  3.79067790 18.01539388
  13.10837838 11.78916788 12.73860178
   2.95857828  2.14886817 14.44289919
  11.74151295  9.93060671 10.39052085
   3.28706069  2.03760006 10.90782092
  14.02211074  4.00885089 15.91256353
  12.27385904  4.86386354 17.56818009
   2.82643713 10.85503963 11.70879599
  10.11161122 10.60893963 13.33944275
  11.68215996 10.98334959 17.86393561
  11.25829876  0.00851057 18.32981014
   4.06219181  3.34232437 12.72274669
   0.65877236 12.13979863 11.78595551
   6.99892163  6.45292366 11.56507205
   0.90353767  8.27233124 17.99057657
   6.68766652 10.25716581 14.95763325
  13.58057152  3.12519704 11.67015025
   1.49198740  6.10100712 11.75371346
   9.70829509  3.41307152 11.34321397
   6.56487485  0.68342442 12.46471344
  13.46772827 11.74381336 16.46941046
   2.41797070  1.58839795 17.49372043
  11.12895046  6.24596250 14.61137605
   2.81955870 10.16949235 13.98662356
   7.78018419 14.53334185 16.68671459
  12.94490689  2.01729474 15.58729028
   7.57859202 11.07905334 11.06790839
   8.99581094  9.81958176 15.22830453
  11.88551046  8.74916666 17.13338995
  10.47372916 13.28806091 15.30291975
   8.78971621 14.51293131 11.97262279
   9.72834646 11.54475011 16.67688149
   1.76868463  3.55954953 15.93172831
  12.57778546  1.02998152 12.09476142
   6.29457782  2.89651498 13.34736754
  10.50552890  4.40350676 15.91713825
   6.54247376  3.43396228 15.72027327
   6.11911670  1.53671669 16.96827721
   8.37721197  4.44011832 16.78830087
  12.29111848  9.84965302 13.64480717
   7.13705225 11.75197619 13.25300237
  12.08222018 12.30265118 10.72389878
   0.93046267  1.60244861 11.08682331
   4.52856604 13.14997577 15.57845231
   1.95029511 10.45170271 18.13650562
   9.23340681 12.77959162 13.41952893
  13.69850677  0.54866444 14.07138922
   4.79655038  0.28263723 10.82904964
   4.80692208  4.79484108 16.64116392
  11.69485673  4.58289382 11.08630203
  13.83474368  3.34416680 18.30354057
   9.95403280  0.66811308 16.48778839



--------------------------------------------------------------------------------------------------------


 k-point     1 :   0.0000 0.0000 0.0000  plane waves:  566945
 k-point     2 :   0.5000 0.0000 0.0000  plane waves:  567126
 k-point     3 :   0.0000 0.5000 0.0000  plane waves:  567126
 k-point     4 :   0.5000 0.5000 0.0000  plane waves:  567180

 maximum and minimum number of plane-waves per node :     35510    35388

 maximum number of plane-waves:    567180
 maximum index in each direction: 
   IXMAX=   41   IYMAX=   41   IZMAX=   80
   IXMIN=  -41   IYMIN=  -41   IZMIN=  -80


 parallel 3D FFT for wavefunctions:
    minimum data exchange during FFTs selected (reduces bandwidth)
 parallel 3D FFT for charge:
    minimum data exchange during FFTs selected (reduces bandwidth)


 total amount of memory used by VASP MPI-rank0   368344. kBytes
=======================================================================

   base                                    :      30000. kBytes
   nonl-proj                               :      74883. kBytes
   fftplans                                :     110218. kBytes
   grid                                    :      85039. kBytes
   one-center                              :         21. kBytes
   wavefun                                 :      68183. kBytes

     INWAV:  cpu time     20.0744: real time     20.0859
 Broyden mixing: mesh for mixing (old mesh)
   NGX = 83   NGY = 83   NGZ =161
  (NGX  =336   NGY  =336   NGZ  =648)
  gives a total of ****** points

 initial charge density was supplied:
 number of electron     366.9999999 magnetization 
 keeping initial charge density in first step


--------------------------------------------------------------------------------------------------------


 Maximum index for augmentation-charges        10982 (set IRDMAX)


--------------------------------------------------------------------------------------------------------


 First call to EWALD:  gamma=   0.097
 Maximum number of real-space cells   3x   3x   2
 Maximum number of reciprocal cells   2x   2x   4

    FEWALD:  cpu time      0.0165: real time      0.0165


--------------------------------------- Ionic step        1  -------------------------------------------




--------------------------------------- Iteration      1(   1)  ---------------------------------------


    POTLOK:  cpu time      2.2050: real time      2.2066
    SETDIJ:  cpu time      1.7632: real time      1.7638
    EDDIAG:  cpu time     40.5332: real time     40.5589
     EDDAV:  cpu time    187.3371: real time    187.4357
       DOS:  cpu time      0.0080: real time      0.0087
    CHARGE:  cpu time     23.4341: real time     23.4558
    MIXING:  cpu time      0.0525: real time      0.0531
    --------------------------------------------
      LOOP:  cpu time    255.3332: real time    255.4827

 eigenvalue-minimisations  :  1920
 total energy-change (2. order) :-0.9414770E+03  (-0.1035904E+01)
 number of electron     366.9999999 magnetization 
 augmentation part      -19.9180378 magnetization 

 Broyden mixing:
  rms(total) = 0.11793E+01    rms(broyden)= 0.27928E+02
  rms(prec ) = 0.12134E+01
  weight for this iteration     100.00
  WARNING: grid for Broyden might be to small

 Free energy of the ion-electron system (eV)
  ---------------------------------------------------
  alpha Z        PSCENC =        47.38867292
  Ewald energy   TEWEN  =     57991.82635108
  -Hartree energ DENC   =    -66251.35416021
  -exchange      EXHF   =         0.00000000
  -V(xc)+E(xc)   XCENC  =      -403.33573638
  PAW double counting   =     34181.81564613   -33294.86192040
  entropy T*S    EENTRO =        -0.20527088
  eigenvalues    EBANDS =     -2523.07097622
  atomic energy  EATOM  =      9310.32036706
  Solvation  Ediel_sol  =         0.00000000
  ---------------------------------------------------
  free energy    TOTEN  =      -941.47702691 eV

  energy without entropy =     -941.27175603  energy(sigma->0) =     -941.37439147


--------------------------------------------------------------------------------------------------------




--------------------------------------- Iteration      1(   2)  ---------------------------------------


    POTLOK:  cpu time      2.1681: real time      2.1933
    SETDIJ:  cpu time      1.6974: real time      1.6986
    EDDIAG:  cpu time     40.4973: real time     40.5214
     EDDAV:  cpu time    189.3894: real time    189.4923
       DOS:  cpu time      0.0034: real time      0.0034
    CHARGE:  cpu time     23.3294: real time     23.3488
    MIXING:  cpu time      0.0459: real time      0.0460
    --------------------------------------------
      LOOP:  cpu time    257.1308: real time    257.3036

 eigenvalue-minimisations  :  1952
 total energy-change (2. order) : 0.6490742E+02  (-0.9903944E+00)
 number of electron     366.9999999 magnetization 
 augmentation part      -19.8456494 magnetization 

 Broyden mixing:
  rms(total) = 0.80026E+00    rms(broyden)= 0.16119E+02
  rms(prec ) = 0.81820E+00
  weight for this iteration     100.00
  WARNING: grid for Broyden might be to small

 eigenvalues of (default mixing * dielectric matrix)
  average eigenvalue GAMMA=   0.6341
  0.6341

 Free energy of the ion-electron system (eV)
  ---------------------------------------------------
  alpha Z        PSCENC =        47.38867292
  Ewald energy   TEWEN  =     57991.82635108
  -Hartree energ DENC   =    -66238.83160709
  -exchange      EXHF   =         0.00000000
  -V(xc)+E(xc)   XCENC  =      -394.49499563
  PAW double counting   =     40817.84980163   -39930.64805332
  entropy T*S    EENTRO =        -0.19981233
  eigenvalues    EBANDS =     -2479.78033379
  atomic energy  EATOM  =      9310.32036706
  Solvation  Ediel_sol  =         0.00000000
  ---------------------------------------------------
  free energy    TOTEN  =      -876.56960947 eV

  energy without entropy =     -876.36979714  energy(sigma->0) =     -876.46970330


--------------------------------------------------------------------------------------------------------




--------------------------------------- Iteration      1(   3)  ---------------------------------------


    POTLOK:  cpu time      2.1746: real time      2.2039
    SETDIJ:  cpu time      1.6957: real time      1.6970
    EDDIAG:  cpu time     40.5329: real time     40.5555
     EDDAV:  cpu time    187.4870: real time    187.5873
       DOS:  cpu time      0.0043: real time      0.0043
    CHARGE:  cpu time     23.3210: real time     23.3443
    MIXING:  cpu time      0.0429: real time      0.0429
    --------------------------------------------
      LOOP:  cpu time    255.2584: real time    255.4351

 eigenvalue-minimisations  :  1920
 total energy-change (2. order) :-0.3507763E+01  (-0.7909546E+00)
 number of electron     366.9999999 magnetization 
 augmentation part      -19.7761938 magnetization 

 Broyden mixing:
  rms(total) = 0.34628E+00    rms(broyden)= 0.23842E+02
  rms(prec ) = 0.43511E+00
  weight for this iteration     100.00
  WARNING: grid for Broyden might be to small

 eigenvalues of (default mixing * dielectric matrix)
  average eigenvalue GAMMA=   0.7835
  0.9399  0.6271

 Free energy of the ion-electron system (eV)
  ---------------------------------------------------
  alpha Z        PSCENC =        47.38867292
  Ewald energy   TEWEN  =     57991.82635108
  -Hartree energ DENC   =    -66240.31013266
  -exchange      EXHF   =         0.00000000
  -V(xc)+E(xc)   XCENC  =      -397.87451751
  PAW double counting   =     48685.53337491   -47798.46146956
  entropy T*S    EENTRO =        -0.19380765
  eigenvalues    EBANDS =     -2478.30621064
  atomic energy  EATOM  =      9310.32036706
  Solvation  Ediel_sol  =         0.00000000
  ---------------------------------------------------
  free energy    TOTEN  =      -880.07737205 eV

  energy without entropy =     -879.88356440  energy(sigma->0) =     -879.98046823


--------------------------------------------------------------------------------------------------------




--------------------------------------- Iteration      1(   4)  ---------------------------------------


    POTLOK:  cpu time      2.1605: real time      2.1899
    SETDIJ:  cpu time      1.6996: real time      1.7006
    EDDIAG:  cpu time     40.5050: real time     40.5298
     EDDAV:  cpu time    202.5177: real time    202.6280
       DOS:  cpu time      0.0020: real time      0.0020
    CHARGE:  cpu time     23.2912: real time     23.3121
    MIXING:  cpu time      0.0442: real time      0.0442
    --------------------------------------------
      LOOP:  cpu time    270.2201: real time    270.4065

 eigenvalue-minimisations  :  2192
 total energy-change (2. order) : 0.4007623E+00  (-0.1423882E+00)
 number of electron     366.9999999 magnetization 
 augmentation part      -19.7763001 magnetization 

 Broyden mixing:
  rms(total) = 0.13402E+00    rms(broyden)= 0.65423E+00
  rms(prec ) = 0.18968E+00
  weight for this iteration     100.00
  WARNING: grid for Broyden might be to small

 eigenvalues of (default mixing * dielectric matrix)
  average eigenvalue GAMMA=   1.0704
  1.9343  0.6674  0.6094

 Free energy of the ion-electron system (eV)
  ---------------------------------------------------
  alpha Z        PSCENC =        47.38867292
  Ewald energy   TEWEN  =     57991.82635108
  -Hartree energ DENC   =    -66242.46762001
  -exchange      EXHF   =         0.00000000
  -V(xc)+E(xc)   XCENC  =      -398.60039818
  PAW double counting   =     54643.92594729   -53756.89194940
  entropy T*S    EENTRO =        -0.20004665
  eigenvalues    EBANDS =     -2474.97793383
  atomic energy  EATOM  =      9310.32036706
  Solvation  Ediel_sol  =         0.00000000
  ---------------------------------------------------
  free energy    TOTEN  =      -879.67660971 eV

  energy without entropy =     -879.47656306  energy(sigma->0) =     -879.57658639


--------------------------------------------------------------------------------------------------------




--------------------------------------- Iteration      1(   5)  ---------------------------------------


    POTLOK:  cpu time      2.1925: real time      2.1937
    SETDIJ:  cpu time      1.7007: real time      1.7016
    EDDIAG:  cpu time     40.4864: real time     40.5122
     EDDAV:  cpu time    203.8766: real time    203.9871
       DOS:  cpu time      0.0040: real time      0.0040
    CHARGE:  cpu time     23.3120: real time     23.3343
    MIXING:  cpu time      0.0438: real time      0.0438
    --------------------------------------------
      LOOP:  cpu time    271.6159: real time    271.7768

 eigenvalue-minimisations  :  2216
 total energy-change (2. order) : 0.1377699E-01  (-0.5138522E-01)
 number of electron     366.9999999 magnetization 
 augmentation part      -19.7735857 magnetization 

 Broyden mixing:
  rms(total) = 0.66166E-01    rms(broyden)= 0.15845E+01
  rms(prec ) = 0.89059E-01
  weight for this iteration     100.00
  WARNING: grid for Broyden might be to small

 eigenvalues of (default mixing * dielectric matrix)
  average eigenvalue GAMMA=   1.0502
  2.3897  0.7709  0.6211  0.4191

 Free energy of the ion-electron system (eV)
  ---------------------------------------------------
  alpha Z        PSCENC =        47.38867292
  Ewald energy   TEWEN  =     57991.82635108
  -Hartree energ DENC   =    -66243.09506158
  -exchange      EXHF   =         0.00000000
  -V(xc)+E(xc)   XCENC  =      -399.60526855
  PAW double counting   =     54527.46509498   -53640.41355417
  entropy T*S    EENTRO =        -0.20118267
  eigenvalues    EBANDS =     -2473.34825178
  atomic energy  EATOM  =      9310.32036706
  Solvation  Ediel_sol  =         0.00000000
  ---------------------------------------------------
  free energy    TOTEN  =      -879.66283272 eV

  energy without entropy =     -879.46165005  energy(sigma->0) =     -879.56224139


--------------------------------------------------------------------------------------------------------




--------------------------------------- Iteration      1(   6)  ---------------------------------------


    POTLOK:  cpu time      2.1580: real time      2.1857
    SETDIJ:  cpu time      1.7080: real time      1.7090
    EDDIAG:  cpu time     40.4775: real time     40.5039
     EDDAV:  cpu time    195.9240: real time    196.0304
       DOS:  cpu time      0.0020: real time      0.0020
    CHARGE:  cpu time     23.3015: real time     23.3232
    MIXING:  cpu time      0.0447: real time      0.0447
    --------------------------------------------
      LOOP:  cpu time    263.6157: real time    263.7989

 eigenvalue-minimisations  :  2072
 total energy-change (2. order) : 0.5165202E-02  (-0.1180770E-01)
 number of electron     366.9999999 magnetization 
 augmentation part      -19.7725038 magnetization 

 Broyden mixing:
  rms(total) = 0.44385E-01    rms(broyden)= 0.31491E+00
  rms(prec ) = 0.54370E-01
  weight for this iteration     100.00
  WARNING: grid for Broyden might be to small

 eigenvalues of (default mixing * dielectric matrix)
  average eigenvalue GAMMA=   0.9888
  2.5584  0.8582  0.6223  0.5309  0.3742

 Free energy of the ion-electron system (eV)
  ---------------------------------------------------
  alpha Z        PSCENC =        47.38867292
  Ewald energy   TEWEN  =     57991.82635108
  -Hartree energ DENC   =    -66243.71059367
  -exchange      EXHF   =         0.00000000
  -V(xc)+E(xc)   XCENC  =      -399.92933523
  PAW double counting   =     54197.55225625   -53310.47925403
  entropy T*S    EENTRO =        -0.20316547
  eigenvalues    EBANDS =     -2472.42296643
  atomic energy  EATOM  =      9310.32036706
  Solvation  Ediel_sol  =         0.00000000
  ---------------------------------------------------
  free energy    TOTEN  =      -879.65766752 eV

  energy without entropy =     -879.45450205  energy(sigma->0) =     -879.55608479


--------------------------------------------------------------------------------------------------------




--------------------------------------- Iteration      1(   7)  ---------------------------------------


    POTLOK:  cpu time      2.1611: real time      2.1888
    SETDIJ:  cpu time      1.7093: real time      1.7104
    EDDIAG:  cpu time     40.4560: real time     40.4823
     EDDAV:  cpu time    194.2890: real time    194.3910
       DOS:  cpu time      0.0020: real time      0.0020
    CHARGE:  cpu time     23.2978: real time     23.3185
    MIXING:  cpu time      0.0460: real time      0.0460
    --------------------------------------------
      LOOP:  cpu time    261.9613: real time    262.1391

 eigenvalue-minimisations  :  2048
 total energy-change (2. order) : 0.3062619E-02  (-0.2304534E-02)
 number of electron     366.9999999 magnetization 
 augmentation part      -19.7732238 magnetization 

 Broyden mixing:
  rms(total) = 0.26074E-01    rms(broyden)= 0.12669E+00
  rms(prec ) = 0.30447E-01
  weight for this iteration     100.00
  WARNING: grid for Broyden might be to small

 eigenvalues of (default mixing * dielectric matrix)
  average eigenvalue GAMMA=   0.9236
  2.5795  0.9419  0.6738  0.6266  0.3763  0.3435

 Free energy of the ion-electron system (eV)
  ---------------------------------------------------
  alpha Z        PSCENC =        47.38867292
  Ewald energy   TEWEN  =     57991.82635108
  -Hartree energ DENC   =    -66243.66285074
  -exchange      EXHF   =         0.00000000
  -V(xc)+E(xc)   XCENC  =      -399.90109171
  PAW double counting   =     54115.85535352   -53228.77122773
  entropy T*S    EENTRO =        -0.20531981
  eigenvalues    EBANDS =     -2472.50485949
  atomic energy  EATOM  =      9310.32036706
  Solvation  Ediel_sol  =         0.00000000
  ---------------------------------------------------
  free energy    TOTEN  =      -879.65460490 eV

  energy without entropy =     -879.44928509  energy(sigma->0) =     -879.55194499


--------------------------------------------------------------------------------------------------------




--------------------------------------- Iteration      1(   8)  ---------------------------------------


    POTLOK:  cpu time      2.1606: real time      2.1889
    SETDIJ:  cpu time      1.7131: real time      1.7139
    EDDIAG:  cpu time     40.4644: real time     40.4898
     EDDAV:  cpu time    191.3983: real time    191.5017
       DOS:  cpu time      0.0031: real time      0.0031
    CHARGE:  cpu time     23.3110: real time     23.3330
    MIXING:  cpu time      0.0457: real time      0.0457
    --------------------------------------------
      LOOP:  cpu time    259.0961: real time    259.2761

 eigenvalue-minimisations  :  1992
 total energy-change (2. order) :-0.1178193E-02  (-0.1233480E-02)
 number of electron     366.9999999 magnetization 
 augmentation part      -19.7711872 magnetization 

 Broyden mixing:
  rms(total) = 0.17369E-01    rms(broyden)= 0.86446E-01
  rms(prec ) = 0.20187E-01
  weight for this iteration     100.00
  WARNING: grid for Broyden might be to small

 eigenvalues of (default mixing * dielectric matrix)
  average eigenvalue GAMMA=   0.9249
  2.5724  1.1258  0.7980  0.6253  0.6253  0.4190  0.3081

 Free energy of the ion-electron system (eV)
  ---------------------------------------------------
  alpha Z        PSCENC =        47.38867292
  Ewald energy   TEWEN  =     57991.82635108
  -Hartree energ DENC   =    -66243.61016073
  -exchange      EXHF   =         0.00000000
  -V(xc)+E(xc)   XCENC  =      -399.73611369
  PAW double counting   =     54098.94939747   -53211.85093627
  entropy T*S    EENTRO =        -0.20487856
  eigenvalues    EBANDS =     -2472.73848237
  atomic energy  EATOM  =      9310.32036706
  Solvation  Ediel_sol  =         0.00000000
  ---------------------------------------------------
  free energy    TOTEN  =      -879.65578309 eV

  energy without entropy =     -879.45090453  energy(sigma->0) =     -879.55334381


--------------------------------------------------------------------------------------------------------




--------------------------------------- Iteration      1(   9)  ---------------------------------------


    POTLOK:  cpu time      2.1811: real time      2.2026
    SETDIJ:  cpu time      1.6993: real time      1.7006
    EDDIAG:  cpu time     40.4574: real time     40.4837
     EDDAV:  cpu time    191.5581: real time    191.6635
       DOS:  cpu time      0.0028: real time      0.0028
    CHARGE:  cpu time     23.2987: real time     23.3189
    MIXING:  cpu time      0.0464: real time      0.0464
    --------------------------------------------
      LOOP:  cpu time    259.2440: real time    259.4186

 eigenvalue-minimisations  :  2000
 total energy-change (2. order) :-0.3018334E-03  (-0.4799932E-03)
 number of electron     366.9999999 magnetization 
 augmentation part      -19.7707871 magnetization 

 Broyden mixing:
  rms(total) = 0.95947E-02    rms(broyden)= 0.22020E-01
  rms(prec ) = 0.11106E-01
  weight for this iteration     100.00
  WARNING: grid for Broyden might be to small

 eigenvalues of (default mixing * dielectric matrix)
  average eigenvalue GAMMA=   0.9249
  2.5650  1.3695  0.7445  0.6824  0.6824  0.6272  0.4178  0.3099

 Free energy of the ion-electron system (eV)
  ---------------------------------------------------
  alpha Z        PSCENC =        47.38867292
  Ewald energy   TEWEN  =     57991.82635108
  -Hartree energ DENC   =    -66243.63936745
  -exchange      EXHF   =         0.00000000
  -V(xc)+E(xc)   XCENC  =      -399.67742689
  PAW double counting   =     54114.59753731   -53227.49115018
  entropy T*S    EENTRO =        -0.20520503
  eigenvalues    EBANDS =     -2472.77586375
  atomic energy  EATOM  =      9310.32036706
  Solvation  Ediel_sol  =         0.00000000
  ---------------------------------------------------
  free energy    TOTEN  =      -879.65608493 eV

  energy without entropy =     -879.45087990  energy(sigma->0) =     -879.55348242


--------------------------------------------------------------------------------------------------------




--------------------------------------- Iteration      1(  10)  ---------------------------------------


    POTLOK:  cpu time      2.1603: real time      2.1896
    SETDIJ:  cpu time      1.7070: real time      1.7078
    EDDIAG:  cpu time     40.4608: real time     40.4850
     EDDAV:  cpu time    191.5596: real time    191.6607
       DOS:  cpu time      0.0034: real time      0.0034
    CHARGE:  cpu time     23.2931: real time     23.3141
    MIXING:  cpu time      0.0476: real time      0.0476
    --------------------------------------------
      LOOP:  cpu time    259.2316: real time    259.4079

 eigenvalue-minimisations  :  2000
 total energy-change (2. order) :-0.1676489E-03  (-0.2692528E-03)
 number of electron     366.9999999 magnetization 
 augmentation part      -19.7699565 magnetization 

 Broyden mixing:
  rms(total) = 0.37437E-02    rms(broyden)= 0.23265E-01
  rms(prec ) = 0.47574E-02
  weight for this iteration     100.00
  WARNING: grid for Broyden might be to small

 eigenvalues of (default mixing * dielectric matrix)
  average eigenvalue GAMMA=   0.9558
  2.5282  2.0099  0.9219  0.6637  0.6637  0.6291  0.4613  0.4156  0.3092

 Free energy of the ion-electron system (eV)
  ---------------------------------------------------
  alpha Z        PSCENC =        47.38867292
  Ewald energy   TEWEN  =     57991.82635108
  -Hartree energ DENC   =    -66243.57025512
  -exchange      EXHF   =         0.00000000
  -V(xc)+E(xc)   XCENC  =      -399.59656402
  PAW double counting   =     54139.11750384   -53252.00282718
  entropy T*S    EENTRO =        -0.20493487
  eigenvalues    EBANDS =     -2472.93456629
  atomic energy  EATOM  =      9310.32036706
  Solvation  Ediel_sol  =         0.00000000
  ---------------------------------------------------
  free energy    TOTEN  =      -879.65625258 eV

  energy without entropy =     -879.45131771  energy(sigma->0) =     -879.55378514


--------------------------------------------------------------------------------------------------------




--------------------------------------- Iteration      1(  11)  ---------------------------------------


    POTLOK:  cpu time      2.1635: real time      2.1904
    SETDIJ:  cpu time      1.7019: real time      1.7031
    EDDIAG:  cpu time     40.4900: real time     40.5165
     EDDAV:  cpu time    203.1937: real time    203.3072
       DOS:  cpu time      0.0027: real time      0.0027
    CHARGE:  cpu time     23.2921: real time     23.3122
    MIXING:  cpu time      0.0717: real time      0.0734
    --------------------------------------------
      LOOP:  cpu time    270.9160: real time    271.1058

 eigenvalue-minimisations  :  2208
 total energy-change (2. order) :-0.4971640E-05  (-0.4814636E-04)
 number of electron     366.9999999 magnetization 
 augmentation part      -19.7702017 magnetization 

 Broyden mixing:
  rms(total) = 0.20552E-02    rms(broyden)= 0.11813E-01
  rms(prec ) = 0.24128E-02
  weight for this iteration     100.00
  WARNING: grid for Broyden might be to small

 eigenvalues of (default mixing * dielectric matrix)
  average eigenvalue GAMMA=   1.0072
  2.5454  2.5454  0.9901  0.9296  0.6641  0.6451  0.5089  0.5089  0.4249  0.3095

 Free energy of the ion-electron system (eV)
  ---------------------------------------------------
  alpha Z        PSCENC =        47.38867292
  Ewald energy   TEWEN  =     57991.82635108
  -Hartree energ DENC   =    -66243.43975917
  -exchange      EXHF   =         0.00000000
  -V(xc)+E(xc)   XCENC  =      -399.61031915
  PAW double counting   =     54142.71839233   -53255.60142701
  entropy T*S    EENTRO =        -0.20473887
  eigenvalues    EBANDS =     -2473.05379673
  atomic energy  EATOM  =      9310.32036706
  Solvation  Ediel_sol  =         0.00000000
  ---------------------------------------------------
  free energy    TOTEN  =      -879.65625755 eV

  energy without entropy =     -879.45151868  energy(sigma->0) =     -879.55388812


--------------------------------------------------------------------------------------------------------




--------------------------------------- Iteration      1(  12)  ---------------------------------------


    POTLOK:  cpu time      2.1663: real time      2.1927
    SETDIJ:  cpu time      1.7215: real time      1.7235
    EDDIAG:  cpu time     40.4922: real time     40.5172
     EDDAV:  cpu time    197.4082: real time    197.5117
       DOS:  cpu time      0.0117: real time      0.0123
    CHARGE:  cpu time     23.3224: real time     23.3426
    MIXING:  cpu time      0.0486: real time      0.0486
    --------------------------------------------
      LOOP:  cpu time    265.1706: real time    265.3481

 eigenvalue-minimisations  :  2104
 total energy-change (2. order) :-0.6399095E-04  (-0.1516960E-04)
 number of electron     366.9999999 magnetization 
 augmentation part      -19.7701812 magnetization 

 Broyden mixing:
  rms(total) = 0.11983E-02    rms(broyden)= 0.82954E-02
  rms(prec ) = 0.14036E-02
  weight for this iteration     100.00
  WARNING: grid for Broyden might be to small

 eigenvalues of (default mixing * dielectric matrix)
  average eigenvalue GAMMA=   0.9999
  2.6545  2.6545  0.9853  0.9853  0.7036  0.7036  0.6262  0.3093  0.4208  0.4779
  0.4779

 Free energy of the ion-electron system (eV)
  ---------------------------------------------------
  alpha Z        PSCENC =        47.38867292
  Ewald energy   TEWEN  =     57991.82635108
  -Hartree energ DENC   =    -66243.33282848
  -exchange      EXHF   =         0.00000000
  -V(xc)+E(xc)   XCENC  =      -399.60938088
  PAW double counting   =     54140.08532618   -53252.96684837
  entropy T*S    EENTRO =        -0.20493338
  eigenvalues    EBANDS =     -2473.16304767
  atomic energy  EATOM  =      9310.32036706
  Solvation  Ediel_sol  =         0.00000000
  ---------------------------------------------------
  free energy    TOTEN  =      -879.65632154 eV

  energy without entropy =     -879.45138816  energy(sigma->0) =     -879.55385485


--------------------------------------------------------------------------------------------------------




--------------------------------------- Iteration      1(  13)  ---------------------------------------


    POTLOK:  cpu time      2.1642: real time      2.1944
    SETDIJ:  cpu time      1.7046: real time      1.7054
    EDDIAG:  cpu time     40.4900: real time     40.5147
     EDDAV:  cpu time    191.1612: real time    191.2597
       DOS:  cpu time      0.0021: real time      0.0021
    CHARGE:  cpu time     23.3179: real time     23.3384
    MIXING:  cpu time      0.0499: real time      0.0499
    --------------------------------------------
      LOOP:  cpu time    258.8899: real time    259.0646

 eigenvalue-minimisations  :  1992
 total energy-change (2. order) :-0.7799818E-04  (-0.1050616E-04)
 number of electron     366.9999999 magnetization 
 augmentation part      -19.7702782 magnetization 

 Broyden mixing:
  rms(total) = 0.67474E-03    rms(broyden)= 0.31842E-02
  rms(prec ) = 0.85285E-03
  weight for this iteration     100.00
  WARNING: grid for Broyden might be to small

 eigenvalues of (default mixing * dielectric matrix)
  average eigenvalue GAMMA=   1.0271
  2.7319  2.7319  1.2475  0.9691  0.9691  0.7449  0.3093  0.6403  0.6018  0.4228
  0.4782  0.4782

 Free energy of the ion-electron system (eV)
  ---------------------------------------------------
  alpha Z        PSCENC =        47.38867292
  Ewald energy   TEWEN  =     57991.82635108
  -Hartree energ DENC   =    -66243.20236649
  -exchange      EXHF   =         0.00000000
  -V(xc)+E(xc)   XCENC  =      -399.62058019
  PAW double counting   =     54135.61485154   -53248.49561570
  entropy T*S    EENTRO =        -0.20485360
  eigenvalues    EBANDS =     -2473.28322617
  atomic energy  EATOM  =      9310.32036706
  Solvation  Ediel_sol  =         0.00000000
  ---------------------------------------------------
  free energy    TOTEN  =      -879.65639954 eV

  energy without entropy =     -879.45154594  energy(sigma->0) =     -879.55397274


--------------------------------------------------------------------------------------------------------




--------------------------------------- Iteration      1(  14)  ---------------------------------------


    POTLOK:  cpu time      2.1919: real time      2.1940
    SETDIJ:  cpu time      1.7048: real time      1.7055
    EDDIAG:  cpu time     40.4759: real time     40.5009
     EDDAV:  cpu time    190.7382: real time    190.8408
       DOS:  cpu time      0.0027: real time      0.0027
    CHARGE:  cpu time     23.2977: real time     23.3171
    MIXING:  cpu time      0.0504: real time      0.0504
    --------------------------------------------
      LOOP:  cpu time    258.4617: real time    258.6114

 eigenvalue-minimisations  :  1984
 total energy-change (2. order) :-0.4726079E-04  (-0.4801624E-05)
 number of electron     366.9999999 magnetization 
 augmentation part      -19.7703172 magnetization 

 Broyden mixing:
  rms(total) = 0.44604E-03    rms(broyden)= 0.15742E-02
  rms(prec ) = 0.61834E-03
  weight for this iteration     100.00
  WARNING: grid for Broyden might be to small

 eigenvalues of (default mixing * dielectric matrix)
  average eigenvalue GAMMA=   1.0388
  2.7744  2.7744  1.5195  0.9868  0.9868  0.8790  0.3094  0.6467  0.6467  0.6063
  0.4212  0.4767  0.4767

 Free energy of the ion-electron system (eV)
  ---------------------------------------------------
  alpha Z        PSCENC =        47.38867292
  Ewald energy   TEWEN  =     57991.82635108
  -Hartree energ DENC   =    -66243.11576613
  -exchange      EXHF   =         0.00000000
  -V(xc)+E(xc)   XCENC  =      -399.62444436
  PAW double counting   =     54134.18412607   -53247.06467291
  entropy T*S    EENTRO =        -0.20489930
  eigenvalues    EBANDS =     -2473.36618122
  atomic energy  EATOM  =      9310.32036706
  Solvation  Ediel_sol  =         0.00000000
  ---------------------------------------------------
  free energy    TOTEN  =      -879.65644680 eV

  energy without entropy =     -879.45154750  energy(sigma->0) =     -879.55399715


--------------------------------------------------------------------------------------------------------




--------------------------------------- Iteration      1(  15)  ---------------------------------------


    POTLOK:  cpu time      2.2401: real time      2.2674
    SETDIJ:  cpu time      1.7005: real time      1.7018
    EDDIAG:  cpu time     40.4614: real time     40.4867
     EDDAV:  cpu time    190.7722: real time    190.8770
       DOS:  cpu time      0.0021: real time      0.0021
    CHARGE:  cpu time     23.2792: real time     23.3000
    MIXING:  cpu time      0.0513: real time      0.0513
    --------------------------------------------
      LOOP:  cpu time    258.5068: real time    258.6863

 eigenvalue-minimisations  :  1984
 total energy-change (2. order) :-0.6376056E-04  (-0.4964718E-05)
 number of electron     366.9999999 magnetization 
 augmentation part      -19.7703481 magnetization 

 Broyden mixing:
[...]
   -.118E+01 0.185E+02 0.253E+03   0.254E+00 -.189E+02 -.253E+03   0.109E+01 0.161E+00 0.525E+00   0.939E-04 0.203E-04 0.413E-04
   0.195E+02 -.384E+01 0.286E+03   -.190E+02 0.199E+01 -.288E+03   -.613E+00 0.163E+01 0.920E+00   -.156E-03 -.367E-04 0.322E-04
   -.210E+02 -.251E+02 0.195E+03   0.204E+02 0.239E+02 -.194E+03   0.441E+00 0.138E+01 -.983E+00   -.433E-04 -.917E-05 0.511E-04
   -.580E+01 -.151E+02 -.219E+03   0.544E+01 0.134E+02 0.217E+03   0.724E-01 0.163E+01 0.165E+01   0.308E-04 0.776E-05 0.490E-04
   -.144E+02 0.189E+02 -.310E+03   0.164E+02 -.189E+02 0.310E+03   -.178E+01 0.102E-01 0.267E+00   0.521E-04 0.582E-04 0.423E-04
   0.260E+02 0.826E+01 -.109E+02   -.257E+02 -.931E+01 0.112E+02   -.455E+00 0.114E+01 -.248E+00   -.534E-04 0.212E-04 0.135E-03
   -.852E+01 0.132E+02 0.478E+02   0.849E+01 -.121E+02 -.479E+02   0.541E-01 -.101E+01 0.164E+00   0.741E-04 -.540E-04 0.576E-04
   0.156E+02 -.207E+02 -.213E+03   -.151E+02 0.188E+02 0.215E+03   -.550E+00 0.100E+01 -.143E+01   -.464E-04 0.245E-04 0.465E-04
   0.737E+01 -.692E+01 -.104E+03   -.727E+01 0.605E+01 0.103E+03   -.312E+00 0.108E+01 0.155E+01   0.508E-05 0.895E-05 0.106E-03
   0.184E+02 -.169E+02 0.330E+03   -.191E+02 0.162E+02 -.329E+03   0.103E+01 0.115E+01 -.738E+00   -.399E-04 -.948E-05 0.190E-04
   0.298E+02 0.302E+02 -.103E+03   -.275E+02 -.290E+02 0.102E+03   -.222E+01 -.121E+01 0.628E+00   -.996E-04 -.414E-04 0.774E-04
   0.379E+02 0.125E+02 -.289E+03   -.367E+02 -.116E+02 0.289E+03   -.143E+01 -.105E+01 0.332E+00   -.382E-04 -.265E-04 0.653E-04
   0.870E+01 -.171E+02 -.851E+02   -.102E+02 0.163E+02 0.853E+02   0.173E+01 0.629E+00 -.136E+00   -.257E-04 -.115E-04 0.687E-04
   0.851E+01 -.992E+01 0.274E+03   -.744E+01 0.104E+02 -.272E+03   -.111E+01 -.762E+00 -.144E+01   -.670E-04 -.407E-04 0.361E-04
   0.223E+02 0.161E+02 -.251E+03   -.214E+02 -.157E+02 0.250E+03   -.789E+00 -.549E+00 0.163E+01   -.636E-04 -.306E-04 0.473E-04
   0.993E+01 -.631E+01 -.133E+03   -.781E+01 0.836E+01 0.132E+03   -.196E+01 -.177E+01 0.961E+00   0.110E-03 0.478E-04 0.104E-03
   0.366E+02 -.237E+01 0.247E+03   -.349E+02 0.426E+01 -.245E+03   -.171E+01 -.198E+01 -.235E+01   0.142E-04 -.373E-04 0.361E-04
   -.162E+02 -.409E+01 0.106E+03   0.158E+02 0.491E+01 -.107E+03   0.380E+00 -.863E+00 0.878E+00   -.414E-04 0.591E-04 0.109E-03
   0.271E+02 0.498E+01 -.156E+03   -.304E+02 -.479E+01 0.154E+03   0.273E+01 -.191E+00 0.171E+01   -.704E-04 0.168E-04 0.124E-03
   -.204E+02 -.531E+01 -.113E+03   0.205E+02 0.449E+01 0.115E+03   0.180E+00 0.650E+00 -.259E+01   -.733E-04 0.120E-03 0.113E-03
   -.184E+02 0.164E+01 -.257E+03   0.181E+02 0.211E+00 0.256E+03   0.642E-01 -.134E+01 0.721E-02   -.205E-04 0.802E-04 0.466E-04
   0.108E+01 0.171E+02 -.266E+03   -.122E+01 -.156E+02 0.266E+03   0.170E+00 -.160E+01 0.300E+00   -.152E-03 0.106E-03 0.102E-03
   -.509E+00 0.173E+02 0.652E+02   0.127E+01 -.166E+02 -.669E+02   -.811E+00 -.855E+00 0.156E+01   -.122E-04 0.854E-05 0.594E-04
   0.177E+02 0.717E+01 0.124E+03   -.180E+02 -.604E+01 -.123E+03   0.424E+00 -.105E+01 -.119E+01   -.369E-04 -.573E-04 0.177E-04
   0.314E+02 -.238E+02 0.357E+03   -.335E+02 0.250E+02 -.356E+03   0.168E+01 -.737E+00 -.155E+01   0.416E-06 -.295E-04 -.101E-04
   -.911E+01 -.253E+02 0.340E+03   0.916E+01 0.241E+02 -.338E+03   -.352E+00 0.121E+01 -.222E+01   0.648E-04 -.274E-05 0.277E-05
   -.152E+02 -.807E+01 -.139E+03   0.143E+02 0.791E+01 0.138E+03   0.819E+00 0.240E+00 0.112E+01   0.229E-04 -.543E-05 0.511E-04
   -.205E+01 -.733E+01 -.359E+03   0.391E+01 0.873E+01 0.357E+03   -.166E+01 -.157E+01 0.255E+01   0.581E-04 -.306E-04 0.410E-04
   0.695E+01 -.287E+02 0.108E+03   -.819E+01 0.288E+02 -.108E+03   0.105E+01 -.261E-02 0.122E+00   -.584E-04 -.495E-04 0.458E-04
   -.833E+01 0.406E+00 0.226E+02   0.667E+01 0.184E+01 -.225E+02   0.171E+01 -.218E+01 -.158E+00   0.297E-04 -.120E-04 0.986E-04
   -.284E+02 -.386E+01 0.358E+03   0.283E+02 0.408E+01 -.357E+03   0.761E-02 0.286E+00 -.840E+00   0.761E-05 -.274E-04 0.170E-04
   -.277E+02 -.442E+00 -.224E+03   0.279E+02 0.181E+01 0.223E+03   0.138E+00 -.150E+01 0.137E+01   0.735E-04 0.173E-03 0.131E-03
   -.146E+02 -.767E+01 0.324E+03   0.116E+02 0.833E+01 -.325E+03   0.306E+01 -.555E+00 0.641E+00   -.793E-05 0.683E-05 0.557E-04
   -.987E+01 -.103E+02 -.378E+03   0.121E+02 0.114E+02 0.380E+03   -.186E+01 -.942E+00 -.130E+01   0.315E-04 0.230E-04 0.469E-04
   0.316E+02 -.371E+02 -.213E+03   -.308E+02 0.355E+02 0.214E+03   -.471E+00 0.221E+01 -.898E-02   -.331E-04 0.213E-04 0.705E-04
 -----------------------------------------------------------------------------------------------
   -.166E+02 0.527E+01 0.139E+02   0.711E-14 0.711E-14 0.796E-12   0.166E+02 -.528E+01 -.139E+02   0.320E-03 -.197E-04 0.581E-02


 POSITION                                       TOTAL-FORCE (eV/Angst)
 -----------------------------------------------------------------------------------
      9.23451      2.88695     10.03420         0.021877     -0.165104     -0.046016
     13.80728      6.87669     16.11238         0.261510      0.096037     -0.152054
     14.00972      3.63347     13.02365         0.090114      0.024636     -0.140791
      7.38159      6.68334     14.94213         0.243794      0.234658      0.130883
      0.83830      4.89602     11.15163         0.028863     -0.062371      0.150209
      8.58349      4.87980     13.62419        -0.103760      0.063010      0.115274
      0.99998      8.32821      9.48635        -0.028328      0.040144     -0.137308
      8.66904      7.88833     13.36812         0.105905      0.000506      0.022975
      6.49095     10.37152     10.34853        -0.202329     -0.042186     -0.134642
      6.76942      6.31394     10.11104        -0.239833     -0.062909     -0.142546
      5.98229      1.89966     18.40750        -0.033783     -0.058912     -0.022297
      4.18014     10.23810     17.65112        -0.536351      0.064275      0.011227
      4.97659      7.39847     12.51241        -0.255494      0.054430     -0.062610
     12.75464     13.07263     14.68712         0.044675      0.072373     -0.084015
      1.97763     13.34387     13.24385         0.039094      0.068529     -0.024879
      2.12165      7.58407     10.11058         0.414697      0.558244      0.683891
      9.97212      7.84252     15.99919        -0.127885      0.113145      0.009981
     10.71560      2.27993     14.97356        -0.058918     -0.229184      0.074653
      8.99893      7.61460     11.93114        -0.255878     -0.097088      0.240321
      4.86336      8.90361     14.36614         0.064400      0.105703      0.019538
      4.38517      8.25143     16.56693        -0.156849     -0.443976      0.019155
      4.08422      0.82536     16.09313         0.124835     -0.189749      0.004270
      2.21949      7.44808     16.26310         0.032498      0.112310      0.060428
      7.89089      6.64402     16.37179         0.166667     -0.120511     -0.149688
      7.80220     12.48915     17.67030         0.003821      0.595295     -0.307416
      5.85237     11.59229     16.75149        -0.009844      0.340737     -0.115580
      7.83404      4.40703     12.42072         0.366416      0.206087      0.108641
     13.21115      1.11601     17.72082         0.188519     -0.305114      0.246295
      3.81099      8.83440     10.94197        -0.499950     -0.521579      0.037754
     11.06656      6.49781     12.26172         0.181896      0.045678     -0.103207
      3.87745     12.97635     11.94587        -0.244426     -0.175632     -0.071480
     10.32637      1.56848     12.65594         0.125036      0.251884     -0.108775
      3.43268      5.61254     13.01042         0.043967     -0.027150     -0.130588
      1.05587     12.38256     17.11064        -0.107824      0.331931      0.103485
      1.30634      0.95614     13.31906        -0.042535     -0.016580     -0.058119
     13.95567     13.99423     10.78684         0.046977      0.357334      0.123250
      0.74793      0.05692     17.91623         0.058260      0.159233     -0.048530
     12.60264      8.25765     12.01495         0.033385     -0.192643      0.160482
     13.33909      7.06758     17.73701        -0.159283      0.361090     -0.144011
      2.46184     12.18110     15.20276         0.003509     -0.102273     -0.085038
      5.55233     13.38308     13.49599         0.079420     -0.101495     -0.133862
     14.52344      7.28455     13.07163         0.211140      0.184648     -0.284801
      9.51368      9.78778     11.24416         0.198021      0.001493     -0.261034
      1.05244      8.71572     14.62036        -0.148815     -0.217370     -0.013142
     13.46291      6.02301     14.79636        -0.148763      0.057725      0.102794
     13.54114      9.59917     15.59259         0.197051      0.008715      0.026351
      2.97542      5.45691     15.32406        -0.065491      0.027709      0.162438
      5.83816      6.72650     17.51989        -0.151267     -0.122973     -0.127720
      2.99093      3.79068     18.01539        -0.402050      0.145319      0.157089
     13.10838     11.78917     12.73860         0.256214     -0.052979      0.209426
      2.95858      2.14887     14.44290        -0.177477     -0.211269      0.059578
     11.74151      9.93061     10.39052         0.018326      0.051452      0.250223
      3.28706      2.03760     10.90782         0.218398     -0.419950      0.329227
     14.02211      4.00885     15.91256        -0.120451     -0.002653     -0.448875
     12.27386      4.86386     17.56818         0.509678     -0.406228      0.003765
      2.82644     10.85504     11.70880        -0.010246      0.394652     -0.206323
     10.11161     10.60894     13.33944        -0.188988     -0.166246      0.168850
     11.68216     10.98335     17.86394         0.152207      0.225516      0.077531
     11.25830      0.00851     18.32981        -0.157542     -0.300482     -0.001110
      4.06219      3.34232     12.72275         0.166480      0.114709     -0.143039
      0.65877     12.13980     11.78596         0.122751     -0.158816      0.104290
      6.99892      6.45292     11.56507         0.127481      0.005363     -0.120229
      0.90354      8.27233     17.99058         0.195519      0.000141     -0.249843
      6.68767     10.25717     14.95763         0.014622     -0.147602     -0.030525
     13.58057      3.12520     11.67015         0.024519     -0.234301      0.215596
      1.49199      6.10101     11.75371         0.218859     -0.330750     -0.228233
      9.70830      3.41307     11.34321        -0.203273     -0.159649     -0.273876
      6.56487      0.68342     12.46471        -0.195090      0.211633     -0.097943
     13.46773     11.74381     16.46941        -0.285983     -0.053359      0.034376
      2.41797      1.58840     17.49372         0.093534     -0.000530      0.123063
     11.12895      6.24596     14.61138        -0.149443      0.130769      0.044494
      2.81956     10.16949     13.98662         0.008203     -0.015069      0.056006
      7.78018     14.53334     16.68671         0.004620     -0.816880      0.519848
     12.94491      2.01729     15.58729        -0.219584      0.273208     -0.301807
      7.57859     11.07905     11.06791         0.300651      0.287747      0.215511
      8.99581      9.81958     15.22830         0.013000     -0.103745     -0.087248
     11.88551      8.74917     17.13339        -0.283262     -0.168366      0.134155
     10.47373     13.28806     15.30292         0.362526     -0.201950      0.013001
      8.78972     14.51293     11.97262        -0.104311     -0.278550      0.102016
      9.72835     11.54475     16.67688         0.106331     -0.229827      0.066507
      1.76868      3.55955     15.93173         0.075618      0.200465      0.189104
     12.57779      1.02998     12.09476         0.028541     -0.163738      0.135171
      6.29458      2.89651     13.34737        -0.003910     -0.074056      0.001841
     10.50553      4.40351     15.91714        -0.436067     -0.013593     -0.155516
      6.54247      3.43396     15.72027         0.177683     -0.147455      0.090629
      6.11912      1.53672     16.96828        -0.302414      0.445354     -0.258242
      8.37721      4.44012     16.78830         0.048657     -0.044612     -0.106044
     12.29112      9.84965     13.64481        -0.076354     -0.207482     -0.149792
      7.13705     11.75198     13.25300         0.167251      0.052360     -0.084294
     12.08222     12.30265     10.72390        -0.159055      0.266741     -0.436418
      0.93046      1.60245     11.08682        -0.299979     -0.000915     -0.358854
      4.52857     13.14998     15.57845        -0.115445      0.080329      0.169122
      1.95030     10.45170     18.13651         0.156374     -0.287405     -0.200638
      9.23341     12.77959     13.41953        -0.152884      0.069941     -0.055825
     13.69851      0.54866     14.07139         0.110706     -0.018833     -0.065292
      4.79655      0.28264     10.82905        -0.182562      0.587269      0.292395
      4.80692      4.79484     16.64116         0.285847     -0.193024      0.143014
     11.69486      4.58289     11.08630         0.106387      0.024926      0.031604
     13.83474      3.34417     18.30354         0.084266      0.081258      0.467693
      9.95403      0.66811     16.48779         0.272382      0.678402      0.130697
 -----------------------------------------------------------------------------------
    total drift:                                0.000477     -0.006207      0.005428


--------------------------------------------------------------------------------------------------------



  FREE ENERGIE OF THE ION-ELECTRON SYSTEM (eV)
  ---------------------------------------------------
  free  energy   TOTEN  =      -879.65672443 eV

  energy  without entropy=     -879.45184912  energy(sigma->0) =     -879.55428678



--------------------------------------------------------------------------------------------------------


    POTLOK:  cpu time      3.8620: real time      3.8646


--------------------------------------------------------------------------------------------------------


     LOOP+:  cpu time   6313.0925: real time   6317.4712
    4ORBIT:  cpu time      0.0000: real time      0.0000



 total charge

# of ion       s       p       d       tot
------------------------------------------
    1        0.570   0.015   0.000   0.585
    2        0.583   0.020   0.000   0.602
    3        0.561   0.015   0.000   0.576
    4        0.553   0.015   0.000   0.568
    5        0.567   0.016   0.000   0.583
    6        0.569   0.016   0.000   0.585
    7        0.562   0.016   0.000   0.578
    8        0.568   0.016   0.000   0.585
    9        0.563   0.016   0.000   0.579
   10        0.572   0.016   0.000   0.588
   11        0.561   0.015   0.000   0.576
   12        0.778   0.905   0.000   1.683
   13        0.743   0.892   0.000   1.635
   14        0.756   0.955   0.000   1.711
   15        0.770   0.981   0.000   1.750
   16        0.763   0.941   0.000   1.704
   17        0.749   0.912   0.000   1.662
   18        0.755   0.937   0.000   1.692
   19        0.749   0.967   0.000   1.717
   20        0.754   0.915   0.000   1.668
   21        0.756   0.973   0.000   1.729
   22        0.746   0.967   0.000   1.713
   23        0.752   0.957   0.000   1.709
   24        0.745   0.947   0.000   1.692
   25        0.789   0.882   0.000   1.671
   26        0.751   0.927   0.000   1.678
   27        0.742   0.972   0.000   1.714
   28        0.757   0.945   0.000   1.702
   29        0.776   0.878   0.000   1.654
   30        0.750   0.934   0.000   1.684
   31        0.760   0.936   0.000   1.696
   32        0.754   0.914   0.000   1.668
   33        0.747   0.937   0.000   1.683
   34        0.747   0.917   0.000   1.664
   35        0.757   0.977   0.000   1.734
   36        0.791   0.769   0.000   1.560
   37        0.774   0.878   0.000   1.652
   38        0.763   0.922   0.000   1.685
   39        0.792   0.823   0.000   1.615
   40        0.756   0.938   0.000   1.694
   41        0.758   0.969   0.000   1.727
   42        0.757   0.921   0.000   1.678
   43        0.748   0.955   0.000   1.702
   44        0.756   0.914   0.000   1.670
   45        0.785   0.876   0.000   1.661
   46        0.762   0.910   0.000   1.672
   47        0.767   0.924   0.000   1.692
   48        0.798   0.867   0.000   1.665
   49        0.846   0.770   0.000   1.617
   50        0.764   0.954   0.000   1.718
   51        0.762   0.916   0.000   1.679
   52        0.828   0.765   0.000   1.592
   53        0.783   0.856   0.000   1.640
   54        0.747   0.956   0.000   1.703
   55        0.798   0.842   0.000   1.640
   56        0.763   0.851   0.000   1.614
   57        0.766   0.938   0.000   1.704
   58        0.800   0.838   0.000   1.638
   59        0.871   0.732   0.000   1.604
   60        0.751   0.925   0.000   1.676
   61        0.770   0.894   0.000   1.664
   62        0.737   0.965   0.000   1.702
   63        0.784   0.822   0.000   1.606
   64        0.756   0.940   0.000   1.696
   65        0.747   0.900   0.000   1.647
   66        0.742   0.975   0.000   1.716
   67        0.741   0.977   0.000   1.718
   68        0.754   0.898   0.000   1.652
   69        0.757   0.953   0.000   1.710
   70        0.777   0.887   0.000   1.664
   71        0.763   0.923   0.000   1.686
   72        0.755   0.904   0.000   1.659
   73        0.784   0.911   0.000   1.695
   74        0.767   0.976   0.000   1.743
   75        0.775   0.893   0.000   1.668
   76        0.758   0.944   0.000   1.703
   77        0.768   0.908   0.000   1.676
   78        0.767   0.941   0.000   1.708
   79        0.792   0.864   0.000   1.656
   80        0.753   0.934   0.000   1.687
   81        0.751   0.944   0.000   1.695
   82        0.762   0.927   0.000   1.689
   83        0.748   0.920   0.000   1.668
   84        0.758   0.918   0.000   1.676
   85        0.754   0.921   0.000   1.675
   86        0.742   1.003   0.000   1.745
   87        0.789   0.907   0.000   1.696
   88        0.769   0.972   0.000   1.741
   89        0.756   0.972   0.000   1.728
   90        0.846   0.768   0.000   1.613
   91        0.777   0.833   0.000   1.610
   92        0.754   0.959   0.000   1.713
   93        0.778   0.849   0.000   1.627
   94        0.761   0.955   0.000   1.716
   95        0.758   0.992   0.000   1.750
   96        0.794   0.838   0.000   1.631
   97        0.760   0.900   0.000   1.660
   98        0.779   0.867   0.000   1.646
   99        0.854   0.764   0.000   1.617
  100        0.759   0.966   0.000   1.725
--------------------------------------------------
tot         74.561  81.234   0.000 155.794


 total amount of memory used by VASP MPI-rank0   368344. kBytes
=======================================================================

   base                                    :      30000. kBytes
   nonl-proj                               :      74883. kBytes
   fftplans                                :     110218. kBytes
   grid                                    :      85039. kBytes
   one-center                              :         21. kBytes
   wavefun                                 :      68183. kBytes

  
  
 General timing and accounting informations for this job:
 ========================================================
  
                  Total CPU time used (sec):     6461.695
                            User time (sec):     5728.278
                          System time (sec):      733.417
                         Elapsed time (sec):     6466.360
  
                   Maximum memory used (kb):      639068.
                   Average memory used (kb):          N/A
  
                          Minor page faults:     10954561
                          Major page faults:         1167
                 Voluntary context switches:         3790
