 vasp.6.5.0 16Dec24 (build Jan 20 2025 08:32:48) complex                         
 executed on        HPECrayEX_GCC date 2025.07.21  21:44:26
 running  128 mpi-ranks, with    1 threads/rank, on    1 nodes
 distrk:  each k-point on  128 cores,    1 groups
 distr:  one band on NCORE=  16 cores,    8 groups


--------------------------------------------------------------------------------------------------------


 INCAR:
   SYSTEM = a-Si SPC
   NCORE = 16
   ISTART = 1
   ICHARG = 1
   ISPIN = 1
   ISYM = 1
   EDIFF = 1E-6
   NELM = 150
   EDIFFG = -0.01
   NSW = 0
   ISIF = 2
   IBRION = -1
   PREC = Accurate
   ENCUT = 1200
   KSPACING = 0.23
   KGAMMA = .TRUE.
   METAGGA = SCAN
   LASPH = .TRUE.
   LDIAG = .FALSE.
   LMIXTAU = .TRUE.
   ADDGRID = .TRUE.
   ALGO = Normal
   ISMEAR = 0
   SIGMA = 0.1
   LORBIT = 11
   NEDOS = 2000
   LWAVE = .FALSE.
   LCHARG = .FALSE.

 POTCAR:    PAW_PBE H 15Jun2001                   
 POTCAR:    PAW_PBE Si 05Jan2001                  
 POTCAR:    PAW_PBE H 15Jun2001                   
   SHA256 =  030f79b5d3ab3cf0e668861823c8fb652ff669f3e15e46930bd03bfd63a607b6 H/POTCAR              
   COPYR  = (c) Copyright 15Jun2001 Georg Kresse                                                    
   COPYR  = This file is part of the software VASP. Any use, copying, and all other rights are regul
   COPYR  = If you do not have a valid VASP license, you may not use, copy or distribute this file. 
   VRHFIN =H: ultrasoft test                                                                        
   LEXCH  = PE                                                                                      
   EATOM  =    12.4884 eV,    0.9179 Ry                                                             
                                                                                                    
   TITEL  = PAW_PBE H 15Jun2001                                                                     
   LULTRA =        F    use ultrasoft PP ?                                                          
   IUNSCR =        0    unscreen: 0-lin 1-nonlin 2-no                                               
   RPACOR =    0.000    partial core radius                                                         
   POMASS =    1.000; ZVAL   =    1.000    mass and valenz                                          
   RCORE  =    1.100    outmost cutoff radius                                                       
   RWIGS  =    0.700; RWIGS  =    0.370    wigner-seitz radius (au A)                               
   ENMAX  =  250.000; ENMIN  =  200.000 eV                                                          
   RCLOC  =    0.701    cutoff for local pot                                                        
   LCOR   =        T    correct aug charges                                                         
   LPAW   =        T    paw PP                                                                      
   EAUG   =  400.000                                                                                
   RMAX   =    1.123    core radius for proj-oper                                                   
   RAUG   =    1.200    factor for augmentation sphere                                              
   RDEP   =    1.112    radius for radial grids                                                     
   RDEPT  =    0.926    core radius for aug-charge                                                  
                                                                                                    
   Atomic configuration                                                                             
    2 entries                                                                                       
     n  l   j            E        occ.                                                              
     1  0  0.50        -6.4927   1.0000                                                             
     2  1  0.50        -3.4015   0.0000                                                             
   Description                                                                                      
     l       E           TYP  RCUT    TYP  RCUT                                                     
     0     -6.4927494     23  1.100                                                                 
     0      6.8029130     23  1.100                                                                 
     1     -4.0817478     23  1.100                                                                 
  local pseudopotential read in
  atomic valenz-charges read in
  non local Contribution for L=           0  read in
    real space projection operators read in
  non local Contribution for L=           0  read in
    real space projection operators read in
  non local Contribution for L=           1  read in
    real space projection operators read in
    PAW grid and wavefunctions read in

   number of l-projection  operators is LMAX  =           3
   number of lm-projection operators is LMMAX =           5

 POTCAR:    PAW_PBE Si 05Jan2001                  
   SHA256 =  79d9987ad8750f624c4d6acb2a16d13abf6a777132adc04dc6c8399be72b42bb Si/POTCAR             
   COPYR  = (c) Copyright 05Jan2001 Georg Kresse                                                    
   COPYR  = This file is part of the software VASP. Any use, copying, and all other rights are regul
   COPYR  = If you do not have a valid VASP license, you may not use, copy or distribute this file. 
   VRHFIN =Si: s2p2                                                                                 
   LEXCH  = PE                                                                                      
   EATOM  =   103.0669 eV,    7.5752 Ry                                                             
                                                                                                    
   TITEL  = PAW_PBE Si 05Jan2001                                                                    
   LULTRA =        F    use ultrasoft PP ?                                                          
   IUNSCR =        1    unscreen: 0-lin 1-nonlin 2-no                                               
   RPACOR =    1.500    partial core radius                                                         
   POMASS =   28.085; ZVAL   =    4.000    mass and valenz                                          
   RCORE  =    1.900    outmost cutoff radius                                                       
   RWIGS  =    2.480; RWIGS  =    1.312    wigner-seitz radius (au A)                               
   ENMAX  =  245.345; ENMIN  =  184.009 eV                                                          
   ICORE  =        2    local potential                                                             
   LCOR   =        T    correct aug charges                                                         
   LPAW   =        T    paw PP                                                                      
   EAUG   =  322.069                                                                                
   DEXC   =    0.000                                                                                
   RMAX   =    1.950    core radius for proj-oper                                                   
   RAUG   =    1.300    factor for augmentation sphere                                              
   RDEP   =    1.993    radius for radial grids                                                     
   RDEPT  =    1.837    core radius for aug-charge                                                  
                                                                                                    
   Atomic configuration                                                                             
    6 entries                                                                                       
     n  l   j            E        occ.                                                              
     1  0  0.50     -1785.8828   2.0000                                                             
     2  0  0.50      -139.4969   2.0000                                                             
     2  1  1.50       -95.5546   6.0000                                                             
     3  0  0.50       -10.8127   2.0000                                                             
     3  1  0.50        -4.0811   2.0000                                                             
     3  2  1.50        -4.0817   0.0000                                                             
   Description                                                                                      
     l       E           TYP  RCUT    TYP  RCUT                                                     
     0    -10.8127223     23  1.900                                                                 
     0     -7.6451159     23  1.900                                                                 
     1     -4.0811372     23  1.900                                                                 
     1      2.4879257     23  1.900                                                                 
     2     -4.0817478      7  1.900                                                                 
  local pseudopotential read in
  partial core-charges read in
  partial kinetic energy density read in
  atomic valenz-charges read in
  non local Contribution for L=           0  read in
    real space projection operators read in
  non local Contribution for L=           0  read in
    real space projection operators read in
  non local Contribution for L=           1  read in
    real space projection operators read in
  non local Contribution for L=           1  read in
    real space projection operators read in
    PAW grid and wavefunctions read in

   number of l-projection  operators is LMAX  =           4
   number of lm-projection operators is LMMAX =           8

 -----------------------------------------------------------------------------
|                                                                             |
|               ----> ADVICE to this user running VASP <----                  |
|                                                                             |
|     You have a (more or less) 'large supercell' and for larger cells it     |
|     might be more efficient to use real-space projection operators.         |
|     Therefore, try LREAL= Auto in the INCAR file.                           |
|     Mind: For very accurate calculation, you might also keep the            |
|     reciprocal projection scheme (i.e. LREAL=.FALSE.).                      |
|                                                                             |
 -----------------------------------------------------------------------------

 -----------------------------------------------------------------------------
|                                                                             |
|               ----> ADVICE to this user running VASP <----                  |
|                                                                             |
|     You enforced a specific xc type in the INCAR file but a different       |
|     type was found in the POTCAR file.                                      |
|     I HOPE YOU KNOW WHAT YOU ARE DOING!                                     |
|                                                                             |
 -----------------------------------------------------------------------------

  PAW_PBE H 15Jun2001                   :
 energy of atom  1       EATOM=  -12.4884
 kinetic energy error for atom=    0.0000 (will be added to EATOM!!)
  PAW_PBE Si 05Jan2001                  :
 energy of atom  2       EATOM= -103.0669
 kinetic energy error for atom=    0.0001 (will be added to EATOM!!)


 POSCAR:  H Si
  positions in cartesian coordinates
  No initial velocities read in


 exchange-correlation table for SCAN
   RHO(1)=    0.500       N(1)  =     2000
   RHO(2)=  100.500       N(2)  =     4000



--------------------------------------------------------------------------------------------------------


 ion  position               nearest neighbor table
   1  0.861  0.359  0.521-  78 1.55
   2  0.302  0.598  0.479-  34 1.52
   3  0.740  0.199  0.523-  40 1.47
   4  0.540  0.969  0.574-  52 1.50
   5  0.336  0.479  0.427-  55 1.53
   6  0.068  0.076  0.553-  39 2.22   9 2.27  43 2.35  75 2.41
   7  0.559  0.601  0.517-  73 2.31  54 2.33  50 2.36  15 2.44
   8  0.320  0.295  0.463-  71 2.41  81 2.42  47 2.42  70 2.52
   9  0.921  0.127  0.548-   6 2.27  78 2.38  19 2.43  29 2.97
  10  0.822  0.509  0.514-  36 2.37  15 2.38  66 2.45  26 2.51
  11  0.086  0.349  0.526-  70 2.28  75 2.37  78 2.38  22 2.61  66 2.87  59 3.09
  12  0.706  0.838  0.614-  35 2.42  46 2.48  48 2.48
  13  0.096  0.603  0.527-  34 2.27  32 2.28  66 2.36  60 2.45
  14  0.162  0.787  0.603-  28 2.28  32 2.30  30 2.30
  15  0.722  0.639  0.520-  35 2.33  10 2.38  20 2.40   7 2.44
  16  0.956  0.089  0.434-  64 2.32  43 2.40  29 2.50
  17  0.723  0.066  0.414-  29 2.23  63 2.30  68 2.57
  18  0.458  0.970  0.394-  53 2.24  31 2.35  63 2.40
  19  0.906  0.210  0.626-   9 2.43  78 2.98
  20  0.719  0.771  0.466-  76 2.21  33 2.26  79 2.37  15 2.40
  21  0.081  0.791  0.402-  44 2.29  56 2.33  58 2.46
  22  0.067  0.389  0.620-  60 2.32  11 2.61
  23  0.367  0.946  0.585-  25 2.38  65 2.40  28 2.45
  24  0.309  0.730  0.407-  72 2.35  51 2.38  58 2.68
  25  0.357  0.800  0.544-  73 2.24  72 2.37  23 2.38  30 2.46
  26  0.807  0.470  0.604-  57 2.29  10 2.51
  27  0.381  0.282  0.607-  81 2.34  61 2.35
  28  0.220  0.926  0.628-  14 2.28  39 2.29  23 2.45
  29  0.818  0.018  0.473-  17 2.23  79 2.35  16 2.50  48 2.71   9 2.97
  30  0.298  0.708  0.614-  14 2.30  67 2.36  25 2.46
  31  0.330  0.001  0.445-  37 2.19  18 2.35  65 2.38  72 2.45
  32  0.070  0.757  0.535-  13 2.28  14 2.30  42 2.34  56 2.39
  33  0.583  0.836  0.486-  53 2.22  20 2.26  52 2.30  73 2.33
  34  0.205  0.566  0.470-   2 1.52  13 2.27  58 2.32  70 2.35
  35  0.801  0.714  0.583-  42 2.30  15 2.33  12 2.42
  36  0.736  0.441  0.449-  77 2.36  10 2.37  45 2.40  80 2.50
  37  0.209  0.078  0.420-  31 2.19  71 2.28  43 2.45
  38  0.992  0.550  0.410-  66 2.28  74 2.55  58 2.65
  39  0.078  0.993  0.623-   6 2.22  28 2.29  62 2.35
  40  0.645  0.226  0.534-   3 1.47  69 2.30  80 2.33  41 2.45
  41  0.537  0.106  0.508-  52 2.18  63 2.34  65 2.38  40 2.45
  42  0.919  0.804  0.553-  35 2.30  32 2.34  62 2.40  79 2.51
  43  0.086  0.017  0.473-   6 2.35  56 2.35  16 2.40  37 2.45
  44  0.924  0.800  0.398-  21 2.29  74 2.31  79 2.38
  45  0.847  0.346  0.407-  68 2.34  36 2.40  64 2.44
  46  0.547  0.776  0.621-  73 2.32  12 2.48
  47  0.475  0.332  0.437-  55 2.25  49 2.38   8 2.42  80 2.44
  48  0.748  0.974  0.564-  52 2.40  12 2.48  29 2.71
  49  0.506  0.212  0.379-  47 2.38  63 2.42
  50  0.551  0.456  0.556-   7 2.36  57 2.37  80 2.39  61 2.51
  51  0.463  0.688  0.386-  54 2.32  24 2.38  53 2.39
  52  0.597  0.973  0.528-   4 1.50  41 2.18  33 2.30  48 2.40
  53  0.525  0.834  0.410-  33 2.22  18 2.24  51 2.39
  54  0.528  0.570  0.433-  77 2.24  55 2.25  51 2.32   7 2.33
  55  0.429  0.465  0.402-   5 1.53  54 2.25  47 2.25
  56  0.131  0.861  0.475-  72 2.30  21 2.33  43 2.35  32 2.39
  57  0.657  0.432  0.622-  26 2.29  69 2.29  50 2.37
  58  0.151  0.637  0.399-  34 2.32  21 2.46  38 2.65  24 2.68
  59  0.098  0.332  0.411-  70 2.26  71 2.34  64 2.45  11 3.09
  60  0.109  0.543  0.612-  22 2.32  67 2.41  13 2.45
  61  0.394  0.442  0.595-  27 2.35  67 2.47  50 2.51
  62  0.956  0.887  0.628-  39 2.35  42 2.40
  63  0.566  0.081  0.424-  17 2.30  41 2.34  18 2.40  49 2.42
  64  0.965  0.247  0.443-  78 2.27  16 2.32  45 2.44  59 2.45
  65  0.381  0.063  0.522-  81 2.29  41 2.38  31 2.38  23 2.40
  66  0.985  0.506  0.491-  38 2.28  13 2.36  10 2.45  11 2.87
  67  0.273  0.548  0.623-  30 2.36  60 2.41  61 2.47
  68  0.783  0.213  0.372-  45 2.34  17 2.57
  69  0.652  0.275  0.615-  57 2.29  40 2.30
  70  0.186  0.405  0.467-  59 2.26  11 2.28  34 2.35   8 2.52
  71  0.221  0.230  0.400-  37 2.28  59 2.34   8 2.41
  72  0.287  0.843  0.468-  56 2.30  24 2.35  25 2.37  31 2.45
  73  0.500  0.742  0.540-  25 2.24   7 2.31  46 2.32  33 2.33
  74  0.872  0.658  0.372-  44 2.31  76 2.37  38 2.55
  75  0.160  0.214  0.555-  81 2.34  11 2.37   6 2.41
  76  0.721  0.703  0.392-  20 2.21  77 2.34  74 2.37
  77  0.666  0.553  0.397-  54 2.24  76 2.34  36 2.36
  78  0.936  0.283  0.524-   1 1.55  64 2.27   9 2.38  11 2.38  19 2.98
  79  0.855  0.860  0.472-  29 2.35  20 2.37  44 2.38  42 2.51
  80  0.606  0.360  0.491-  40 2.33  50 2.39  47 2.44  36 2.50
  81  0.318  0.205  0.539-  65 2.29  75 2.34  27 2.34   8 2.42

  LATTYP: Found a simple tetragonal cell.
 ALAT       =    14.5307357155
 C/A-ratio  =     1.8505956564
  
  Lattice vectors:
  
 A1 = (  14.5307357155,   0.0000000000,   0.0000000000)
 A2 = (   0.0000000000,  14.5307357155,   0.0000000000)
 A3 = (   0.0000000000,   0.0000000000,  26.8905164000)


Analysis of symmetry for initial positions (statically):
=====================================================================
 Subroutine PRICEL returns:
 Original cell was already a primitive cell.
 

 Routine SETGRP: Setting up the symmetry group for a 
 simple tetragonal supercell.


 Subroutine GETGRP returns: Found  1 space group operations
 (whereof  1 operations were pure point group operations)
 out of a pool of 16 trial point group operations.


The static configuration has the point symmetry C_1 .


Analysis of symmetry for dynamics (positions and initial velocities):
=====================================================================
 Subroutine PRICEL returns:
 Original cell was already a primitive cell.
 

 Routine SETGRP: Setting up the symmetry group for a 
 simple tetragonal supercell.


 Subroutine GETGRP returns: Found  1 space group operations
 (whereof  1 operations were pure point group operations)
 out of a pool of 16 trial point group operations.


The dynamic configuration has the point symmetry C_1 .


 Subroutine INISYM returns: Found  1 space group operations
 (whereof  1 operations are pure point group operations),
 and found     1 'primitive' translations


----------------------------------------------------------------------------------------

                                     Primitive cell                                     

  volume of cell :    5677.7250

  direct lattice vectors                    reciprocal lattice vectors
    14.530735716  0.000000000  0.000000000     0.068819640  0.000000000  0.000000000
     0.000000000 14.530735716  0.000000000     0.000000000  0.068819640  0.000000000
     0.000000000  0.000000000 26.890516400     0.000000000  0.000000000  0.037187832

  length of vectors
    14.530735716 14.530735716 26.890516400     0.068819640  0.068819640  0.037187832

  position of ions in fractional coordinates (direct lattice)
     0.861353495  0.359413322  0.521463634
     0.302496727  0.597875439  0.478955711
     0.739928123  0.198578383  0.522790496
     0.540040102  0.968891065  0.574441791
     0.336300934  0.479190465  0.427492958
     0.068360819  0.075930773  0.553417278
     0.558772808  0.600846383  0.516525090
     0.319634882  0.294930696  0.462982050
     0.921027005  0.126826338  0.548447125
     0.821988661  0.509369253  0.513699187
     0.086472566  0.349435851  0.525536817
     0.705717880  0.837610720  0.614443254
     0.095915309  0.603254382  0.527315883
     0.162318691  0.787331091  0.602521951
     0.722186420  0.638520319  0.519773819
     0.956014910  0.088798670  0.433590647
     0.722840206  0.066465389  0.414057366
     0.457897668  0.969765074  0.394022310
     0.906292720  0.210129759  0.626331832
     0.719323523  0.770614800  0.466050046
     0.081408817  0.791047351  0.402005050
     0.067019456  0.389093857  0.619578150
     0.367338592  0.945581853  0.584669932
     0.309235546  0.729956157  0.406683986
     0.357440263  0.800193481  0.544410014
     0.806786403  0.470297591  0.604102062
     0.381130048  0.282208698  0.607176752
     0.220352917  0.925562220  0.628121682
     0.818148525  0.017527330  0.473346670
     0.297619479  0.707761823  0.613988075
     0.330173922  0.000708361  0.445272089
     0.069885656  0.757057331  0.535218297
     0.583466671  0.835511721  0.486492569
     0.204637952  0.565844714  0.470039928
     0.800826622  0.713866125  0.583266463
     0.736115515  0.441160732  0.448504455
     0.209316999  0.078160530  0.420085142
     0.991787359  0.549976970  0.409542020
     0.078093086  0.993005467  0.622505576
     0.644562683  0.226345731  0.534019733
     0.536619766  0.105870758  0.508459049
     0.919031236  0.803689519  0.553098207
     0.086158060  0.017112898  0.472684727
     0.924130771  0.800110898  0.398431002
     0.846763732  0.345726472  0.406960069
     0.547144354  0.776244247  0.620514539
     0.475117718  0.331542745  0.436935692
     0.748489286  0.973935544  0.563853671
     0.505970939  0.212043634  0.379025685
     0.550828269  0.456408411  0.556497918
     0.462905673  0.687722232  0.386271251
     0.597122552  0.973171646  0.527926879
     0.524831650  0.833935751  0.410099094
     0.527557596  0.570254677  0.433001963
     0.429497179  0.465116160  0.402120444
     0.130947946  0.861477371  0.475027188
     0.657484947  0.432004967  0.621688187
     0.150769379  0.636625714  0.398586671
     0.097810601  0.331619823  0.411165269
     0.108503109  0.542706863  0.612073274
     0.393927060  0.441665180  0.594824813
     0.956001146  0.887436139  0.627527049
     0.566409035  0.081195476  0.423998046
     0.964582955  0.247202211  0.443458438
     0.380613901  0.063381168  0.522487415
     0.984960451  0.505911066  0.490716363
     0.272907723  0.548365214  0.623391018
     0.782809640  0.213359465  0.371878318
     0.652368895  0.274783747  0.615398981
     0.186413135  0.405306387  0.467414095
     0.220889022  0.230090208  0.399910074
     0.287436237  0.843123173  0.468058561
     0.499883154  0.741552266  0.540241258
     0.872467867  0.657864831  0.371880984
     0.160089623  0.214199753  0.554721828
     0.720637978  0.703474359  0.392402892
     0.666024776  0.552541878  0.397349134
     0.936387549  0.283470162  0.524267968
     0.855159728  0.859832581  0.471971092
     0.606468948  0.360321742  0.491064813
     0.318200681  0.204670297  0.538686434

  ion indices of the primitive-cell ions
   primitive index   ion index
                 1           1
                 2           2
                 3           3
                 4           4
                 5           5
                 6           6
                 7           7
                 8           8
                 9           9
                10          10
                11          11
                12          12
                13          13
                14          14
                15          15
                16          16
                17          17
                18          18
                19          19
                20          20
                21          21
                22          22
                23          23
                24          24
                25          25
                26          26
                27          27
                28          28
                29          29
                30          30
                31          31
                32          32
                33          33
                34          34
                35          35
                36          36
                37          37
                38          38
                39          39
                40          40
                41          41
                42          42
                43          43
                44          44
                45          45
                46          46
                47          47
                48          48
                49          49
                50          50
                51          51
                52          52
                53          53
                54          54
                55          55
                56          56
                57          57
                58          58
                59          59
                60          60
                61          61
                62          62
                63          63
                64          64
                65          65
                66          66
                67          67
                68          68
                69          69
                70          70
                71          71
                72          72
                73          73
                74          74
                75          75
                76          76
                77          77
                78          78
                79          79
                80          80
                81          81

----------------------------------------------------------------------------------------


 -----------------------------------------------------------------------------
|                                                                             |
|           W    W    AA    RRRRR   N    N  II  N    N   GGGG   !!!           |
|           W    W   A  A   R    R  NN   N  II  NN   N  G    G  !!!           |
|           W    W  A    A  R    R  N N  N  II  N N  N  G       !!!           |
|           W WW W  AAAAAA  RRRRR   N  N N  II  N  N N  G  GGG   !            |
|           WW  WW  A    A  R   R   N   NN  II  N   NN  G    G                |
|           W    W  A    A  R    R  N    N  II  N    N   GGGG   !!!           |
|                                                                             |
|     The requested file  could not be found or opened for reading            |
|     k-point information. Automatic k-point generation is used as a          |
|     fallback, which may lead to unwanted results.                           |
|                                                                             |
 -----------------------------------------------------------------------------



Automatic generation of k-mesh.
 Grid dimensions derived from KSPACING:
 generate k-points for:    2    2    2

 Generating k-lattice:

  Cartesian coordinates                     Fractional coordinates (reciprocal lattice)
     0.034409820  0.000000000  0.000000000     0.500000000  0.000000000  0.000000000
     0.000000000  0.034409820  0.000000000     0.000000000  0.500000000  0.000000000
     0.000000000  0.000000000  0.018593916     0.000000000  0.000000000  0.500000000

  Length of vectors
     0.034409820  0.034409820  0.018593916

  Shift w.r.t. Gamma in fractional coordinates (k-lattice)
     0.000000000  0.000000000  0.000000000

 
 Subroutine IBZKPT returns following result:
 ===========================================
 
 Found      8 irreducible k-points:
 
 Following reciprocal coordinates:
            Coordinates               Weight
  0.000000  0.000000  0.000000      1.000000
  0.500000  0.000000  0.000000      1.000000
  0.000000  0.500000  0.000000      1.000000
  0.500000  0.500000  0.000000      1.000000
  0.000000  0.000000  0.500000      1.000000
  0.500000  0.000000  0.500000      1.000000
  0.000000  0.500000  0.500000      1.000000
  0.500000  0.500000  0.500000      1.000000
 
 Following cartesian coordinates:
            Coordinates               Weight
  0.000000  0.000000  0.000000      1.000000
  0.034410  0.000000  0.000000      1.000000
  0.000000  0.034410  0.000000      1.000000
  0.034410  0.034410  0.000000      1.000000
  0.000000  0.000000  0.018594      1.000000
  0.034410  0.000000  0.018594      1.000000
  0.000000  0.034410  0.018594      1.000000
  0.034410  0.034410  0.018594      1.000000
 


--------------------------------------------------------------------------------------------------------




 Dimension of arrays:
   k-points           NKPTS =      8   k-points in BZ     NKDIM =      8   number of bands    NBANDS=    200
   number of dos      NEDOS =   2000   number of ions     NIONS =     81
   non local maximal  LDIM  =      4   non local SUM 2l+1 LMDIM =      8
   total plane-waves  NPLWV = ******
   max r-space proj   IRMAX =      1   max aug-charges    IRDMAX= 425635
   dimension x,y,z NGX =   168 NGY =  168 NGZ =  320
   dimension x,y,z NGXF=   336 NGYF=  336 NGZF=  640
   support grid    NGXF=   672 NGYF=  672 NGZF= 1280
   ions per type =               5  76
   NGX,Y,Z   is equivalent  to a cutoff of  19.22, 19.22, 19.78 a.u.
   NGXF,Y,Z  is equivalent  to a cutoff of  38.44, 38.44, 39.57 a.u.

 SYSTEM =  a-Si SPC                                
 POSCAR =   H Si                                   

 Startparameter for this run:
   NWRITE =      2    write-flag & timer
   PREC   = accura    normal or accurate (medium, high low for compatibility)
   ISTART =      1    job   : 0-new  1-cont  2-samecut
   ICHARG =      1    charge: 1-file 2-atom 10-const
   ISPIN  =      1    spin polarized calculation?
   LNONCOLLINEAR =      F non collinear calculations
   LSORBIT =      F    spin-orbit coupling
   INIWAV =      1    electr: 0-lowe 1-rand  2-diag
   LASPH  =      T    aspherical Exc in radial PAW
 Electronic Relaxation 1
   ENCUT  = 1200.0 eV  88.20 Ry    9.39 a.u.  41.04 41.04 75.95*2*pi/ulx,y,z
   ENINI  = 1200.0     initial cutoff
   ENAUG  =  400.0 eV  augmentation charge cutoff
   NELM   =    150;   NELMIN=  2; NELMDL=  0     # of ELM steps 
   EDIFF  = 0.1E-05   stopping-criterion for ELM
   LREAL  =      F    real-space projection
   NLSPLINE    = F    spline interpolate recip. space projectors
   LCOMPAT=      F    compatible to vasp.4.4
   GGA_COMPAT  = T    GGA compatible to vasp.4.4-vasp.4.6
   LMAXPAW     = -100 max onsite density
   LMAXMIX     =    2 max onsite mixed and CHGCAR
   VOSKOWN=      0    Vosko Wilk Nusair interpolation
   ROPT   =    0.00000   0.00000
 Ionic relaxation
   EDIFFG = -.1E-01   stopping-criterion for IOM
   NSW    =      0    number of steps for IOM
   NBLOCK =      1;   KBLOCK =      1    inner block; outer block 
   IBRION =     -1    ionic relax: 0-MD 1-quasi-New 2-CG
   NFREE  =      0    steps in history (QN), initial steepest desc. (CG)
   ISIF   =      2    stress and relaxation
   IWAVPR =     10    prediction:  0-non 1-charg 2-wave 3-comb
   ISYM   =      1    0-nonsym 1-usesym 2-fastsym
   LCORR  =      T    Harris-Foulkes like correction to forces

   POTIM  = 0.5000    time-step for ionic-motion
   TEIN   =    0.0    initial temperature
   TEBEG  =    0.0;   TEEND  =   0.0 temperature during run
   SMASS  =  -3.00    Nose mass-parameter (am)
   estimated Nose-frequenzy (Omega)   =  0.10E-29 period in steps = 0.13E+47 mass=  -0.483E-26a.u.
   SCALEE = 1.0000    scale energy and forces
   NPACO  =    256;   APACO  = 10.0  distance and # of slots for P.C.
   PSTRESS=    0.0 pullay stress

  Mass of Ions in am
   POMASS =   1.00 28.09
  Ionic Valenz
   ZVAL   =   1.00  4.00
  Atomic Wigner-Seitz radii
   RWIGS  =  -1.00 -1.00
  virtual crystal weights 
   VCA    =   1.00  1.00
   NELECT =     309.0000    total number of electrons
   NUPDOWN=      -1.0000    fix difference up-down

 DOS related values:
   EMIN   =  10.00;   EMAX   =-10.00  energy-range for DOS
   EFERMI =   0.00;   METHOD = LEGACY      
   ISMEAR =     0;   SIGMA  =   0.10  broadening in eV -4-tet -1-fermi 0-gaus
   EFERMI_NEDOS =   21; number of points for ismear=-14 and -15

 Electronic relaxation 2 (details)
   IALGO  =     38    algorithm
   LDIAG  =      F    sub-space diagonalisation (order eigenvalues)
   LSUBROT=      F    optimize rotation matrix (better conditioning)
   TURBO    =      0    0=normal 1=particle mesh
   IRESTART =      0    0=no restart 2=restart with 2 vectors
   NREBOOT  =      0    no. of reboots
   NMIN     =      0    reboot dimension
   EREF     =   0.00    reference energy to select bands
   IMIX   =      4    mixing-type and parameters
     AMIX     =   0.40;   BMIX     =  1.00
     AMIX_MAG =   1.60;   BMIX_MAG =  1.00
     AMIN     =   0.10
     WC   =   100.;   INIMIX=   1;  MIXPRE=   1;  MAXMIX= -45

 Intra band minimization:
   WEIMIN = 0.0000     energy-eigenvalue tresh-hold
   EBREAK =  0.13E-08  absolut break condition
   DEPER  =   0.30     relativ break condition  

   TIME   =   0.40     timestep for ELM

  volume/ion in A,a.u.               =      70.10       473.03
  Fermi-wavevector in a.u.,A,eV,Ry     =   0.620397  1.172380  5.236776  0.384892
  Thomas-Fermi vector in A             =   1.679533

 Write flags
   LWAVE        =      F    write WAVECAR
   LDOWNSAMPLE  =      F    k-point downsampling of WAVECAR
   LCHARG       =      F    write CHGCAR
   LVTOT        =      F    write LOCPOT, total local potential
   LVHAR        =      F    write LOCPOT, Hartree potential only
   WRT_POTENTIAL= false  ! write potential to hdf5 file
   LELF         =      F    write electronic localiz. function (ELF)
   LORBIT       =     11    0 simple, 1 ext, 2 COOP (PROOUT), +10 PAW based schemes


 Python interface
   PLUGINS active      =      F    recompile with -DPLUGINS to activate

 Dipole corrections
   LMONO      =      F    monopole corrections only (constant potential shift)
   LDIPOL     =      F    correct potential (dipole corrections)
   IDIPOL     =      0    1-x, 2-y, 3-z, 4-all directions 
   EPSILON    =  1.0000000 bulk dielectric constant
   LVACPOTAV  =      F  vacuum potentials using an averaging scheme for the charge density
   VACPOTFLAT =  0.1000000 required flatness to determine vacuum potential

Coulomb truncation method
  LTRUNCATE          =      F  Coulomb kernel truncation to be used
  IDIMENSIONALITY    =      3  Dimensionality of cutoff (0 molecules / 2 surfaces)
  ISURFACE           =     -1  Direction of surface normal
  LCOARSEN           =      F  Coarsen the charge grid before padding, preferred


 Exchange correlation treatment:
   METAGGA = SCAN    functional components
   XC_C    = 1    coefficients multiplying the functional components
   LIBXC   =     F    Libxc                    
   VOSKOWN =     0    Vosko Wilk Nusair interpolation
   LHFCALC =     F    Hartree Fock is set to
   LHFONE  =     F    Hartree Fock one center treatment
   AEXX    =    0.0000 exact exchange contribution

 Parameters of functionals:
   SCAN:
     P1 =  0.000000E+00
     P2 =  0.000000E+00
     P3 =  0.000000E+00

 Accuracy and mixing parameters for tau-dependent meta-GGA functionals:
   LMAXTAU = 6
   LMIXTAU = T

 Van der Waals corrections
   IVDW    =     0    specifies the selected vdW correction

 Linear response parameters
   LEPSILON=     F    determine dielectric tensor
   LRPA    =     F    only Hartree local field effects (RPA)
   LNABLA  =     F    use nabla operator in PAW spheres
   LVEL    =     F    velocity operator in full k-point grid
   CSHIFT  =0.1000    complex shift for real part using Kramers Kronig
   OMEGAMAX=  -1.0    maximum frequency
   DEG_THRESHOLD= 0.2000000E-02 threshold for treating states as degnerate
   RTIME   =   -0.100 relaxation time in fs
  (WPLASMAI=    0.000 imaginary part of plasma frequency in eV, 0.658/RTIME)
   DFIELD  = 0.0000000 0.0000000 0.0000000 field for delta impulse in time

  Optional k-point grid parameters
   LKPOINTS_OPT  =     F    use optional k-point grid
   KPOINTS_OPT_MODE=     1    mode for optional k-point grid

 Orbital magnetization related:
   ORBITALMAG=     F  switch on orbital magnetization
   LCHIMAG   =     F  perturbation theory with respect to B field
   DQ        =  0.001000  dq finite difference perturbation B field
   LLRAUG    =     F  two centre corrections for induced B field
   LBONE     =     F  B-component reconstruction in AE one-centre
   LVGVCALC  =     T  calculate vGv susceptibility
   LVGVAPPL  =     F  apply vGv susceptibility instead of pGv for G=0

 Random number generation:
   RANDOM_GENERATOR = DEFAULT
   PCG_SEED         = not used


--------------------------------------------------------------------------------------------------------


 Static calculation
 charge density and potential will be updated during run
 non-spin polarized calculation
 Variant of blocked Davidson
 perform Loewdin sub-space diagonalisation
    ordering is kept fixed
    before iterative eigenvector-optimisation
 modified Broyden-mixing scheme, WC =      100.0
 initial mixing is a Kerker type mixing with AMIX =  0.4000 and BMIX =      1.0000
 Hartree-type preconditioning will be used
 using additional bands           45
 reciprocal scheme for non local part
 use partial core corrections
 calculate Harris-corrections to forces   (improved forces if not selfconsistent)
 use gradient corrections 
 use of overlap-Matrix (Vanderbilt PP)
 Gauss-broadening in eV      SIGMA  =   0.10


--------------------------------------------------------------------------------------------------------


  energy-cutoff  :     1200.00
  volume of cell :     5677.72
      direct lattice vectors                 reciprocal lattice vectors
    14.530735716  0.000000000  0.000000000     0.068819640  0.000000000  0.000000000
     0.000000000 14.530735716  0.000000000     0.000000000  0.068819640  0.000000000
     0.000000000  0.000000000 26.890516400     0.000000000  0.000000000  0.037187832

  length of vectors
    14.530735716 14.530735716 26.890516400     0.068819640  0.068819640  0.037187832



 old parameters found on file WAVECAR:
  energy-cutoff  :     1200.00
  volume of cell :     5677.72
      direct lattice vectors                 reciprocal lattice vectors
    14.530735716  0.000000000  0.000000000     0.068819640  0.000000000  0.000000000
     0.000000000 14.530735716  0.000000000     0.000000000  0.068819640  0.000000000
     0.000000000  0.000000000 26.890516400     0.000000000  0.000000000  0.037187832

  length of vectors


 k-points in units of 2pi/SCALE and weight: read from INCAR                         
   0.00000000  0.00000000  0.00000000       0.125
   0.03440982  0.00000000  0.00000000       0.125
   0.00000000  0.03440982  0.00000000       0.125
   0.03440982  0.03440982  0.00000000       0.125
   0.00000000  0.00000000  0.01859392       0.125
   0.03440982  0.00000000  0.01859392       0.125
   0.00000000  0.03440982  0.01859392       0.125
   0.03440982  0.03440982  0.01859392       0.125

 k-points in reciprocal lattice and weights: read from INCAR                         
   0.00000000  0.00000000  0.00000000       0.125
   0.50000000  0.00000000  0.00000000       0.125
   0.00000000  0.50000000  0.00000000       0.125
   0.50000000  0.50000000  0.00000000       0.125
   0.00000000  0.00000000  0.50000000       0.125
   0.50000000  0.00000000  0.50000000       0.125
   0.00000000  0.50000000  0.50000000       0.125
   0.50000000  0.50000000  0.50000000       0.125

 position of ions in fractional coordinates (direct lattice) 
   0.86135350  0.35941332  0.52146363
   0.30249673  0.59787544  0.47895571
   0.73992812  0.19857838  0.52279050
   0.54004010  0.96889106  0.57444179
   0.33630093  0.47919046  0.42749296
   0.06836082  0.07593077  0.55341728
   0.55877281  0.60084638  0.51652509
   0.31963488  0.29493070  0.46298205
   0.92102701  0.12682634  0.54844712
   0.82198866  0.50936925  0.51369919
   0.08647257  0.34943585  0.52553682
   0.70571788  0.83761072  0.61444325
   0.09591531  0.60325438  0.52731588
   0.16231869  0.78733109  0.60252195
   0.72218642  0.63852032  0.51977382
   0.95601491  0.08879867  0.43359065
   0.72284021  0.06646539  0.41405737
   0.45789767  0.96976507  0.39402231
   0.90629272  0.21012976  0.62633183
   0.71932352  0.77061480  0.46605005
   0.08140882  0.79104735  0.40200505
   0.06701946  0.38909386  0.61957815
   0.36733859  0.94558185  0.58466993
   0.30923555  0.72995616  0.40668399
   0.35744026  0.80019348  0.54441001
   0.80678640  0.47029759  0.60410206
   0.38113005  0.28220870  0.60717675
   0.22035292  0.92556222  0.62812168
   0.81814853  0.01752733  0.47334667
   0.29761948  0.70776182  0.61398807
   0.33017392  0.00070836  0.44527209
   0.06988566  0.75705733  0.53521830
   0.58346667  0.83551172  0.48649257
   0.20463795  0.56584471  0.47003993
   0.80082662  0.71386613  0.58326646
   0.73611551  0.44116073  0.44850445
   0.20931700  0.07816053  0.42008514
   0.99178736  0.54997697  0.40954202
   0.07809309  0.99300547  0.62250558
   0.64456268  0.22634573  0.53401973
   0.53661977  0.10587076  0.50845905
   0.91903124  0.80368952  0.55309821
   0.08615806  0.01711290  0.47268473
   0.92413077  0.80011090  0.39843100
   0.84676373  0.34572647  0.40696007
   0.54714435  0.77624425  0.62051454
   0.47511772  0.33154274  0.43693569
   0.74848929  0.97393554  0.56385367
   0.50597094  0.21204363  0.37902569
   0.55082827  0.45640841  0.55649792
   0.46290567  0.68772223  0.38627125
   0.59712255  0.97317165  0.52792688
   0.52483165  0.83393575  0.41009909
   0.52755760  0.57025468  0.43300196
   0.42949718  0.46511616  0.40212044
   0.13094795  0.86147737  0.47502719
   0.65748495  0.43200497  0.62168819
   0.15076938  0.63662571  0.39858667
   0.09781060  0.33161982  0.41116527
   0.10850311  0.54270686  0.61207327
   0.39392706  0.44166518  0.59482481
   0.95600115  0.88743614  0.62752705
   0.56640904  0.08119548  0.42399805
   0.96458296  0.24720221  0.44345844
   0.38061390  0.06338117  0.52248741
   0.98496045  0.50591107  0.49071636
   0.27290772  0.54836521  0.62339102
   0.78280964  0.21335947  0.37187832
   0.65236889  0.27478375  0.61539898
   0.18641314  0.40530639  0.46741410
   0.22088902  0.23009021  0.39991007
   0.28743624  0.84312317  0.46805856
   0.49988315  0.74155227  0.54024126
   0.87246787  0.65786483  0.37188098
   0.16008962  0.21419975  0.55472183
   0.72063798  0.70347436  0.39240289
   0.66602478  0.55254188  0.39734913
   0.93638755  0.28347016  0.52426797
   0.85515973  0.85983258  0.47197109
   0.60646895  0.36032174  0.49106481
   0.31820068  0.20467030  0.53868643

 position of ions in cartesian coordinates  (Angst):
  12.51610000  5.22254000 14.02242640
   4.39550000  8.68757000 12.87936640
  10.75170000  2.88549000 14.05810640
   7.84718000 14.07870000 15.44703640
   4.88670000  6.96299000 11.49550640
   0.99333300  1.10333000 14.88167640
   8.11938000  8.73074000 13.88962640
   4.64453000  4.28556000 12.44982640
  13.38320000  1.84288000 14.74802640
  11.94410000  7.40151000 13.81363640
   1.25651000  5.07756000 14.13195640
  10.25460000 12.17110000 16.52269640
   1.39372000  8.76573000 14.17979640
   2.35861000 11.44050000 16.20212640
  10.49390000  9.27817000 13.97698640
  13.89160000  1.29031000 11.65947640
  10.50340000  0.96579100 11.13421640
   6.65359000 14.09140000 10.59546340
  13.16910000  3.05334000 16.84238640
  10.45230000 11.19760000 12.53232640
   1.18293000 11.49450000 10.81012340
   0.97384200  5.65382000 16.66077640
   5.33770000 13.74000000 15.72207640
   4.49342000 10.60680000 10.93594240
   5.19387000 11.62740000 14.63946640
  11.72320000  6.83377000 16.24461640
   5.53810000  4.10070000 16.32729640
   3.20189000 13.44910000 16.89051640
  11.88830000  0.25468500 12.72853640
   4.32463000 10.28430000 16.51045640
   4.79767000  0.01029300 11.97359640
   1.01549000 11.00060000 14.39229640
   8.47820000 12.14060000 13.08203640
   2.97354000  8.22214000 12.63961640
  11.63660000 10.37300000 15.68433640
  10.69630000  6.41039000 12.06051640
   3.04153000  1.13573000 11.29630640
  14.41140000  7.99157000 11.01279640
   1.13475000 14.42910000 16.73949640
   9.36597000  3.28897000 14.36006640
   7.79748000  1.53838000 13.67272640
  13.35420000 11.67820000 14.87309640
   1.25194000  0.24866300 12.71073640
  13.42830000 11.62620000 10.71401540
  12.30410000  5.02366000 10.94336640
   7.95041000 11.27940000 16.68595640
   6.90381000  4.81756000 11.74942640
  10.87610000 14.15200000 15.16231640
   7.35213000  3.08115000 10.19219640
   8.00394000  6.63195000 14.96451640
   6.72636000  9.99311000 10.38703340
   8.67663000 14.14090000 14.19622640
   7.62619000 12.11770000 11.02777640
   7.66580000  8.28622000 11.64364640
   6.24091000  6.75848000 10.81322640
   1.90277000 12.51790000 12.77372640
   9.55374000  6.27735000 16.71751640
   2.19079000  9.25064000 10.71820140
   1.42126000  4.81868000 11.05644640
   1.57663000  7.88593000 16.45896640
   5.72405000  6.41772000 15.99514640
  13.89140000 12.89510000 16.87452640
   8.23034000  1.17983000 11.40152640
  14.01610000  3.59203000 11.92482640
   5.53060000  0.92097500 14.04995640
  14.31220000  7.35126000 13.19561640
   3.96555000  7.96815000 16.76330640
  11.37480000  3.10027000 10.00000000
   9.47940000  3.99281000 16.54839640
   2.70872000  5.88940000 12.56900640
   3.20968000  3.34338000 10.75378840
   4.17666000 12.25120000 12.58633640
   7.26367000 10.77530000 14.52736640
  12.67760000  9.55926000 10.00007170
   2.32622000  3.11248000 14.91675640
  10.47140000 10.22200000 10.55191640
   9.67783000  8.02884000 10.68492340
  13.60640000  4.11903000 14.09783640
  12.42610000 12.49400000 12.69154640
   8.81244000  5.23574000 13.20498640
   4.62369000  2.97401000 14.48555640



--------------------------------------------------------------------------------------------------------


 k-point     1 :   0.0000 0.0000 0.0000  plane waves:  535959
 k-point     2 :   0.5000 0.0000 0.0000  plane waves:  535906
 k-point     3 :   0.0000 0.5000 0.0000  plane waves:  535906
 k-point     4 :   0.5000 0.5000 0.0000  plane waves:  535948
 k-point     5 :   0.0000 0.0000 0.5000  plane waves:  535736
 k-point     6 :   0.5000 0.0000 0.5000  plane waves:  535948
 k-point     7 :   0.0000 0.5000 0.5000  plane waves:  535948
 k-point     8 :   0.5000 0.5000 0.5000  plane waves:  536048

 maximum and minimum number of plane-waves per node :     33578    33424

 maximum number of plane-waves:    536048
 maximum index in each direction: 
   IXMAX=   41   IYMAX=   41   IZMAX=   75
   IXMIN=  -41   IYMIN=  -41   IZMIN=  -76


 parallel 3D FFT for wavefunctions:
    minimum data exchange during FFTs selected (reduces bandwidth)
 parallel 3D FFT for charge:
    minimum data exchange during FFTs selected (reduces bandwidth)


 total amount of memory used by VASP MPI-rank0   408328. kBytes
=======================================================================

   base                                    :      30000. kBytes
   nonl-proj                               :      77896. kBytes
   fftplans                                :     108827. kBytes
   grid                                    :      83991. kBytes
   one-center                              :         18. kBytes
   wavefun                                 :     107596. kBytes

     INWAV:  cpu time     32.5273: real time     32.5469
 Broyden mixing: mesh for mixing (old mesh)
   NGX = 83   NGY = 83   NGZ =151
  (NGX  =336   NGY  =336   NGZ  =640)
  gives a total of ****** points

 initial charge density was supplied:
 number of electron     308.9999999 magnetization 
 keeping initial charge density in first step


--------------------------------------------------------------------------------------------------------


 Maximum index for augmentation-charges        11659 (set IRDMAX)


--------------------------------------------------------------------------------------------------------


 First call to EWALD:  gamma=   0.099
 Maximum number of real-space cells   3x   3x   2
 Maximum number of reciprocal cells   2x   2x   4

    FEWALD:  cpu time      0.0119: real time      0.0119


--------------------------------------- Ionic step        1  -------------------------------------------




--------------------------------------- Iteration      1(   1)  ---------------------------------------


    POTLOK:  cpu time      2.1873: real time      2.1884
    SETDIJ:  cpu time      1.5684: real time      1.5700
    EDDIAG:  cpu time     66.2364: real time     66.2761
     EDDAV:  cpu time    294.1350: real time    294.3043
       DOS:  cpu time      0.0087: real time      0.0089
    CHARGE:  cpu time     37.1707: real time     37.2061
    MIXING:  cpu time      0.0525: real time      0.0526
    --------------------------------------------
      LOOP:  cpu time    401.3591: real time    401.6064

 eigenvalue-minimisations  :  3200
 total energy-change (2. order) :-0.7620874E+03  (-0.8845284E+00)
 number of electron     308.9999999 magnetization 
 augmentation part      -17.4857299 magnetization 

 Broyden mixing:
  rms(total) = 0.10122E+01    rms(broyden)= 0.22785E+02
  rms(prec ) = 0.10391E+01
  weight for this iteration     100.00
  WARNING: grid for Broyden might be to small

 Free energy of the ion-electron system (eV)
  ---------------------------------------------------
  alpha Z        PSCENC =        35.47197536
  Ewald energy   TEWEN  =     39687.02356961
  -Hartree energ DENC   =    -46564.93193934
  -exchange      EXHF   =         0.00000000
  -V(xc)+E(xc)   XCENC  =      -374.61875917
  PAW double counting   =     25454.59078499   -24695.91322061
  entropy T*S    EENTRO =        -0.22238436
  eigenvalues    EBANDS =     -2199.00873968
  atomic energy  EATOM  =      7895.52132944
  Solvation  Ediel_sol  =         0.00000000
  ---------------------------------------------------
  free energy    TOTEN  =      -762.08738375 eV

  energy without entropy =     -761.86499939  energy(sigma->0) =     -761.97619157


--------------------------------------------------------------------------------------------------------




--------------------------------------- Iteration      1(   2)  ---------------------------------------


    POTLOK:  cpu time      2.1563: real time      2.1787
    SETDIJ:  cpu time      1.5557: real time      1.5565
    EDDIAG:  cpu time     66.1852: real time     66.2275
     EDDAV:  cpu time    294.7556: real time    294.9388
       DOS:  cpu time      0.0040: real time      0.0040
    CHARGE:  cpu time     37.0538: real time     37.0884
    MIXING:  cpu time      0.0445: real time      0.0445
    --------------------------------------------
      LOOP:  cpu time    401.7551: real time    402.0383

 eigenvalue-minimisations  :  3216
 total energy-change (2. order) : 0.5543909E+02  (-0.8159635E+00)
 number of electron     308.9999999 magnetization 
 augmentation part      -17.4296431 magnetization 

 Broyden mixing:
  rms(total) = 0.68583E+00    rms(broyden)= 0.13182E+02
  rms(prec ) = 0.69967E+00
  weight for this iteration     100.00
  WARNING: grid for Broyden might be to small

 eigenvalues of (default mixing * dielectric matrix)
  average eigenvalue GAMMA=   0.6336
  0.6336

 Free energy of the ion-electron system (eV)
  ---------------------------------------------------
  alpha Z        PSCENC =        35.47197536
  Ewald energy   TEWEN  =     39687.02356961
  -Hartree energ DENC   =    -46553.95201264
  -exchange      EXHF   =         0.00000000
  -V(xc)+E(xc)   XCENC  =      -366.12295401
  PAW double counting   =     30358.19947206   -29599.34353537
  entropy T*S    EENTRO =        -0.20414188
  eigenvalues    EBANDS =     -2163.24199811
  atomic energy  EATOM  =      7895.52132944
  Solvation  Ediel_sol  =         0.00000000
  ---------------------------------------------------
  free energy    TOTEN  =      -706.64829553 eV

  energy without entropy =     -706.44415365  energy(sigma->0) =     -706.54622459


--------------------------------------------------------------------------------------------------------




--------------------------------------- Iteration      1(   3)  ---------------------------------------


    POTLOK:  cpu time      2.1438: real time      2.1699
    SETDIJ:  cpu time      1.6423: real time      1.6433
    EDDIAG:  cpu time     66.2463: real time     66.2903
     EDDAV:  cpu time    295.3926: real time    295.5644
       DOS:  cpu time      0.0059: real time      0.0059
    CHARGE:  cpu time     37.0699: real time     37.1036
    MIXING:  cpu time      0.0420: real time      0.0420
    --------------------------------------------
      LOOP:  cpu time    402.5429: real time    402.8194

 eigenvalue-minimisations  :  3224
 total energy-change (2. order) :-0.2778074E+01  (-0.6798963E+00)
 number of electron     308.9999999 magnetization 
 augmentation part      -17.3714281 magnetization 

 Broyden mixing:
  rms(total) = 0.27260E+00    rms(broyden)= 0.20696E+02
  rms(prec ) = 0.34806E+00
  weight for this iteration     100.00
  WARNING: grid for Broyden might be to small

 eigenvalues of (default mixing * dielectric matrix)
  average eigenvalue GAMMA=   0.8287
  1.0302  0.6272

 Free energy of the ion-electron system (eV)
  ---------------------------------------------------
  alpha Z        PSCENC =        35.47197536
  Ewald energy   TEWEN  =     39687.02356961
  -Hartree energ DENC   =    -46552.42303119
  -exchange      EXHF   =         0.00000000
  -V(xc)+E(xc)   XCENC  =      -369.09770852
  PAW double counting   =     36399.06018466   -35640.34928998
  entropy T*S    EENTRO =        -0.20588429
  eigenvalues    EBANDS =     -2164.42751430
  atomic energy  EATOM  =      7895.52132944
  Solvation  Ediel_sol  =         0.00000000
  ---------------------------------------------------
  free energy    TOTEN  =      -709.42636920 eV

  energy without entropy =     -709.22048491  energy(sigma->0) =     -709.32342706


--------------------------------------------------------------------------------------------------------




--------------------------------------- Iteration      1(   4)  ---------------------------------------


    POTLOK:  cpu time      2.1467: real time      2.1735
    SETDIJ:  cpu time      1.5533: real time      1.5540
    EDDIAG:  cpu time     66.2849: real time     66.3246
     EDDAV:  cpu time    311.2816: real time    311.4611
       DOS:  cpu time      0.0033: real time      0.0033
    CHARGE:  cpu time     37.0588: real time     37.1149
    MIXING:  cpu time      0.0427: real time      0.0427
    --------------------------------------------
      LOOP:  cpu time    418.3713: real time    418.6741

 eigenvalue-minimisations  :  3544
 total energy-change (2. order) : 0.2939958E+00  (-0.7750108E-01)
 number of electron     308.9999999 magnetization 
 augmentation part      -17.3652496 magnetization 

 Broyden mixing:
  rms(total) = 0.79536E-01    rms(broyden)= 0.19531E+01
  rms(prec ) = 0.12905E+00
  weight for this iteration     100.00
  WARNING: grid for Broyden might be to small

 eigenvalues of (default mixing * dielectric matrix)
  average eigenvalue GAMMA=   1.0752
  1.9190  0.6912  0.6154

 Free energy of the ion-electron system (eV)
  ---------------------------------------------------
  alpha Z        PSCENC =        35.47197536
  Ewald energy   TEWEN  =     39687.02356961
  -Hartree energ DENC   =    -46552.80719705
  -exchange      EXHF   =         0.00000000
  -V(xc)+E(xc)   XCENC  =      -369.94814368
  PAW double counting   =     40649.17759225   -39890.52874222
  entropy T*S    EENTRO =        -0.20883775
  eigenvalues    EBANDS =     -2162.83391936
  atomic energy  EATOM  =      7895.52132944
  Solvation  Ediel_sol  =         0.00000000
  ---------------------------------------------------
  free energy    TOTEN  =      -709.13237340 eV

  energy without entropy =     -708.92353565  energy(sigma->0) =     -709.02795452


--------------------------------------------------------------------------------------------------------




--------------------------------------- Iteration      1(   5)  ---------------------------------------


    POTLOK:  cpu time      2.1487: real time      2.1764
    SETDIJ:  cpu time      1.5658: real time      1.5666
    EDDIAG:  cpu time     66.2673: real time     66.3065
     EDDAV:  cpu time    327.8432: real time    328.0317
       DOS:  cpu time      0.0036: real time      0.0111
    CHARGE:  cpu time     37.0431: real time     37.0763
    MIXING:  cpu time      0.0434: real time      0.0434
    --------------------------------------------
      LOOP:  cpu time    434.9152: real time    435.2120

 eigenvalue-minimisations  :  3872
 total energy-change (2. order) :-0.2546735E-01  (-0.1827669E-01)
 number of electron     308.9999999 magnetization 
 augmentation part      -17.3687674 magnetization 

 Broyden mixing:
  rms(total) = 0.64872E-01    rms(broyden)= 0.11294E+01
  rms(prec ) = 0.10668E+00
  weight for this iteration     100.00
  WARNING: grid for Broyden might be to small

 eigenvalues of (default mixing * dielectric matrix)
  average eigenvalue GAMMA=   1.0194
  2.3497  0.7501  0.6208  0.3569

 Free energy of the ion-electron system (eV)
  ---------------------------------------------------
  alpha Z        PSCENC =        35.47197536
  Ewald energy   TEWEN  =     39687.02356961
  -Hartree energ DENC   =    -46552.85435334
  -exchange      EXHF   =         0.00000000
  -V(xc)+E(xc)   XCENC  =      -370.89400803
  PAW double counting   =     40429.68256102   -39671.01523621
  entropy T*S    EENTRO =        -0.20366671
  eigenvalues    EBANDS =     -2161.89001190
  atomic energy  EATOM  =      7895.52132944
  Solvation  Ediel_sol  =         0.00000000
  ---------------------------------------------------
  free energy    TOTEN  =      -709.15784075 eV

  energy without entropy =     -708.95417404  energy(sigma->0) =     -709.05600740


--------------------------------------------------------------------------------------------------------




--------------------------------------- Iteration      1(   6)  ---------------------------------------


    POTLOK:  cpu time      2.1644: real time      2.1882
    SETDIJ:  cpu time      1.5626: real time      1.5634
    EDDIAG:  cpu time     66.2182: real time     66.2586
     EDDAV:  cpu time    308.4087: real time    308.5939
       DOS:  cpu time      0.0093: real time      0.0094
    CHARGE:  cpu time     37.0797: real time     37.1125
    MIXING:  cpu time      0.0580: real time      0.0597
    --------------------------------------------
      LOOP:  cpu time    415.5010: real time    415.7855

 eigenvalue-minimisations  :  3488
 total energy-change (2. order) : 0.1214783E-01  (-0.9740343E-02)
 number of electron     308.9999999 magnetization 
 augmentation part      -17.3673640 magnetization 

 Broyden mixing:
  rms(total) = 0.29489E-01    rms(broyden)= 0.20416E+00
  rms(prec ) = 0.32684E-01
  weight for this iteration     100.00
  WARNING: grid for Broyden might be to small

 eigenvalues of (default mixing * dielectric matrix)
  average eigenvalue GAMMA=   1.0101
  2.5508  0.9204  0.6215  0.6215  0.3364

 Free energy of the ion-electron system (eV)
  ---------------------------------------------------
  alpha Z        PSCENC =        35.47197536
  Ewald energy   TEWEN  =     39687.02356961
  -Hartree energ DENC   =    -46553.05976650
  -exchange      EXHF   =         0.00000000
  -V(xc)+E(xc)   XCENC  =      -371.09354611
  PAW double counting   =     40191.22122126   -39432.53906956
  entropy T*S    EENTRO =        -0.20603469
  eigenvalues    EBANDS =     -2161.48537173
  atomic energy  EATOM  =      7895.52132944
  Solvation  Ediel_sol  =         0.00000000
  ---------------------------------------------------
  free energy    TOTEN  =      -709.14569292 eV

  energy without entropy =     -708.93965823  energy(sigma->0) =     -709.04267557


--------------------------------------------------------------------------------------------------------




--------------------------------------- Iteration      1(   7)  ---------------------------------------


    POTLOK:  cpu time      2.1513: real time      2.1767
    SETDIJ:  cpu time      1.5604: real time      1.5624
    EDDIAG:  cpu time     66.2568: real time     66.2965
     EDDAV:  cpu time    302.0179: real time    302.1921
       DOS:  cpu time      0.0037: real time      0.0037
    CHARGE:  cpu time     37.0732: real time     37.1065
    MIXING:  cpu time      0.0437: real time      0.0437
    --------------------------------------------
      LOOP:  cpu time    409.1070: real time    409.3815

 eigenvalue-minimisations  :  3360
 total energy-change (2. order) : 0.1519461E-02  (-0.2175585E-02)
 number of electron     308.9999999 magnetization 
 augmentation part      -17.3663141 magnetization 

 Broyden mixing:
  rms(total) = 0.17688E-01    rms(broyden)= 0.14753E+00
  rms(prec ) = 0.19004E-01
  weight for this iteration     100.00
  WARNING: grid for Broyden might be to small

 eigenvalues of (default mixing * dielectric matrix)
  average eigenvalue GAMMA=   0.9788
  2.5713  1.0611  0.3376  0.7153  0.6193  0.5680

 Free energy of the ion-electron system (eV)
  ---------------------------------------------------
  alpha Z        PSCENC =        35.47197536
  Ewald energy   TEWEN  =     39687.02356961
  -Hartree energ DENC   =    -46552.68764669
  -exchange      EXHF   =         0.00000000
  -V(xc)+E(xc)   XCENC  =      -370.99598680
  PAW double counting   =     40172.07552346   -39413.38546183
  entropy T*S    EENTRO =        -0.20570984
  eigenvalues    EBANDS =     -2161.96176617
  atomic energy  EATOM  =      7895.52132944
  Solvation  Ediel_sol  =         0.00000000
  ---------------------------------------------------
  free energy    TOTEN  =      -709.14417346 eV

  energy without entropy =     -708.93846362  energy(sigma->0) =     -709.04131854


--------------------------------------------------------------------------------------------------------




--------------------------------------- Iteration      1(   8)  ---------------------------------------


    POTLOK:  cpu time      2.2158: real time      2.2413
    SETDIJ:  cpu time      1.5598: real time      1.5608
    EDDIAG:  cpu time     66.2684: real time     66.3117
     EDDAV:  cpu time    303.5857: real time    303.7654
       DOS:  cpu time      0.0057: real time      0.0057
    CHARGE:  cpu time     37.0536: real time     37.0872
    MIXING:  cpu time      0.0440: real time      0.0440
    --------------------------------------------
      LOOP:  cpu time    410.7329: real time    411.0161

 eigenvalue-minimisations  :  3384
 total energy-change (2. order) :-0.1376404E-02  (-0.7684511E-03)
 number of electron     308.9999999 magnetization 
 augmentation part      -17.3641976 magnetization 

 Broyden mixing:
  rms(total) = 0.54422E-02    rms(broyden)= 0.50554E-01
  rms(prec ) = 0.65138E-02
  weight for this iteration     100.00
  WARNING: grid for Broyden might be to small

 eigenvalues of (default mixing * dielectric matrix)
  average eigenvalue GAMMA=   0.9936
  2.5638  1.3904  0.8523  0.3396  0.6335  0.6335  0.5418

 Free energy of the ion-electron system (eV)
  ---------------------------------------------------
  alpha Z        PSCENC =        35.47197536
  Ewald energy   TEWEN  =     39687.02356961
  -Hartree energ DENC   =    -46552.03898971
  -exchange      EXHF   =         0.00000000
  -V(xc)+E(xc)   XCENC  =      -370.79348146
  PAW double counting   =     40188.72885557   -39430.02690474
  entropy T*S    EENTRO =        -0.20631506
  eigenvalues    EBANDS =     -2162.82558887
  atomic energy  EATOM  =      7895.52132944
  Solvation  Ediel_sol  =         0.00000000
  ---------------------------------------------------
  free energy    TOTEN  =      -709.14554986 eV

  energy without entropy =     -708.93923480  energy(sigma->0) =     -709.04239233


--------------------------------------------------------------------------------------------------------




--------------------------------------- Iteration      1(   9)  ---------------------------------------


    POTLOK:  cpu time      2.1603: real time      2.1729
    SETDIJ:  cpu time      1.5588: real time      1.5596
    EDDIAG:  cpu time     66.2890: real time     66.3289
     EDDAV:  cpu time    315.3271: real time    315.5170
       DOS:  cpu time      0.0040: real time      0.0040
    CHARGE:  cpu time     37.1211: real time     37.1577
    MIXING:  cpu time      0.0462: real time      0.0471
    --------------------------------------------
      LOOP:  cpu time    422.5068: real time    422.7876

 eigenvalue-minimisations  :  3616
 total energy-change (2. order) :-0.1336283E-03  (-0.1078038E-03)
 number of electron     308.9999999 magnetization 
 augmentation part      -17.3645488 magnetization 

 Broyden mixing:
  rms(total) = 0.26982E-02    rms(broyden)= 0.27760E-01
  rms(prec ) = 0.31884E-02
  weight for this iteration     100.00
  WARNING: grid for Broyden might be to small

 eigenvalues of (default mixing * dielectric matrix)
  average eigenvalue GAMMA=   1.0759
  2.5390  2.1536  0.9550  0.3407  0.7930  0.6765  0.6271  0.5226

 Free energy of the ion-electron system (eV)
  ---------------------------------------------------
  alpha Z        PSCENC =        35.47197536
  Ewald energy   TEWEN  =     39687.02356961
  -Hartree energ DENC   =    -46551.84128132
  -exchange      EXHF   =         0.00000000
  -V(xc)+E(xc)   XCENC  =      -370.82310869
  PAW double counting   =     40210.65427839   -39451.94942938
  entropy T*S    EENTRO =        -0.20597531
  eigenvalues    EBANDS =     -2162.99704160
  atomic energy  EATOM  =      7895.52132944
  Solvation  Ediel_sol  =         0.00000000
  ---------------------------------------------------
  free energy    TOTEN  =      -709.14568349 eV

  energy without entropy =     -708.93970818  energy(sigma->0) =     -709.04269583


--------------------------------------------------------------------------------------------------------




--------------------------------------- Iteration      1(  10)  ---------------------------------------


    POTLOK:  cpu time      2.1470: real time      2.1720
    SETDIJ:  cpu time      1.5569: real time      1.5576
    EDDIAG:  cpu time     66.2812: real time     66.3253
     EDDAV:  cpu time    308.0178: real time    308.1965
       DOS:  cpu time      0.0132: real time      0.0134
    CHARGE:  cpu time     37.0882: real time     37.1235
    MIXING:  cpu time      0.0612: real time      0.0623
    --------------------------------------------
      LOOP:  cpu time    415.1651: real time    415.4505

 eigenvalue-minimisations  :  3472
 total energy-change (2. order) :-0.7199127E-05  (-0.4434332E-04)
 number of electron     308.9999999 magnetization 
 augmentation part      -17.3646595 magnetization 

 Broyden mixing:
  rms(total) = 0.16449E-02    rms(broyden)= 0.99880E-02
  rms(prec ) = 0.19741E-02
  weight for this iteration     100.00
  WARNING: grid for Broyden might be to small

 eigenvalues of (default mixing * dielectric matrix)
  average eigenvalue GAMMA=   1.1082
  2.6082  2.6082  1.0515  0.3406  0.8059  0.7459  0.6632  0.6116  0.5383

 Free energy of the ion-electron system (eV)
  ---------------------------------------------------
  alpha Z        PSCENC =        35.47197536
  Ewald energy   TEWEN  =     39687.02356961
  -Hartree energ DENC   =    -46551.59710353
  -exchange      EXHF   =         0.00000000
  -V(xc)+E(xc)   XCENC  =      -370.83838059
  PAW double counting   =     40213.61597680   -39454.90959923
  entropy T*S    EENTRO =        -0.20602763
  eigenvalues    EBANDS =     -2163.22743094
  atomic energy  EATOM  =      7895.52132944
  Solvation  Ediel_sol  =         0.00000000
  ---------------------------------------------------
  free energy    TOTEN  =      -709.14569069 eV

  energy without entropy =     -708.93966306  energy(sigma->0) =     -709.04267687


--------------------------------------------------------------------------------------------------------




--------------------------------------- Iteration      1(  11)  ---------------------------------------


    POTLOK:  cpu time      2.1731: real time      2.1755
    SETDIJ:  cpu time      1.5663: real time      1.5682
    EDDIAG:  cpu time     66.3238: real time     66.3648
     EDDAV:  cpu time    301.0401: real time    301.2206
       DOS:  cpu time      0.0032: real time      0.0032
    CHARGE:  cpu time     37.0897: real time     37.1228
    MIXING:  cpu time      0.0479: real time      0.0479
    --------------------------------------------
      LOOP:  cpu time    408.2440: real time    408.5030

 eigenvalue-minimisations  :  3336
 total energy-change (2. order) :-0.8140370E-04  (-0.2255751E-04)
 number of electron     308.9999999 magnetization 
 augmentation part      -17.3648047 magnetization 

 Broyden mixing:
  rms(total) = 0.88555E-03    rms(broyden)= 0.68908E-02
  rms(prec ) = 0.11883E-02
  weight for this iteration     100.00
  WARNING: grid for Broyden might be to small

 eigenvalues of (default mixing * dielectric matrix)
  average eigenvalue GAMMA=   1.1051
  2.6970  2.6970  1.1754  0.3406  0.8329  0.8329  0.7144  0.6303  0.5651  0.5651

 Free energy of the ion-electron system (eV)
  ---------------------------------------------------
  alpha Z        PSCENC =        35.47197536
  Ewald energy   TEWEN  =     39687.02356961
  -Hartree energ DENC   =    -46551.26934393
  -exchange      EXHF   =         0.00000000
  -V(xc)+E(xc)   XCENC  =      -370.85055820
  PAW double counting   =     40210.21537448   -39451.50778278
  entropy T*S    EENTRO =        -0.20601828
  eigenvalues    EBANDS =     -2163.54431780
  atomic energy  EATOM  =      7895.52132944
  Solvation  Ediel_sol  =         0.00000000
  ---------------------------------------------------
  free energy    TOTEN  =      -709.14577209 eV

  energy without entropy =     -708.93975381  energy(sigma->0) =     -709.04276295


--------------------------------------------------------------------------------------------------------




--------------------------------------- Iteration      1(  12)  ---------------------------------------


    POTLOK:  cpu time      2.1498: real time      2.1725
    SETDIJ:  cpu time      1.5607: real time      1.5615
    EDDIAG:  cpu time     66.2474: real time     66.2874
     EDDAV:  cpu time    301.0941: real time    301.2696
       DOS:  cpu time      0.0034: real time      0.0034
    CHARGE:  cpu time     37.1176: real time     37.1514
    MIXING:  cpu time      0.0473: real time      0.0473
    --------------------------------------------
      LOOP:  cpu time    408.2202: real time    408.4931

 eigenvalue-minimisations  :  3336
 total energy-change (2. order) :-0.1301523E-03  (-0.1460039E-04)
 number of electron     308.9999999 magnetization 
 augmentation part      -17.3649049 magnetization 

 Broyden mixing:
  rms(total) = 0.44862E-03    rms(broyden)= 0.30772E-02
  rms(prec ) = 0.70014E-03
  weight for this iteration     100.00
  WARNING: grid for Broyden might be to small

 eigenvalues of (default mixing * dielectric matrix)
  average eigenvalue GAMMA=   1.1449
  2.7783  2.7783  1.5808  1.0737  0.3406  0.8209  0.7302  0.7302  0.6268  0.5561
  0.5777

 Free energy of the ion-electron system (eV)
  ---------------------------------------------------
  alpha Z        PSCENC =        35.47197536
  Ewald energy   TEWEN  =     39687.02356961
  -Hartree energ DENC   =    -46550.98143463
  -exchange      EXHF   =         0.00000000
  -V(xc)+E(xc)   XCENC  =      -370.85877690
  PAW double counting   =     40208.15363154   -39449.44557295
  entropy T*S    EENTRO =        -0.20605238
  eigenvalues    EBANDS =     -2163.82457133
  atomic energy  EATOM  =      7895.52132944
  Solvation  Ediel_sol  =         0.00000000
  ---------------------------------------------------
  free energy    TOTEN  =      -709.14590224 eV

  energy without entropy =     -708.93984987  energy(sigma->0) =     -709.04287605


--------------------------------------------------------------------------------------------------------




--------------------------------------- Iteration      1(  13)  ---------------------------------------


    POTLOK:  cpu time      2.1507: real time      2.1765
    SETDIJ:  cpu time      1.5544: real time      1.5556
    EDDIAG:  cpu time     66.3021: real time     66.3435
     EDDAV:  cpu time    300.5635: real time    300.7424
       DOS:  cpu time      0.0039: real time      0.0039
    CHARGE:  cpu time     37.1183: real time     37.1525
    MIXING:  cpu time      0.0474: real time      0.0474
    --------------------------------------------
      LOOP:  cpu time    407.7402: real time    408.0218

 eigenvalue-minimisations  :  3328
 total energy-change (2. order) :-0.1428516E-03  (-0.1107891E-04)
 number of electron     308.9999999 magnetization 
 augmentation part      -17.3649587 magnetization 

 Broyden mixing:
  rms(total) = 0.33131E-03    rms(broyden)= 0.18461E-02
  rms(prec ) = 0.53553E-03
  weight for this iteration     100.00
  WARNING: grid for Broyden might be to small

 eigenvalues of (default mixing * dielectric matrix)
  average eigenvalue GAMMA=   1.1563
  2.8496  2.8496  1.9290  1.1221  0.9235  0.3406  0.7293  0.7293  0.6433  0.6433
  0.5579  0.5579

 Free energy of the ion-electron system (eV)
  ---------------------------------------------------
  alpha Z        PSCENC =        35.47197536
  Ewald energy   TEWEN  =     39687.02356961
  -Hartree energ DENC   =    -46550.77138832
  -exchange      EXHF   =         0.00000000
  -V(xc)+E(xc)   XCENC  =      -370.86458202
  PAW double counting   =     40208.25784804   -39449.54999668
  entropy T*S    EENTRO =        -0.20603164
  eigenvalues    EBANDS =     -2164.02876888
  atomic energy  EATOM  =      7895.52132944
  Solvation  Ediel_sol  =         0.00000000
  ---------------------------------------------------
  free energy    TOTEN  =      -709.14604509 eV

  energy without entropy =     -708.94001345  energy(sigma->0) =     -709.04302927


--------------------------------------------------------------------------------------------------------




--------------------------------------- Iteration      1(  14)  ---------------------------------------


    POTLOK:  cpu time      2.1534: real time      2.1770
    SETDIJ:  cpu time      1.5672: real time      1.5685
    EDDIAG:  cpu time     66.2836: real time     66.3251
     EDDAV:  cpu time    300.7706: real time    300.9297
       DOS:  cpu time      0.0032: real time      0.0032
    CHARGE:  cpu time     37.0813: real time     37.1138
    MIXING:  cpu time      0.0492: real time      0.0492
    --------------------------------------------
      LOOP:  cpu time    407.9084: real time    408.1666

 eigenvalue-minimisations  :  3328
 total energy-change (2. order) :-0.1330714E-03  (-0.1049936E-04)
 number of electron     308.9999999 magnetization 
 augmentation part      -17.3650109 magnetization 

 Broyden mixing:
  rms(total) = 0.22538E-03    rms(broyden)= 0.11352E-02
  rms(prec ) = 0.38697E-03
  weight for this iteration     100.00
  WARNING: grid for Broyden might be to small

 eigenvalues of (default mixing * dielectric matrix)
  average eigenvalue GAMMA=   1.1913
  3.1402  2.7410  2.2066  1.3482  0.9600  0.9600  0.3406  0.7601  0.6494  0.6494
  0.6242  0.5538  0.5538

 Free energy of the ion-electron system (eV)
  ---------------------------------------------------
  alpha Z        PSCENC =        35.47197536
  Ewald energy   TEWEN  =     39687.02356961
  -Hartree energ DENC   =    -46550.57666625
  -exchange      EXHF   =         0.00000000
  -V(xc)+E(xc)   XCENC  =      -370.86974191
  PAW double counting   =     40208.52822449   -39449.82074300
  entropy T*S    EENTRO =        -0.20604147
  eigenvalues    EBANDS =     -2164.21808445
  atomic energy  EATOM  =      7895.52132944
  Solvation  Ediel_sol  =         0.00000000
  ---------------------------------------------------
  free energy    TOTEN  =      -709.14617817 eV

  energy without entropy =     -708.94013670  energy(sigma->0) =     -709.04315743


--------------------------------------------------------------------------------------------------------




--------------------------------------- Iteration      1(  15)  ---------------------------------------


    POTLOK:  cpu time      2.1732: real time      2.1990
    SETDIJ:  cpu time      1.5537: real time      1.5549
    EDDIAG:  cpu time     66.2917: real time     66.3302
     EDDAV:  cpu time    301.2957: real time    301.4788
       DOS:  cpu time      0.0052: real time      0.0052
    CHARGE:  cpu time     37.0859: real time     37.1188
    MIXING:  cpu time      0.0498: real time      0.0498
    --------------------------------------------
      LOOP:  cpu time    408.4552: real time    408.7367

 eigenvalue-minimisations  :  3344
 total energy-change (2. order) :-0.1322589E-03  (-0.9996970E-05)
 number of electron     308.9999999 magnetization 
 augmentation part      -17.3650520 magnetization 

 Broyden mixing:
  rms(total) = 0.15704E-03    rms(broyden)= 0.99684E-03
  rms(prec ) = 0.25925E-03
  weight for this iteration     100.00
  WARNING: grid for Broyden might be to small

 eigenvalues of (default mixing * dielectric matrix)
  average eigenvalue GAMMA=   1.2221
  3.4036  2.6536  2.5353  1.5818  1.0919  0.3406  0.8454  0.8454  0.7702  0.7075
  0.6210  0.6210  0.5462  0.5462

 Free energy of the ion-electron system (eV)
  ---------------------------------------------------
  alpha Z        PSCENC =        35.47197536
  Ewald energy   TEWEN  =     39687.02356961
  -Hartree energ DENC   =    -46550.38346825
  -exchange      EXHF   =         0.00000000
  -V(xc)+E(xc)   XCENC  =      -370.87313935
  PAW double counting   =     40208.60938223   -39449.90220904
  entropy T*S    EENTRO =        -0.20604161
  eigenvalues    EBANDS =     -2164.40770882
  atomic energy  EATOM  =      7895.52132944
  Solvation  Ediel_sol  =         0.00000000
  ---------------------------------------------------
  free energy    TOTEN  =      -709.14631042 eV

  energy without entropy =     -708.94026882  energy(sigma->0) =     -709.04328962


--------------------------------------------------------------------------------------------------------




--------------------------------------- Iteration      1(  16)  ---------------------------------------


    POTLOK:  cpu time      2.1352: real time      2.1700
    SETDIJ:  cpu time      1.5543: real time      1.5555
    EDDIAG:  cpu time     66.2653: real time     66.3056
     EDDAV:  cpu time    300.2038: real time    300.3760
       DOS:  cpu time      0.0035: real time      0.0035
    CHARGE:  cpu time     37.0962: real time     37.1301
    MIXING:  cpu time      0.0499: real time      0.0509
    --------------------------------------------
      LOOP:  cpu time    407.3081: real time    407.5915

 eigenvalue-minimisations  :  3312
 total energy-change (2. order) :-0.1034628E-03  (-0.6690359E-05)
 number of electron     308.9999999 magnetization 
 augmentation part      -17.3650836 magnetization 

 Broyden mixing:
  rms(total) = 0.10576E-03    rms(broyden)= 0.79992E-03
  rms(prec ) = 0.16289E-03
  weight for this iteration     100.00
  WARNING: grid for Broyden might be to small

 eigenvalues of (default mixing * dielectric matrix)
  average eigenvalue GAMMA=   1.2326
  3.6467  2.6747  2.6747  1.6732  1.2067  0.9418  0.9418  0.3406  0.8073  0.6303
  0.6303  0.6258  0.6258  0.5344  0.5344

 Free energy of the ion-electron system (eV)
  ---------------------------------------------------
  alpha Z        PSCENC =        35.47197536
  Ewald energy   TEWEN  =     39687.02356961
  -Hartree energ DENC   =    -46550.23323968
  -exchange      EXHF   =         0.00000000
  -V(xc)+E(xc)   XCENC  =      -370.87488541
  PAW double counting   =     40208.81343068   -39450.10646673
  entropy T*S    EENTRO =        -0.20604526
  eigenvalues    EBANDS =     -2164.55608190
  atomic energy  EATOM  =      7895.52132944
  Solvation  Ediel_sol  =         0.00000000
  ---------------------------------------------------
  free energy    TOTEN  =      -709.14641389 eV

  energy without entropy =     -708.94036863  energy(sigma->0) =     -709.04339126


[...]
   -.296E+02 -.363E+02 -.302E+03   0.276E+02 0.338E+02 0.300E+03   0.229E+01 0.267E+01 0.176E+01   0.103E-04 0.182E-04 0.127E-04
   -.240E+01 -.127E+02 0.600E+02   0.523E+00 0.122E+02 -.631E+02   0.283E+01 0.710E+00 0.380E+01   -.750E-05 0.776E-05 -.311E-04
   -.337E+02 0.177E+02 -.270E+03   0.313E+02 -.183E+02 0.270E+03   0.219E+01 0.722E-01 -.849E-01   0.146E-04 -.178E-04 0.231E-04
   0.362E+01 -.744E+01 0.151E+03   -.455E+01 0.832E+01 -.151E+03   0.234E+01 -.231E+01 0.703E+00   0.279E-04 0.137E-04 -.334E-04
   0.151E+02 0.576E+01 -.771E+02   -.147E+02 -.634E+01 0.784E+02   -.892E+00 0.121E+01 -.140E+01   -.929E-06 -.303E-06 -.305E-05
   0.193E+01 -.158E+02 0.298E+02   -.212E+01 0.145E+02 -.309E+02   0.543E-01 0.152E+01 0.173E+01   0.450E-05 0.225E-04 -.219E-04
   -.301E+02 0.100E+02 0.723E+02   0.291E+02 -.819E+01 -.718E+02   0.156E+01 -.143E+01 -.491E+00   0.829E-05 -.189E-04 -.109E-04
   -.129E+02 0.309E+02 -.238E+03   0.119E+02 -.300E+02 0.237E+03   0.111E-01 -.398E+00 0.217E+01   -.142E-04 -.165E-04 0.114E-04
   0.694E+00 0.266E+02 0.139E+03   0.152E+00 -.248E+02 -.138E+03   -.111E+01 -.230E+01 -.109E+01   -.788E-05 -.171E-05 -.383E-04
   0.173E+02 0.378E+01 0.232E+03   -.161E+02 -.263E+01 -.230E+03   -.289E+01 -.519E+00 -.123E+01   0.155E-04 -.186E-05 -.162E-04
   0.228E+01 0.171E+02 0.248E+03   -.188E+01 -.165E+02 -.244E+03   -.172E+00 0.322E-01 -.443E+01   0.477E-05 -.126E-04 -.225E-04
   0.433E+01 -.318E+02 -.296E+03   -.455E+01 0.304E+02 0.292E+03   0.152E+00 0.758E+00 0.373E+01   0.733E-05 0.232E-04 0.119E-04
   0.516E+01 0.171E+02 -.941E+02   -.263E+01 -.145E+02 0.947E+02   -.343E+01 -.262E+01 -.972E+00   -.337E-04 -.228E-04 -.121E-04
   0.502E+01 -.420E+02 -.483E+02   -.353E+01 0.376E+02 0.468E+02   -.138E+01 0.568E+01 0.692E+00   -.206E-04 -.393E-05 -.185E-04
   0.113E+01 0.216E+01 -.127E+03   -.471E+00 -.260E+01 0.128E+03   -.397E+00 0.125E+01 -.187E+01   -.431E-05 -.659E-05 -.207E-05
   0.254E+01 0.162E+01 0.889E+02   -.234E+01 -.104E+01 -.880E+02   0.337E+00 -.109E+00 -.172E+01   0.478E-05 0.111E-04 -.264E-04
   0.153E+00 -.414E+02 0.259E+03   0.287E+00 0.377E+02 -.258E+03   0.100E+00 0.302E+01 -.845E+00   0.217E-06 0.239E-04 -.394E-04
   -.979E+00 -.109E+02 0.241E+03   0.131E+01 0.106E+02 -.242E+03   -.276E+00 -.120E+00 0.994E+00   -.905E-05 -.481E-05 -.468E-04
   0.372E+01 0.457E+01 -.306E+03   -.605E+01 -.644E+01 0.309E+03   0.244E+01 0.218E+01 -.212E+01   -.113E-04 -.668E-05 0.119E-04
   -.428E+01 0.122E+02 0.147E+03   0.359E+01 -.114E+02 -.149E+03   0.101E+01 -.156E+01 0.230E+01   -.118E-04 -.300E-04 -.164E-04
   -.132E+02 -.366E+02 -.185E+03   0.120E+02 0.375E+02 0.186E+03   0.127E+01 -.115E+01 -.901E+00   -.223E-04 0.104E-04 -.442E-05
   0.343E+01 -.650E+01 0.296E+03   -.411E+01 0.694E+01 -.299E+03   0.856E+00 -.653E+00 0.337E+01   -.388E-05 -.103E-04 -.119E-04
   0.290E+02 0.466E+01 -.151E+03   -.257E+02 -.370E+01 0.151E+03   -.382E+01 -.413E+00 0.701E+00   -.240E-04 -.428E-05 0.224E-04
   0.140E+02 0.499E+01 0.293E+03   -.132E+02 -.574E+01 -.292E+03   -.973E+00 0.168E+01 -.685E+00   0.560E-06 0.150E-04 -.227E-04
   -.143E+02 -.153E+02 -.834E+02   0.123E+02 0.170E+02 0.861E+02   0.310E+01 -.248E+01 -.115E+01   -.225E-04 0.189E-04 -.248E-04
   -.979E+01 -.662E+01 0.250E+03   0.741E+01 0.663E+01 -.247E+03   0.136E+01 -.135E+01 -.418E+01   0.364E-05 0.410E-04 -.237E-04
   0.217E+02 0.106E+02 0.152E+03   -.213E+02 -.123E+02 -.154E+03   -.109E+01 0.212E+01 0.243E+01   0.187E-04 -.424E-05 -.161E-04
   0.206E+02 0.828E+01 0.267E+03   -.196E+02 -.897E+01 -.265E+03   -.169E+01 0.799E+00 -.255E+01   -.314E-05 -.209E-04 -.201E-04
   0.900E+01 -.155E+02 0.658E+02   -.798E+01 0.140E+02 -.682E+02   -.163E+01 0.113E+01 0.208E+01   0.612E-05 0.250E-04 -.278E-04
   0.117E+02 -.158E+02 -.302E+03   -.994E+01 0.148E+02 0.299E+03   -.208E+01 0.993E+00 0.197E+01   -.191E-04 0.869E-05 0.262E-04
   -.851E+01 0.129E+02 0.278E+03   0.885E+01 -.135E+02 -.276E+03   -.667E+00 0.144E+01 -.194E+01   0.474E-05 -.250E-05 -.239E-04
   0.133E+02 -.593E+01 0.265E+03   -.120E+02 0.618E+01 -.264E+03   -.196E+01 -.867E+00 -.146E+01   0.190E-04 0.273E-05 -.219E-04
   0.214E+02 -.615E+01 -.271E+03   -.233E+02 0.509E+01 0.271E+03   0.233E+01 0.119E+01 -.811E+00   0.128E-04 -.289E-05 0.168E-04
   0.760E+00 -.661E+01 -.216E+03   -.217E+01 0.379E+01 0.214E+03   0.783E+00 0.251E+01 0.120E+01   -.583E-05 -.236E-04 0.244E-04
   0.288E+02 -.267E+01 -.298E+03   -.297E+02 0.824E-02 0.302E+03   0.109E+01 0.213E+01 -.282E+01   0.234E-05 0.382E-05 0.192E-04
   -.924E+01 -.986E+01 0.200E+03   0.789E+01 0.109E+02 -.199E+03   0.286E+00 -.503E+00 -.126E+01   -.227E-04 -.194E-04 -.313E-05
   -.249E-01 0.102E+02 0.170E+03   -.534E+00 -.100E+02 -.168E+03   0.685E+00 0.462E+00 -.315E+01   0.328E-05 -.204E-04 -.376E-04
   0.273E+01 -.125E+02 -.781E+02   -.331E+01 0.131E+02 0.777E+02   0.844E+00 -.889E+00 0.612E+00   0.168E-04 0.213E-04 -.128E-04
   0.157E+02 0.360E+01 0.970E+01   -.144E+02 -.335E+01 -.116E+02   -.183E+01 -.275E+00 0.225E+01   0.131E-04 0.193E-05 -.183E-04
   -.212E+02 0.261E+02 -.273E+03   0.193E+02 -.247E+02 0.272E+03   0.236E+01 -.142E+01 -.116E+00   0.262E-04 -.149E-04 0.145E-04
   0.687E+01 0.959E+01 0.298E+03   -.782E+01 -.750E+01 -.300E+03   0.433E+00 -.268E+01 0.245E+01   -.521E-05 0.246E-06 -.278E-04
   0.662E+01 0.415E+02 -.285E+03   -.467E+01 -.423E+02 0.286E+03   -.948E+00 0.435E+00 0.298E+00   -.405E-04 -.445E-05 0.156E-04
   -.351E+02 -.124E+02 0.820E+02   0.331E+02 0.111E+02 -.819E+02   0.337E+01 0.109E+01 0.227E+00   0.180E-04 -.114E-04 -.113E-04
   -.105E+02 0.623E+01 0.280E+03   0.989E+01 -.488E+01 -.278E+03   0.965E+00 -.116E+01 -.193E+01   0.182E-04 -.306E-05 -.336E-05
   -.582E+01 -.176E+00 0.897E+02   0.409E+01 0.228E+00 -.893E+02   0.190E+01 0.437E+00 -.490E+00   0.127E-04 0.249E-04 -.370E-04
   0.137E+02 0.244E+02 -.110E+03   -.133E+02 -.224E+02 0.111E+03   0.537E+00 -.186E+01 -.150E+01   0.103E-04 -.185E-05 -.921E-06
   -.109E+02 0.232E+02 0.304E+03   0.969E+01 -.209E+02 -.304E+03   0.117E+01 -.180E+01 -.980E-01   -.243E-05 0.272E-05 -.316E-04
   -.170E+02 0.195E+01 -.167E+03   0.165E+02 -.191E+01 0.164E+03   0.246E+00 -.259E-01 0.268E+01   0.350E-04 -.299E-05 0.273E-05
   0.784E+01 -.223E+02 0.288E+03   -.645E+01 0.213E+02 -.285E+03   -.861E+00 -.705E+00 -.423E+01   -.136E-04 0.107E-04 -.194E-04
   -.104E+02 0.314E+02 0.279E+03   0.845E+01 -.299E+02 -.277E+03   0.236E+01 -.129E+01 -.158E+01   -.483E-05 -.648E-05 -.296E-04
   0.249E+02 -.319E+01 -.857E+02   -.247E+02 0.296E+01 0.824E+02   -.548E+00 0.101E+01 0.400E+01   0.301E-05 -.135E-04 -.108E-04
   -.164E+02 -.158E+02 0.773E+02   0.156E+02 0.150E+02 -.773E+02   0.102E+01 0.562E+00 0.191E+00   -.132E-04 0.781E-05 -.337E-04
   -.170E+00 0.149E+02 0.313E+02   0.675E-02 -.163E+02 -.294E+02   -.153E+00 0.152E+01 -.233E+01   -.154E-04 -.230E-04 -.140E-04
   -.120E+02 -.455E+01 -.115E+03   0.117E+02 0.465E+01 0.115E+03   -.157E+00 0.776E+00 0.331E-01   0.183E-04 0.675E-05 0.815E-05
 -----------------------------------------------------------------------------------------------
   -.322E+01 -.162E+02 0.209E+02   0.320E-13 0.355E-14 0.853E-12   0.321E+01 0.162E+02 -.209E+02   0.390E-04 0.338E-04 -.702E-03


 POSITION                                       TOTAL-FORCE (eV/Angst)
 -----------------------------------------------------------------------------------
     12.51610      5.22254     14.02243         0.349866     -0.576389      0.414761
      4.39550      8.68757     12.87937        -0.328120     -0.210204      0.213384
     10.75170      2.88549     14.05811         0.199929     -0.356569     -0.145722
      7.84718     14.07870     15.44704        -0.186200     -0.636229      0.368552
      4.88670      6.96299     11.49551         0.214429      0.081818     -0.561283
      0.99333      1.10333     14.88168         0.895877      1.205475     -0.403154
      8.11938      8.73074     13.88963         0.687980     -0.270786      0.513017
      4.64453      4.28556     12.44983        -0.305650     -0.008551     -0.124632
     13.38320      1.84288     14.74803        -1.299742      0.333121      0.694901
     11.94410      7.40151     13.81364        -0.081856      0.046973      0.266465
      1.25651      5.07756     14.13196        -0.539259      0.104637      1.574180
     10.25460     12.17110     16.52270         0.203138     -0.490586     -1.054281
      1.39372      8.76573     14.17980        -0.441741     -0.583507      0.789432
      2.35861     11.44050     16.20213         0.148567      0.007602      0.627175
     10.49390      9.27817     13.97699         0.029154     -0.059021     -0.184759
     13.89160      1.29031     11.65948        -0.495330     -1.008823      0.482884
     10.50340      0.96579     11.13422         0.255510      1.397748     -0.920001
      6.65359     14.09140     10.59546         0.218732      1.166685      0.110869
     13.16910      3.05334     16.84239        -0.239897      0.150022     -1.208910
     10.45230     11.19760     12.53233         1.144898      0.183915      1.322074
      1.18293     11.49450     10.81012        -0.000714     -0.808427      0.802702
      0.97384      5.65382     16.66078        -0.073400     -0.737135     -0.837434
      5.33770     13.74000     15.72208        -0.638983     -0.092451      0.182207
      4.49342     10.60680     10.93594         0.081260     -0.830947     -0.175710
      5.19387     11.62740     14.63947        -0.836342      0.023206      0.646489
     11.72320      6.83377     16.24462         0.515254     -0.054927     -0.598305
      5.53810      4.10070     16.32730         0.041385      0.546001     -0.044852
      3.20189     13.44910     16.89052         0.296750      0.193017     -0.578981
     11.88830      0.25469     12.72854         1.157329      0.274264      0.864187
      4.32463     10.28430     16.51046        -0.216410     -0.489698     -0.702944
      4.79767      0.01029     11.97360         1.526965     -1.561961      0.451129
      1.01549     11.00060     14.39230        -0.462683      0.695522     -0.146298
      8.47820     12.14060     13.08204        -0.118590      0.325503      0.733452
      2.97354      8.22214     12.63962         0.676826      0.349648      0.052388
     11.63660     10.37300     15.68434        -1.030171      0.576796      0.676360
     10.69630      6.41039     12.06052        -0.328890     -0.626433      0.205649
      3.04153      1.13573     11.29631        -1.765897      0.631804      0.318066
     14.41140      7.99157     11.01280         0.211853      0.638018     -1.053675
      1.13475     14.42910     16.73950        -0.015376     -0.659057      0.177574
      9.36597      3.28897     14.36007        -1.048042     -0.082359     -0.413608
      7.79748      1.53838     13.67273         0.082283      1.523352     -0.814818
     13.35420     11.67820     14.87310         0.230790      0.863686     -0.755761
      1.25194      0.24866     12.71074         0.571128      0.479092     -0.964728
     13.42830     11.62620     10.71402         0.647011     -0.586865      0.112637
     12.30410      5.02366     10.94337        -0.073151     -0.596103      0.043146
      7.95041     11.27940     16.68596         0.361992      0.477849      0.390097
      6.90381      4.81756     11.74943         0.334560     -0.830128      0.099578
     10.87610     14.15200     15.16232        -0.033904     -0.454156     -0.242017
      7.35213      3.08115     10.19220         0.264320     -0.267782      0.277547
      8.00394      6.63195     14.96452        -0.657659      0.539032      0.511956
      6.72636      9.99311     10.38703        -0.346347      1.115615      0.237220
      8.67663     14.14090     14.19623         1.242205     -0.891726      1.485866
      7.62619     12.11770     11.02778        -1.001233     -1.384461     -0.893930
      7.66580      8.28622     11.64365        -0.710361      0.553555      0.061520
      6.24091      6.75848     10.81323        -0.836233      0.162182      0.081554
      1.90277     12.51790     12.77373        -0.699578     -0.298737     -0.286533
      9.55374      6.27735     16.71752        -0.360597     -0.046753     -0.713653
      2.19079      9.25064     10.71820        -0.391003      1.011131     -0.187516
      1.42126      4.81868     11.05645        -0.560410     -0.789543     -0.670008
      1.57663      7.88593     16.45897         0.700375      0.049854     -0.438252
      5.72405      6.41772     15.99515        -0.567914     -0.263868     -0.414290
     13.89140     12.89510     16.87453         0.459227     -0.347531      0.079721
      8.23034      1.17983     11.40153        -1.043020      0.520853     -0.558158
     14.01610      3.59203     11.92483         0.149602      0.691238     -1.131568
      5.53060      0.92098     14.04996         0.331122     -0.279232      0.273762
     14.31220      7.35126     13.19562        -0.629005      0.107517      0.434576
      3.96555      7.96815     16.76331         0.621690     -0.011065     -0.720983
     11.37480      3.10027     10.00000        -0.446123     -0.709158      0.825419
      9.47940      3.99281     16.54840         0.954313     -0.145278      0.861884
      2.70872      5.88940     12.56901         1.514724     -0.198752      0.276741
      3.20968      3.34338     10.75379         0.297828      0.073248      0.555174
      4.17666     12.25120     12.58634         0.239788      0.495787     -0.212849
      7.26367     10.77530     14.52737         0.989881      0.065348     -0.125216
     12.67760      9.55926     10.00007         0.025920      0.551202      0.572583
      2.32622      3.11248     14.91676        -0.168867      0.015936     -0.082528
     10.47140     10.22200     10.55192         0.586330     -1.941686     -1.419707
      9.67783      8.02884     10.68492         0.526172      0.186436     -0.013343
     13.60640      4.11903     14.09784        -0.302778      0.859158      0.880891
     12.42610     12.49400     12.69155         0.162674     -0.262418      0.143719
      8.81244      5.23574     13.20499        -0.370239      0.256552     -0.607157
      4.62369      2.97401     14.48556        -0.497925      0.918903     -0.285922
 -----------------------------------------------------------------------------------
    total drift:                               -0.008421      0.012442      0.002976


--------------------------------------------------------------------------------------------------------



  FREE ENERGIE OF THE ION-ELECTRON SYSTEM (eV)
  ---------------------------------------------------
  free  energy   TOTEN  =      -709.14649249 eV

  energy  without entropy=     -708.94044151  energy(sigma->0) =     -709.04346700



--------------------------------------------------------------------------------------------------------


    POTLOK:  cpu time      3.7144: real time      3.7172


--------------------------------------------------------------------------------------------------------


     LOOP+:  cpu time   9119.0275: real time   9125.4056
    4ORBIT:  cpu time      0.0000: real time      0.0000



 total charge

# of ion       s       p       d       tot
------------------------------------------
    1        0.537   0.017   0.000   0.554
    2        0.551   0.015   0.000   0.566
    3        0.567   0.017   0.000   0.584
    4        0.563   0.017   0.000   0.580
    5        0.552   0.016   0.000   0.568
    6        0.772   0.943   0.000   1.715
    7        0.763   0.923   0.000   1.686
    8        0.779   0.826   0.000   1.605
    9        0.803   0.835   0.000   1.638
   10        0.767   0.864   0.000   1.630
   11        0.757   0.874   0.000   1.631
   12        0.818   0.768   0.000   1.587
   13        0.767   0.936   0.000   1.703
   14        0.787   0.868   0.000   1.655
   15        0.769   0.890   0.000   1.659
   16        0.805   0.811   0.000   1.616
   17        0.808   0.835   0.000   1.643
   18        0.790   0.880   0.000   1.671
   19        0.927   0.574   0.000   1.501
   20        0.778   0.947   0.000   1.725
   21        0.793   0.852   0.000   1.645
   22        0.878   0.676   0.000   1.554
   23        0.803   0.794   0.000   1.597
   24        0.822   0.753   0.000   1.575
   25        0.759   0.912   0.000   1.671
   26        0.867   0.699   0.000   1.566
   27        0.847   0.751   0.000   1.598
   28        0.786   0.862   0.000   1.648
   29        0.775   0.865   0.000   1.640
   30        0.800   0.828   0.000   1.628
   31        0.760   0.936   0.000   1.695
   32        0.762   0.947   0.000   1.709
   33        0.762   0.998   0.000   1.760
   34        0.753   0.964   0.000   1.717
   35        0.800   0.841   0.000   1.641
   36        0.763   0.872   0.000   1.635
   37        0.783   0.901   0.000   1.684
   38        0.827   0.725   0.000   1.552
   39        0.787   0.900   0.000   1.687
   40        0.749   0.955   0.000   1.704
   41        0.761   0.961   0.000   1.723
   42        0.763   0.890   0.000   1.653
   43        0.758   0.899   0.000   1.657
   44        0.791   0.867   0.000   1.658
   45        0.811   0.813   0.000   1.624
   46        0.875   0.702   0.000   1.577
   47        0.761   0.928   0.000   1.689
   48        0.841   0.718   0.000   1.559
   49        0.876   0.703   0.000   1.579
   50        0.762   0.875   0.000   1.637
   51        0.795   0.845   0.000   1.640
   52        0.762   0.997   0.000   1.759
   53        0.790   0.887   0.000   1.677
   54        0.763   0.981   0.000   1.744
   55        0.796   0.912   0.000   1.708
   56        0.756   0.941   0.000   1.697
   57        0.798   0.878   0.000   1.676
   58        0.774   0.821   0.000   1.595
   59        0.803   0.848   0.000   1.651
   60        0.815   0.804   0.000   1.618
   61        0.790   0.793   0.000   1.583
   62        0.860   0.719   0.000   1.579
   63        0.755   0.931   0.000   1.686
   64        0.774   0.880   0.000   1.654
   65        0.761   0.918   0.000   1.680
   66        0.790   0.865   0.000   1.655
   67        0.790   0.802   0.000   1.592
   68        0.851   0.701   0.000   1.552
   69        0.835   0.777   0.000   1.611
   70        0.774   0.916   0.000   1.689
   71        0.787   0.860   0.000   1.648
   72        0.760   0.918   0.000   1.678
   73        0.760   0.984   0.000   1.743
   74        0.805   0.812   0.000   1.618
   75        0.799   0.823   0.000   1.622
   76        0.799   0.874   0.000   1.673
   77        0.794   0.885   0.000   1.679
   78        0.766   0.917   0.000   1.684
   79        0.770   0.877   0.000   1.646
   80        0.764   0.885   0.000   1.649
   81        0.760   0.926   0.000   1.685
--------------------------------------------------
tot         62.930  65.219   0.000 128.149


 total amount of memory used by VASP MPI-rank0   408328. kBytes
=======================================================================

   base                                    :      30000. kBytes
   nonl-proj                               :      77896. kBytes
   fftplans                                :     108827. kBytes
   grid                                    :      83991. kBytes
   one-center                              :         18. kBytes
   wavefun                                 :     107596. kBytes

  
  
 General timing and accounting informations for this job:
 ========================================================
  
                  Total CPU time used (sec):     9282.804
                            User time (sec):     8232.054
                          System time (sec):     1050.750
                         Elapsed time (sec):     9289.390
  
                   Maximum memory used (kb):      679664.
                   Average memory used (kb):          N/A
  
                          Minor page faults:     12086976
                          Major page faults:         1229
                 Voluntary context switches:         3327
