 vasp.6.5.0 16Dec24 (build Jan 20 2025 08:32:48) complex                         
 executed on        HPECrayEX_GCC date 2025.07.22  00:39:53
 running  128 mpi-ranks, with    1 threads/rank, on    1 nodes
 distrk:  each k-point on  128 cores,    1 groups
 distr:  one band on NCORE=  16 cores,    8 groups


--------------------------------------------------------------------------------------------------------


 INCAR:
   SYSTEM = a-Si SPC
   NCORE = 16
   ISTART = 1
   ICHARG = 1
   ISPIN = 1
   ISYM = 1
   EDIFF = 1E-6
   NELM = 150
   EDIFFG = -0.01
   NSW = 0
   ISIF = 2
   IBRION = -1
   PREC = Accurate
   ENCUT = 1200
   KSPACING = 0.23
   KGAMMA = .TRUE.
   METAGGA = SCAN
   LASPH = .TRUE.
   LDIAG = .FALSE.
   LMIXTAU = .TRUE.
   ADDGRID = .TRUE.
   ALGO = Normal
   ISMEAR = 0
   SIGMA = 0.1
   LORBIT = 11
   NEDOS = 2000
   LWAVE = .FALSE.
   LCHARG = .FALSE.

 POTCAR:    PAW_PBE H 15Jun2001                   
 POTCAR:    PAW_PBE Si 05Jan2001                  
 POTCAR:    PAW_PBE H 15Jun2001                   
   SHA256 =  030f79b5d3ab3cf0e668861823c8fb652ff669f3e15e46930bd03bfd63a607b6 H/POTCAR              
   COPYR  = (c) Copyright 15Jun2001 Georg Kresse                                                    
   COPYR  = This file is part of the software VASP. Any use, copying, and all other rights are regul
   COPYR  = If you do not have a valid VASP license, you may not use, copy or distribute this file. 
   VRHFIN =H: ultrasoft test                                                                        
   LEXCH  = PE                                                                                      
   EATOM  =    12.4884 eV,    0.9179 Ry                                                             
                                                                                                    
   TITEL  = PAW_PBE H 15Jun2001                                                                     
   LULTRA =        F    use ultrasoft PP ?                                                          
   IUNSCR =        0    unscreen: 0-lin 1-nonlin 2-no                                               
   RPACOR =    0.000    partial core radius                                                         
   POMASS =    1.000; ZVAL   =    1.000    mass and valenz                                          
   RCORE  =    1.100    outmost cutoff radius                                                       
   RWIGS  =    0.700; RWIGS  =    0.370    wigner-seitz radius (au A)                               
   ENMAX  =  250.000; ENMIN  =  200.000 eV                                                          
   RCLOC  =    0.701    cutoff for local pot                                                        
   LCOR   =        T    correct aug charges                                                         
   LPAW   =        T    paw PP                                                                      
   EAUG   =  400.000                                                                                
   RMAX   =    1.123    core radius for proj-oper                                                   
   RAUG   =    1.200    factor for augmentation sphere                                              
   RDEP   =    1.112    radius for radial grids                                                     
   RDEPT  =    0.926    core radius for aug-charge                                                  
                                                                                                    
   Atomic configuration                                                                             
    2 entries                                                                                       
     n  l   j            E        occ.                                                              
     1  0  0.50        -6.4927   1.0000                                                             
     2  1  0.50        -3.4015   0.0000                                                             
   Description                                                                                      
     l       E           TYP  RCUT    TYP  RCUT                                                     
     0     -6.4927494     23  1.100                                                                 
     0      6.8029130     23  1.100                                                                 
     1     -4.0817478     23  1.100                                                                 
  local pseudopotential read in
  atomic valenz-charges read in
  non local Contribution for L=           0  read in
    real space projection operators read in
  non local Contribution for L=           0  read in
    real space projection operators read in
  non local Contribution for L=           1  read in
    real space projection operators read in
    PAW grid and wavefunctions read in

   number of l-projection  operators is LMAX  =           3
   number of lm-projection operators is LMMAX =           5

 POTCAR:    PAW_PBE Si 05Jan2001                  
   SHA256 =  79d9987ad8750f624c4d6acb2a16d13abf6a777132adc04dc6c8399be72b42bb Si/POTCAR             
   COPYR  = (c) Copyright 05Jan2001 Georg Kresse                                                    
   COPYR  = This file is part of the software VASP. Any use, copying, and all other rights are regul
   COPYR  = If you do not have a valid VASP license, you may not use, copy or distribute this file. 
   VRHFIN =Si: s2p2                                                                                 
   LEXCH  = PE                                                                                      
   EATOM  =   103.0669 eV,    7.5752 Ry                                                             
                                                                                                    
   TITEL  = PAW_PBE Si 05Jan2001                                                                    
   LULTRA =        F    use ultrasoft PP ?                                                          
   IUNSCR =        1    unscreen: 0-lin 1-nonlin 2-no                                               
   RPACOR =    1.500    partial core radius                                                         
   POMASS =   28.085; ZVAL   =    4.000    mass and valenz                                          
   RCORE  =    1.900    outmost cutoff radius                                                       
   RWIGS  =    2.480; RWIGS  =    1.312    wigner-seitz radius (au A)                               
   ENMAX  =  245.345; ENMIN  =  184.009 eV                                                          
   ICORE  =        2    local potential                                                             
   LCOR   =        T    correct aug charges                                                         
   LPAW   =        T    paw PP                                                                      
   EAUG   =  322.069                                                                                
   DEXC   =    0.000                                                                                
   RMAX   =    1.950    core radius for proj-oper                                                   
   RAUG   =    1.300    factor for augmentation sphere                                              
   RDEP   =    1.993    radius for radial grids                                                     
   RDEPT  =    1.837    core radius for aug-charge                                                  
                                                                                                    
   Atomic configuration                                                                             
    6 entries                                                                                       
     n  l   j            E        occ.                                                              
     1  0  0.50     -1785.8828   2.0000                                                             
     2  0  0.50      -139.4969   2.0000                                                             
     2  1  1.50       -95.5546   6.0000                                                             
     3  0  0.50       -10.8127   2.0000                                                             
     3  1  0.50        -4.0811   2.0000                                                             
     3  2  1.50        -4.0817   0.0000                                                             
   Description                                                                                      
     l       E           TYP  RCUT    TYP  RCUT                                                     
     0    -10.8127223     23  1.900                                                                 
     0     -7.6451159     23  1.900                                                                 
     1     -4.0811372     23  1.900                                                                 
     1      2.4879257     23  1.900                                                                 
     2     -4.0817478      7  1.900                                                                 
  local pseudopotential read in
  partial core-charges read in
  partial kinetic energy density read in
  atomic valenz-charges read in
  non local Contribution for L=           0  read in
    real space projection operators read in
  non local Contribution for L=           0  read in
    real space projection operators read in
  non local Contribution for L=           1  read in
    real space projection operators read in
  non local Contribution for L=           1  read in
    real space projection operators read in
    PAW grid and wavefunctions read in

   number of l-projection  operators is LMAX  =           4
   number of lm-projection operators is LMMAX =           8

 -----------------------------------------------------------------------------
|                                                                             |
|               ----> ADVICE to this user running VASP <----                  |
|                                                                             |
|     You have a (more or less) 'large supercell' and for larger cells it     |
|     might be more efficient to use real-space projection operators.         |
|     Therefore, try LREAL= Auto in the INCAR file.                           |
|     Mind: For very accurate calculation, you might also keep the            |
|     reciprocal projection scheme (i.e. LREAL=.FALSE.).                      |
|                                                                             |
 -----------------------------------------------------------------------------

 -----------------------------------------------------------------------------
|                                                                             |
|               ----> ADVICE to this user running VASP <----                  |
|                                                                             |
|     You enforced a specific xc type in the INCAR file but a different       |
|     type was found in the POTCAR file.                                      |
|     I HOPE YOU KNOW WHAT YOU ARE DOING!                                     |
|                                                                             |
 -----------------------------------------------------------------------------

  PAW_PBE H 15Jun2001                   :
 energy of atom  1       EATOM=  -12.4884
 kinetic energy error for atom=    0.0000 (will be added to EATOM!!)
  PAW_PBE Si 05Jan2001                  :
 energy of atom  2       EATOM= -103.0669
 kinetic energy error for atom=    0.0001 (will be added to EATOM!!)


 POSCAR:  H Si
  positions in cartesian coordinates
  No initial velocities read in


 exchange-correlation table for SCAN
   RHO(1)=    0.500       N(1)  =     2000
   RHO(2)=  100.500       N(2)  =     4000



--------------------------------------------------------------------------------------------------------


 ion  position               nearest neighbor table
   1  0.478  0.029  0.615-  29 1.47
   2  0.879  0.575  0.542-  79 1.68  87 1.84
   3  0.015  0.865  0.636- 100 1.52
   4  0.922  0.406  0.588-  44 1.53
   5  0.465  0.916  0.452-  69 1.45
   6  0.399  0.887  0.550-  29 2.21  69 2.26  64 2.41  36 2.43
   7  0.356  0.112  0.618-  84 2.32  89 2.36  36 2.36
   8  0.983  0.292  0.348-  42 2.31  54 2.38
   9  0.292  0.232  0.489-  18 2.35  53 2.37  62 2.40  25 2.48
  10  0.725  0.413  0.566-  24 2.22  79 2.27  49 2.36  40 2.42
  11  0.967  0.894  0.535-  48 2.19  99 2.27  86 2.42  68 2.57
  12  0.740  0.688  0.363-  37 2.37  93 2.48  76 2.51
  13  0.898  0.915  0.380-  32 2.39  76 2.40  86 2.45
  14  0.316  0.734  0.640-  67 2.34  64 2.43
  15  0.117  0.831  0.359-  81 2.37  23 2.44
  16  0.797  0.439  0.432-  54 2.34  55 2.35  93 2.46  40 2.50
  17  0.304  0.296  0.354-  25 2.26  96 2.38
  18  0.383  0.340  0.529-  35 2.21   9 2.35  95 2.42  84 2.53
  19  0.625  0.021  0.546-  29 2.27  47 2.33  78 2.38  71 2.47
  20  0.484  0.546  0.368-  37 2.27  97 2.32  28 2.39  39 3.02
  21  0.888  0.144  0.573-  48 2.32  71 2.37  75 2.39  70 2.40
  22  0.321  0.550  0.451-  28 2.25  27 2.32  63 2.44  97 2.47
  23  0.062  0.757  0.430-  31 2.27  30 2.35  86 2.39  15 2.44
  24  0.573  0.413  0.572-  10 2.22  43 2.30  35 2.32  26 2.39
  25  0.217  0.298  0.419-  17 2.26  42 2.36   9 2.48  63 2.51
  26  0.547  0.281  0.620-  84 2.20  82 2.31  24 2.39
  27  0.272  0.650  0.509-  64 2.29  30 2.32  22 2.32  74 2.39
  28  0.334  0.610  0.379-  22 2.25  94 2.35  20 2.39
  29  0.514  0.951  0.589-   1 1.47   6 2.21  19 2.27  83 2.30
  30  0.176  0.770  0.487-  68 2.32  27 2.32  23 2.35  58 2.39
  31  0.971  0.635  0.447-  23 2.27  93 2.34  77 2.38  87 2.44
  32  0.902  0.076  0.399-  59 2.35  56 2.39  13 2.39
  33  0.304  0.039  0.352-  46 2.27  81 2.33
  34  0.073  0.320  0.538-  53 2.31  73 2.32  66 2.33  44 2.48
  35  0.516  0.383  0.498-  18 2.21  24 2.32  60 2.38  97 2.44  39 2.57
  36  0.280  0.986  0.583-   7 2.36  92 2.37  67 2.42   6 2.43
  37  0.578  0.670  0.367-  20 2.27  91 2.28  12 2.37
  38  0.728  0.655  0.489-  93 2.27  61 2.39  79 2.40  50 2.44
  39  0.557  0.371  0.411-  96 2.37  55 2.40  97 2.55  35 2.57  60 2.57  20 3.02
  40  0.749  0.329  0.494-  70 2.23  60 2.34  10 2.42  16 2.50
  41  0.111  0.012  0.458-  59 2.25  81 2.39  86 2.41  92 2.42
  42  0.100  0.210  0.383-  59 2.25   8 2.31  25 2.36
  43  0.473  0.523  0.600-  95 2.23  24 2.30  88 2.32
  44  0.998  0.354  0.613-   4 1.53  75 2.22  34 2.48
  45  0.129  0.582  0.635-  72 2.36  74 2.37
  46  0.423  0.107  0.390-  33 2.27  62 2.28  65 2.32  96 2.35
  47  0.709  0.951  0.487-  19 2.33  52 2.33  56 2.42  50 2.47
  48  0.997  0.028  0.566-  11 2.19 100 2.30  21 2.32  92 2.47
  49  0.773  0.341  0.635-  10 2.36  75 2.38  82 2.39
  50  0.733  0.804  0.528-  99 2.27  38 2.44 101 2.46  47 2.47
  51  0.315  0.367  0.652-  95 2.29  89 2.30
  52  0.626  0.891  0.424-  91 2.30  47 2.33  76 2.43  65 2.43
  53  0.181  0.205  0.548-  34 2.31   9 2.37  92 2.40  89 2.45
  54  0.943  0.379  0.416-  16 2.34  77 2.37   8 2.38  66 2.44
  55  0.701  0.387  0.371-  16 2.35  39 2.40  90 2.49
  56  0.781  0.087  0.455-  32 2.39  70 2.40  47 2.42  80 2.50
  57  0.822  0.960  0.626-  99 2.31  71 2.33 100 2.52
  58  0.279  0.856  0.440-  81 2.23  69 2.31  30 2.39  94 2.49
  59  0.027  0.137  0.441-  66 2.20  41 2.25  42 2.25  32 2.35
  60  0.610  0.257  0.474-  40 2.34  78 2.36  35 2.38  80 2.47  39 2.57
  61  0.566  0.647  0.476-  91 2.29  88 2.31  97 2.38  38 2.39
  62  0.401  0.114  0.468-  46 2.28  78 2.36   9 2.40  69 2.46
  63  0.180  0.460  0.444-  73 2.31  77 2.39  22 2.44  25 2.51
  64  0.369  0.725  0.560-  27 2.29   6 2.41  88 2.42  14 2.43
  65  0.558  0.022  0.384-  46 2.32  80 2.36  52 2.43
  66  0.985  0.267  0.475-  59 2.20  70 2.31  34 2.33  54 2.44
  67  0.212  0.851  0.619-  14 2.34  68 2.35  36 2.42
  68  0.111  0.803  0.559-  30 2.32  72 2.33  67 2.35  11 2.57
  69  0.386  0.947  0.478-   5 1.45   6 2.26  58 2.31  62 2.46
  70  0.845  0.210  0.500-  40 2.23  66 2.31  56 2.40  21 2.40
  71  0.743  0.088  0.598-  57 2.33  21 2.37  82 2.44  19 2.47
  72  0.033  0.674  0.588-  68 2.33  87 2.36  45 2.36  85 2.51
  73  0.124  0.466  0.519-  63 2.31  74 2.31  34 2.32  87 2.40
  74  0.220  0.547  0.568-  95 2.26  73 2.31  45 2.37  27 2.39
  75  0.905  0.244  0.639-  44 2.22  49 2.38  21 2.39
  76  0.745  0.861  0.367-  13 2.40  52 2.43  12 2.51
  77  0.040  0.509  0.408-  54 2.37  31 2.38  63 2.39
  78  0.531  0.140  0.515-  84 2.28  62 2.36  60 2.36  19 2.38
  79  0.766  0.563  0.555-   2 1.68  98 2.26  10 2.27  38 2.40
  80  0.647  0.148  0.411-  90 2.33  65 2.36  60 2.47  56 2.50
  81  0.199  0.952  0.395-  58 2.23  33 2.33  15 2.37  41 2.39
  82  0.678  0.209  0.647-  26 2.31  49 2.39  71 2.44
  83  0.545  0.834  0.641-  29 2.30 101 2.43
  84  0.451  0.207  0.574-  26 2.20  78 2.28   7 2.32  18 2.53
  85  0.887  0.713  0.630-  98 2.31  99 2.38  72 2.51
  86  0.990  0.898  0.451-  23 2.39  41 2.41  11 2.42  13 2.45
  87  0.000  0.575  0.525-   2 1.84  72 2.36  73 2.40  31 2.44
  88  0.514  0.646  0.552-  61 2.31  43 2.32 101 2.35  64 2.42
  89  0.249  0.233  0.625-  51 2.30   7 2.36  53 2.45
  90  0.724  0.222  0.351-  80 2.33  55 2.49
  91  0.531  0.765  0.426-  37 2.28  61 2.29  52 2.30  94 2.46
  92  0.157  0.044  0.538-  36 2.37  53 2.40  41 2.42  48 2.47
  93  0.816  0.607  0.428-  38 2.27  31 2.34  16 2.46  12 2.48
  94  0.380  0.764  0.388-  28 2.35  91 2.46  58 2.49
  95  0.339  0.453  0.586-  43 2.23  74 2.26  51 2.29  18 2.42
  96  0.460  0.262  0.374-  46 2.35  39 2.37  17 2.38
  97  0.488  0.515  0.447-  20 2.32  61 2.38  35 2.44  22 2.47  39 2.55
  98  0.745  0.645  0.621-  79 2.26  85 2.31 101 2.35
  99  0.851  0.835  0.578-  11 2.27  50 2.27  57 2.31  85 2.38
 100  0.993  0.968  0.640-   3 1.52  48 2.30  57 2.52
 101  0.629  0.736  0.587-  88 2.35  98 2.35  83 2.43  50 2.46

  LATTYP: Found a simple tetragonal cell.
 ALAT       =    14.5295791732
 C/A-ratio  =     1.9767834056
  
  Lattice vectors:
  
 A1 = (  14.5295791732,   0.0000000000,   0.0000000000)
 A2 = (   0.0000000000,  14.5295791732,   0.0000000000)
 A3 = (   0.0000000000,   0.0000000000,  28.7218310000)


Analysis of symmetry for initial positions (statically):
=====================================================================
 Subroutine PRICEL returns:
 Original cell was already a primitive cell.
 

 Routine SETGRP: Setting up the symmetry group for a 
 simple tetragonal supercell.


 Subroutine GETGRP returns: Found  1 space group operations
 (whereof  1 operations were pure point group operations)
 out of a pool of 16 trial point group operations.


The static configuration has the point symmetry C_1 .


Analysis of symmetry for dynamics (positions and initial velocities):
=====================================================================
 Subroutine PRICEL returns:
 Original cell was already a primitive cell.
 

 Routine SETGRP: Setting up the symmetry group for a 
 simple tetragonal supercell.


 Subroutine GETGRP returns: Found  1 space group operations
 (whereof  1 operations were pure point group operations)
 out of a pool of 16 trial point group operations.


The dynamic configuration has the point symmetry C_1 .


 Subroutine INISYM returns: Found  1 space group operations
 (whereof  1 operations are pure point group operations),
 and found     1 'primitive' translations


----------------------------------------------------------------------------------------

                                     Primitive cell                                     

  volume of cell :    6063.4276

  direct lattice vectors                    reciprocal lattice vectors
    14.529579173  0.000000000  0.000000000     0.068825118  0.000000000  0.000000000
     0.000000000 14.529579173  0.000000000     0.000000000  0.068825118  0.000000000
     0.000000000  0.000000000 28.721831000     0.000000000  0.000000000  0.034816722

  length of vectors
    14.529579173 14.529579173 28.721831000     0.068825118  0.068825118  0.034816722

  position of ions in fractional coordinates (direct lattice)
     0.478131535  0.029132158  0.615102533
     0.878917403  0.575376609  0.542437946
     0.014743373  0.865111085  0.636337252
     0.922105165  0.406191393  0.588143597
     0.465162819  0.915986612  0.451697909
     0.398565570  0.886797879  0.550490009
     0.355955251  0.111768550  0.618127758
     0.982774506  0.291502593  0.348167218
     0.292003640  0.231779597  0.489087586
     0.724962497  0.413097305  0.565540581
     0.967281972  0.893694156  0.534786275
     0.740282968  0.688081181  0.362663683
     0.898277909  0.915415363  0.380385115
     0.315813001  0.734253888  0.640087013
     0.116505783  0.830856824  0.358608649
     0.797387169  0.439070528  0.431634425
     0.304213215  0.295559145  0.354066564
     0.383441250  0.339518436  0.529205502
     0.625035308  0.020909484  0.545926929
     0.483670581  0.545892617  0.367928806
     0.888188147  0.143729559  0.573102077
     0.321371317  0.550066860  0.450968847
     0.062157616  0.757124475  0.429671110
     0.572771579  0.413000262  0.571534280
     0.216576128  0.298294255  0.419243850
     0.547325556  0.281344694  0.619641937
     0.272297632  0.649831622  0.509149330
     0.334203761  0.610116088  0.379030188
     0.514314965  0.950516174  0.588852466
     0.175614859  0.769533644  0.487413598
     0.970778288  0.635248956  0.446809641
     0.901987583  0.075936129  0.398764306
     0.303884231  0.039041323  0.352113450
     0.073159036  0.319945261  0.537507898
     0.515529728  0.382828706  0.497714474
     0.279995721  0.985575689  0.583346897
     0.578110343  0.670216934  0.367297127
     0.728142218  0.655356214  0.488785377
     0.556855082  0.370991474  0.411051475
     0.748686515  0.328854672  0.493912140
     0.110613665  0.011824431  0.458368096
     0.100403459  0.210419721  0.383105485
     0.473485152  0.522826567  0.599624063
     0.998487281  0.353994423  0.613262817
     0.129451788  0.582001715  0.634602334
     0.422997798  0.107373378  0.389528474
     0.708671592  0.950729531  0.486721094
     0.997014423  0.027729640  0.566171460
     0.773456675  0.340505388  0.634730112
     0.732753501  0.803787905  0.528491411
     0.315398674  0.366701605  0.651832782
     0.625914893  0.891120097  0.424013392
     0.181138763  0.205277108  0.548201506
     0.943069296  0.378667540  0.415550840
     0.701162771  0.387107564  0.371270829
     0.781302739  0.086647382  0.454901395
     0.822356922  0.959511617  0.625973706
     0.279197350  0.855922932  0.440082702
     0.026560370  0.137074858  0.441114670
     0.609514556  0.257388047  0.474085757
     0.566007446  0.647104771  0.476140988
     0.400647529  0.114215283  0.467909967
     0.180086427  0.459847455  0.443635749
     0.368709922  0.724776669  0.559791296
     0.558011344  0.022254120  0.384071301
     0.985341683  0.266756522  0.474971843
     0.212415650  0.850561455  0.618533373
     0.111091311  0.802762410  0.559346686
     0.386168789  0.946510552  0.478139120
     0.845482161  0.209910415  0.499775972
     0.743001561  0.087595104  0.597730381
     0.033015547  0.674283810  0.587596278
     0.124348405  0.466473249  0.518859017
     0.220023578  0.547308350  0.568443948
     0.905415074  0.243893506  0.638653608
     0.744722189  0.860733807  0.366522524
     0.040037636  0.508691264  0.407728567
     0.530994732  0.140180935  0.515021518
     0.766457161  0.562553113  0.554951424
     0.646578259  0.148241045  0.410640290
     0.199038800  0.951961501  0.394892338
     0.678087774  0.208602050  0.646705671
     0.544788662  0.833836951  0.640950815
     0.451128689  0.206656364  0.574408400
     0.887210830  0.712904336  0.630010357
     0.990166324  0.898229732  0.451485179
     0.000475339  0.575186652  0.524823818
     0.514387231  0.645864542  0.552328680
     0.248876444  0.232676388  0.625232806
     0.724466956  0.222464805  0.350698220
     0.531129629  0.764633295  0.426074542
     0.156847626  0.043557628  0.537567086
     0.816499904  0.607414702  0.428066407
     0.380042666  0.763965691  0.387568641
     0.338887310  0.453453601  0.586263842
     0.459811666  0.261947022  0.374241635
     0.487524788  0.515381754  0.447305431
     0.745038784  0.644797753  0.620669030
     0.850513277  0.834814268  0.577969803
     0.993366692  0.967543508  0.640033743
     0.629251535  0.736174109  0.587005438

  ion indices of the primitive-cell ions
   primitive index   ion index
                 1           1
                 2           2
                 3           3
                 4           4
                 5           5
                 6           6
                 7           7
                 8           8
                 9           9
                10          10
                11          11
                12          12
                13          13
                14          14
                15          15
                16          16
                17          17
                18          18
                19          19
                20          20
                21          21
                22          22
                23          23
                24          24
                25          25
                26          26
                27          27
                28          28
                29          29
                30          30
                31          31
                32          32
                33          33
                34          34
                35          35
                36          36
                37          37
                38          38
                39          39
                40          40
                41          41
                42          42
                43          43
                44          44
                45          45
                46          46
                47          47
                48          48
                49          49
                50          50
                51          51
                52          52
                53          53
                54          54
                55          55
                56          56
                57          57
                58          58
                59          59
                60          60
                61          61
                62          62
                63          63
                64          64
                65          65
                66          66
                67          67
                68          68
                69          69
                70          70
                71          71
                72          72
                73          73
                74          74
                75          75
                76          76
                77          77
                78          78
                79          79
                80          80
                81          81
                82          82
                83          83
                84          84
                85          85
                86          86
                87          87
                88          88
                89          89
                90          90
                91          91
                92          92
                93          93
                94          94
                95          95
                96          96
                97          97
                98          98
                99          99
               100         100
               101         101

----------------------------------------------------------------------------------------


 -----------------------------------------------------------------------------
|                                                                             |
|           W    W    AA    RRRRR   N    N  II  N    N   GGGG   !!!           |
|           W    W   A  A   R    R  NN   N  II  NN   N  G    G  !!!           |
|           W    W  A    A  R    R  N N  N  II  N N  N  G       !!!           |
|           W WW W  AAAAAA  RRRRR   N  N N  II  N  N N  G  GGG   !            |
|           WW  WW  A    A  R   R   N   NN  II  N   NN  G    G                |
|           W    W  A    A  R    R  N    N  II  N    N   GGGG   !!!           |
|                                                                             |
|     The requested file  could not be found or opened for reading            |
|     k-point information. Automatic k-point generation is used as a          |
|     fallback, which may lead to unwanted results.                           |
|                                                                             |
 -----------------------------------------------------------------------------



Automatic generation of k-mesh.
 Grid dimensions derived from KSPACING:
 generate k-points for:    2    2    1

 Generating k-lattice:

  Cartesian coordinates                     Fractional coordinates (reciprocal lattice)
     0.034412559  0.000000000  0.000000000     0.500000000  0.000000000  0.000000000
     0.000000000  0.034412559  0.000000000     0.000000000  0.500000000  0.000000000
     0.000000000  0.000000000  0.034816722     0.000000000  0.000000000  1.000000000

  Length of vectors
     0.034412559  0.034412559  0.034816722

  Shift w.r.t. Gamma in fractional coordinates (k-lattice)
     0.000000000  0.000000000  0.000000000

 
 Subroutine IBZKPT returns following result:
 ===========================================
 
 Found      4 irreducible k-points:
 
 Following reciprocal coordinates:
            Coordinates               Weight
  0.000000  0.000000  0.000000      1.000000
  0.500000  0.000000  0.000000      1.000000
  0.000000  0.500000  0.000000      1.000000
  0.500000  0.500000  0.000000      1.000000
 
 Following cartesian coordinates:
            Coordinates               Weight
  0.000000  0.000000  0.000000      1.000000
  0.034413  0.000000  0.000000      1.000000
  0.000000  0.034413  0.000000      1.000000
  0.034413  0.034413  0.000000      1.000000
 


--------------------------------------------------------------------------------------------------------




 Dimension of arrays:
   k-points           NKPTS =      4   k-points in BZ     NKDIM =      4   number of bands    NBANDS=    248
   number of dos      NEDOS =   2000   number of ions     NIONS =    101
   non local maximal  LDIM  =      4   non local SUM 2l+1 LMDIM =      8
   total plane-waves  NPLWV = ******
   max r-space proj   IRMAX =      1   max aug-charges    IRDMAX= 418491
   dimension x,y,z NGX =   168 NGY =  168 NGZ =  336
   dimension x,y,z NGXF=   336 NGYF=  336 NGZF=  672
   support grid    NGXF=   672 NGYF=  672 NGZF= 1344
   ions per type =               5  96
   NGX,Y,Z   is equivalent  to a cutoff of  19.22, 19.22, 19.45 a.u.
   NGXF,Y,Z  is equivalent  to a cutoff of  38.44, 38.44, 38.90 a.u.

 SYSTEM =  a-Si SPC                                
 POSCAR =   H Si                                   

 Startparameter for this run:
   NWRITE =      2    write-flag & timer
   PREC   = accura    normal or accurate (medium, high low for compatibility)
   ISTART =      1    job   : 0-new  1-cont  2-samecut
   ICHARG =      1    charge: 1-file 2-atom 10-const
   ISPIN  =      1    spin polarized calculation?
   LNONCOLLINEAR =      F non collinear calculations
   LSORBIT =      F    spin-orbit coupling
   INIWAV =      1    electr: 0-lowe 1-rand  2-diag
   LASPH  =      T    aspherical Exc in radial PAW
 Electronic Relaxation 1
   ENCUT  = 1200.0 eV  88.20 Ry    9.39 a.u.  41.04 41.04 81.13*2*pi/ulx,y,z
   ENINI  = 1200.0     initial cutoff
   ENAUG  =  400.0 eV  augmentation charge cutoff
   NELM   =    150;   NELMIN=  2; NELMDL=  0     # of ELM steps 
   EDIFF  = 0.1E-05   stopping-criterion for ELM
   LREAL  =      F    real-space projection
   NLSPLINE    = F    spline interpolate recip. space projectors
   LCOMPAT=      F    compatible to vasp.4.4
   GGA_COMPAT  = T    GGA compatible to vasp.4.4-vasp.4.6
   LMAXPAW     = -100 max onsite density
   LMAXMIX     =    2 max onsite mixed and CHGCAR
   VOSKOWN=      0    Vosko Wilk Nusair interpolation
   ROPT   =    0.00000   0.00000
 Ionic relaxation
   EDIFFG = -.1E-01   stopping-criterion for IOM
   NSW    =      0    number of steps for IOM
   NBLOCK =      1;   KBLOCK =      1    inner block; outer block 
   IBRION =     -1    ionic relax: 0-MD 1-quasi-New 2-CG
   NFREE  =      0    steps in history (QN), initial steepest desc. (CG)
   ISIF   =      2    stress and relaxation
   IWAVPR =     10    prediction:  0-non 1-charg 2-wave 3-comb
   ISYM   =      1    0-nonsym 1-usesym 2-fastsym
   LCORR  =      T    Harris-Foulkes like correction to forces

   POTIM  = 0.5000    time-step for ionic-motion
   TEIN   =    0.0    initial temperature
   TEBEG  =    0.0;   TEEND  =   0.0 temperature during run
   SMASS  =  -3.00    Nose mass-parameter (am)
   estimated Nose-frequenzy (Omega)   =  0.10E-29 period in steps = 0.13E+47 mass=  -0.482E-26a.u.
   SCALEE = 1.0000    scale energy and forces
   NPACO  =    256;   APACO  = 10.0  distance and # of slots for P.C.
   PSTRESS=    0.0 pullay stress

  Mass of Ions in am
   POMASS =   1.00 28.09
  Ionic Valenz
   ZVAL   =   1.00  4.00
  Atomic Wigner-Seitz radii
   RWIGS  =  -1.00 -1.00
  virtual crystal weights 
   VCA    =   1.00  1.00
   NELECT =     389.0000    total number of electrons
   NUPDOWN=      -1.0000    fix difference up-down

 DOS related values:
   EMIN   =  10.00;   EMAX   =-10.00  energy-range for DOS
   EFERMI =   0.00;   METHOD = LEGACY      
   ISMEAR =     0;   SIGMA  =   0.10  broadening in eV -4-tet -1-fermi 0-gaus
   EFERMI_NEDOS =   21; number of points for ismear=-14 and -15

 Electronic relaxation 2 (details)
   IALGO  =     38    algorithm
   LDIAG  =      F    sub-space diagonalisation (order eigenvalues)
   LSUBROT=      F    optimize rotation matrix (better conditioning)
   TURBO    =      0    0=normal 1=particle mesh
   IRESTART =      0    0=no restart 2=restart with 2 vectors
   NREBOOT  =      0    no. of reboots
   NMIN     =      0    reboot dimension
   EREF     =   0.00    reference energy to select bands
   IMIX   =      4    mixing-type and parameters
     AMIX     =   0.40;   BMIX     =  1.00
     AMIX_MAG =   1.60;   BMIX_MAG =  1.00
     AMIN     =   0.10
     WC   =   100.;   INIMIX=   1;  MIXPRE=   1;  MAXMIX= -45

 Intra band minimization:
   WEIMIN = 0.0000     energy-eigenvalue tresh-hold
   EBREAK =  0.10E-08  absolut break condition
   DEPER  =   0.30     relativ break condition  

   TIME   =   0.40     timestep for ELM

  volume/ion in A,a.u.               =      60.03       405.13
  Fermi-wavevector in a.u.,A,eV,Ry     =   0.655368  1.238466  5.843802  0.429507
  Thomas-Fermi vector in A             =   1.726222

 Write flags
   LWAVE        =      F    write WAVECAR
   LDOWNSAMPLE  =      F    k-point downsampling of WAVECAR
   LCHARG       =      F    write CHGCAR
   LVTOT        =      F    write LOCPOT, total local potential
   LVHAR        =      F    write LOCPOT, Hartree potential only
   WRT_POTENTIAL= false  ! write potential to hdf5 file
   LELF         =      F    write electronic localiz. function (ELF)
   LORBIT       =     11    0 simple, 1 ext, 2 COOP (PROOUT), +10 PAW based schemes


 Python interface
   PLUGINS active      =      F    recompile with -DPLUGINS to activate

 Dipole corrections
   LMONO      =      F    monopole corrections only (constant potential shift)
   LDIPOL     =      F    correct potential (dipole corrections)
   IDIPOL     =      0    1-x, 2-y, 3-z, 4-all directions 
   EPSILON    =  1.0000000 bulk dielectric constant
   LVACPOTAV  =      F  vacuum potentials using an averaging scheme for the charge density
   VACPOTFLAT =  0.1000000 required flatness to determine vacuum potential

Coulomb truncation method
  LTRUNCATE          =      F  Coulomb kernel truncation to be used
  IDIMENSIONALITY    =      3  Dimensionality of cutoff (0 molecules / 2 surfaces)
  ISURFACE           =     -1  Direction of surface normal
  LCOARSEN           =      F  Coarsen the charge grid before padding, preferred


 Exchange correlation treatment:
   METAGGA = SCAN    functional components
   XC_C    = 1    coefficients multiplying the functional components
   LIBXC   =     F    Libxc                    
   VOSKOWN =     0    Vosko Wilk Nusair interpolation
   LHFCALC =     F    Hartree Fock is set to
   LHFONE  =     F    Hartree Fock one center treatment
   AEXX    =    0.0000 exact exchange contribution

 Parameters of functionals:
   SCAN:
     P1 =  0.000000E+00
     P2 =  0.000000E+00
     P3 =  0.000000E+00

 Accuracy and mixing parameters for tau-dependent meta-GGA functionals:
   LMAXTAU = 6
   LMIXTAU = T

 Van der Waals corrections
   IVDW    =     0    specifies the selected vdW correction

 Linear response parameters
   LEPSILON=     F    determine dielectric tensor
   LRPA    =     F    only Hartree local field effects (RPA)
   LNABLA  =     F    use nabla operator in PAW spheres
   LVEL    =     F    velocity operator in full k-point grid
   CSHIFT  =0.1000    complex shift for real part using Kramers Kronig
   OMEGAMAX=  -1.0    maximum frequency
   DEG_THRESHOLD= 0.2000000E-02 threshold for treating states as degnerate
   RTIME   =   -0.100 relaxation time in fs
  (WPLASMAI=    0.000 imaginary part of plasma frequency in eV, 0.658/RTIME)
   DFIELD  = 0.0000000 0.0000000 0.0000000 field for delta impulse in time

  Optional k-point grid parameters
   LKPOINTS_OPT  =     F    use optional k-point grid
   KPOINTS_OPT_MODE=     1    mode for optional k-point grid

 Orbital magnetization related:
   ORBITALMAG=     F  switch on orbital magnetization
   LCHIMAG   =     F  perturbation theory with respect to B field
   DQ        =  0.001000  dq finite difference perturbation B field
   LLRAUG    =     F  two centre corrections for induced B field
   LBONE     =     F  B-component reconstruction in AE one-centre
   LVGVCALC  =     T  calculate vGv susceptibility
   LVGVAPPL  =     F  apply vGv susceptibility instead of pGv for G=0

 Random number generation:
   RANDOM_GENERATOR = DEFAULT
   PCG_SEED         = not used


--------------------------------------------------------------------------------------------------------


 Static calculation
 charge density and potential will be updated during run
 non-spin polarized calculation
 Variant of blocked Davidson
 perform Loewdin sub-space diagonalisation
    ordering is kept fixed
    before iterative eigenvector-optimisation
 modified Broyden-mixing scheme, WC =      100.0
 initial mixing is a Kerker type mixing with AMIX =  0.4000 and BMIX =      1.0000
 Hartree-type preconditioning will be used
 using additional bands           53
 reciprocal scheme for non local part
 use partial core corrections
 calculate Harris-corrections to forces   (improved forces if not selfconsistent)
 use gradient corrections 
 use of overlap-Matrix (Vanderbilt PP)
 Gauss-broadening in eV      SIGMA  =   0.10


--------------------------------------------------------------------------------------------------------


  energy-cutoff  :     1200.00
  volume of cell :     6063.43
      direct lattice vectors                 reciprocal lattice vectors
    14.529579173  0.000000000  0.000000000     0.068825118  0.000000000  0.000000000
     0.000000000 14.529579173  0.000000000     0.000000000  0.068825118  0.000000000
     0.000000000  0.000000000 28.721831000     0.000000000  0.000000000  0.034816722

  length of vectors
    14.529579173 14.529579173 28.721831000     0.068825118  0.068825118  0.034816722



 old parameters found on file WAVECAR:
  energy-cutoff  :     1200.00
  volume of cell :     6063.43
      direct lattice vectors                 reciprocal lattice vectors
    14.529579173  0.000000000  0.000000000     0.068825118  0.000000000  0.000000000
     0.000000000 14.529579173  0.000000000     0.000000000  0.068825118  0.000000000
     0.000000000  0.000000000 28.721831000     0.000000000  0.000000000  0.034816722

  length of vectors


 k-points in units of 2pi/SCALE and weight: read from INCAR                         
   0.00000000  0.00000000  0.00000000       0.250
   0.03441256  0.00000000  0.00000000       0.250
   0.00000000  0.03441256  0.00000000       0.250
   0.03441256  0.03441256  0.00000000       0.250

 k-points in reciprocal lattice and weights: read from INCAR                         
   0.00000000  0.00000000  0.00000000       0.250
   0.50000000  0.00000000  0.00000000       0.250
   0.00000000  0.50000000  0.00000000       0.250
   0.50000000  0.50000000  0.00000000       0.250

 position of ions in fractional coordinates (direct lattice) 
   0.47813154  0.02913216  0.61510253
   0.87891740  0.57537661  0.54243795
   0.01474337  0.86511108  0.63633725
   0.92210516  0.40619139  0.58814360
   0.46516282  0.91598661  0.45169791
   0.39856557  0.88679788  0.55049001
   0.35595525  0.11176855  0.61812776
   0.98277451  0.29150259  0.34816722
   0.29200364  0.23177960  0.48908759
   0.72496250  0.41309731  0.56554058
   0.96728197  0.89369416  0.53478627
   0.74028297  0.68808118  0.36266368
   0.89827791  0.91541536  0.38038512
   0.31581300  0.73425389  0.64008701
   0.11650578  0.83085682  0.35860865
   0.79738717  0.43907053  0.43163442
   0.30421322  0.29555915  0.35406656
   0.38344125  0.33951844  0.52920550
   0.62503531  0.02090948  0.54592693
   0.48367058  0.54589262  0.36792881
   0.88818815  0.14372956  0.57310208
   0.32137132  0.55006686  0.45096885
   0.06215762  0.75712447  0.42967111
   0.57277158  0.41300026  0.57153428
   0.21657613  0.29829426  0.41924385
   0.54732556  0.28134469  0.61964194
   0.27229763  0.64983162  0.50914933
   0.33420376  0.61011609  0.37903019
   0.51431496  0.95051617  0.58885247
   0.17561486  0.76953364  0.48741360
   0.97077829  0.63524896  0.44680964
   0.90198758  0.07593613  0.39876431
   0.30388423  0.03904132  0.35211345
   0.07315904  0.31994526  0.53750790
   0.51552973  0.38282871  0.49771447
   0.27999572  0.98557569  0.58334690
   0.57811034  0.67021693  0.36729713
   0.72814222  0.65535621  0.48878538
   0.55685508  0.37099147  0.41105148
   0.74868652  0.32885467  0.49391214
   0.11061366  0.01182443  0.45836810
   0.10040346  0.21041972  0.38310549
   0.47348515  0.52282657  0.59962406
   0.99848728  0.35399442  0.61326282
   0.12945179  0.58200172  0.63460233
   0.42299780  0.10737338  0.38952847
   0.70867159  0.95072953  0.48672109
   0.99701442  0.02772964  0.56617146
   0.77345668  0.34050539  0.63473011
   0.73275350  0.80378790  0.52849141
   0.31539867  0.36670160  0.65183278
   0.62591489  0.89112010  0.42401339
   0.18113876  0.20527711  0.54820151
   0.94306930  0.37866754  0.41555084
   0.70116277  0.38710756  0.37127083
   0.78130274  0.08664738  0.45490140
   0.82235692  0.95951162  0.62597371
   0.27919735  0.85592293  0.44008270
   0.02656037  0.13707486  0.44111467
   0.60951456  0.25738805  0.47408576
   0.56600745  0.64710477  0.47614099
   0.40064753  0.11421528  0.46790997
   0.18008643  0.45984745  0.44363575
   0.36870992  0.72477667  0.55979130
   0.55801134  0.02225412  0.38407130
   0.98534168  0.26675652  0.47497184
   0.21241565  0.85056145  0.61853337
   0.11109131  0.80276241  0.55934669
   0.38616879  0.94651055  0.47813912
   0.84548216  0.20991042  0.49977597
   0.74300156  0.08759510  0.59773038
   0.03301555  0.67428381  0.58759628
   0.12434841  0.46647325  0.51885902
   0.22002358  0.54730835  0.56844395
   0.90541507  0.24389351  0.63865361
   0.74472219  0.86073381  0.36652252
   0.04003764  0.50869126  0.40772857
   0.53099473  0.14018094  0.51502152
   0.76645716  0.56255311  0.55495142
   0.64657826  0.14824104  0.41064029
   0.19903880  0.95196150  0.39489234
   0.67808777  0.20860205  0.64670567
   0.54478866  0.83383695  0.64095082
   0.45112869  0.20665636  0.57440840
   0.88721083  0.71290434  0.63001036
   0.99016632  0.89822973  0.45148518
   0.00047534  0.57518665  0.52482382
   0.51438723  0.64586454  0.55232868
   0.24887644  0.23267639  0.62523281
   0.72446696  0.22246481  0.35069822
   0.53112963  0.76463330  0.42607454
   0.15684763  0.04355763  0.53756709
   0.81649990  0.60741470  0.42806641
   0.38004267  0.76396569  0.38756864
   0.33888731  0.45345360  0.58626384
   0.45981167  0.26194702  0.37424164
   0.48752479  0.51538175  0.44730543
   0.74503878  0.64479775  0.62066903
   0.85051328  0.83481427  0.57796980
   0.99336669  0.96754351  0.64003374
   0.62925154  0.73617411  0.58700544

 position of ions in cartesian coordinates  (Angst):
   6.94705000  0.42327800 17.66687100
  12.77030000  8.35998000 15.57981100
   0.21421500 12.56970000 18.27677100
  13.39780000  5.90179000 16.89256100
   6.75862000 13.30890000 12.97359100
   5.79099000 12.88480000 15.81108100
   5.17188000  1.62395000 17.75376100
  14.27930000  4.23541000 10.00000000
   4.24269000  3.36766000 14.04749100
  10.53340000  6.00213000 16.24336100
  14.05420000 12.98500000 15.36004100
  10.75600000  9.99753000 10.41636500
  13.05160000 13.30060000 10.92535700
   4.58863000 10.66840000 18.38447100
   1.69278000 12.07200000 10.29989700
  11.58570000  6.37951000 12.39733100
   4.42009000  4.29435000 10.16944000
   5.57124000  4.93306000 15.19975100
   9.08150000  0.30380600 15.68002100
   7.02753000  7.93159000 10.56758900
  12.90500000  2.08833000 16.46054100
   4.66939000  7.99224000 12.95265100
   0.90312400 11.00070000 12.34094100
   8.32213000  6.00072000 16.41551100
   3.14676000  4.33409000 12.04145100
   7.95241000  4.08782000 17.79725100
   3.95637000  9.44178000 14.62370100
   4.85584000  8.86473000 10.88644100
   7.47278000 13.81060000 16.91292100
   2.55161000 11.18100000 13.99941100
  14.10500000  9.22990000 12.83319100
  13.10550000  1.10332000 11.45324100
   4.41531000  0.56725400 10.11334300
   1.06297000  4.64867000 15.43821100
   7.49043000  5.56234000 14.29527100
   4.06822000 14.32000000 16.75479100
   8.39970000  9.73797000 10.54944600
  10.57960000  9.52205000 14.03881100
   8.09087000  5.39035000 11.80615100
  10.87810000  4.77812000 14.18606100
   1.60717000  0.17180400 13.16517100
   1.45882000  3.05731000 11.00349100
   6.87954000  7.59645000 17.22230100
  14.50760000  5.14339000 17.61403100
   1.88088000  8.45624000 18.22694100
   6.14598000  1.56009000 11.18797100
  10.29670000 13.81370000 13.97952100
  14.48620000  0.40290000 16.26148100
  11.23800000  4.94740000 18.23061100
  10.64660000 11.67870000 15.17924100
   4.58261000  5.32802000 18.72183100
   9.09428000 12.94760000 12.17844100
   2.63187000  2.98259000 15.74535100
  13.70240000  5.50188000 11.93538100
  10.18760000  5.62451000 10.66357800
  11.35200000  1.25895000 13.06560100
  11.94850000 13.94130000 17.97911100
   4.05662000 12.43620000 12.63998100
   0.38591100  1.99164000 12.66962100
   8.85599000  3.73974000 13.61661100
   8.22385000  9.40216000 13.67564100
   5.82124000  1.65950000 13.43923100
   2.61658000  6.68139000 12.74203100
   5.35720000 10.53070000 16.07823100
   8.10767000  0.32334300 11.03123100
  14.31660000  3.87586000 13.64206100
   3.08631000 12.35830000 17.76541100
   1.61411000 11.66380000 16.06546100
   5.61087000 13.75240000 13.73303100
  12.28450000  3.04991000 14.35448100
  10.79550000  1.27272000 17.16791100
   0.47970200  9.79706000 16.87684100
   1.80673000  6.77766000 14.90258100
   3.19685000  7.95216000 16.32675100
  13.15530000  3.54367000 18.34330100
  10.82050000 12.50610000 10.52719800
   0.58173000  7.39107000 11.71071100
   7.71513000  2.03677000 14.79236100
  11.13630000  8.17366000 15.93922100
   9.39451000  2.15388000 11.79434100
   2.89195000 13.83160000 11.34203100
   9.85233000  3.03090000 18.57457100
   7.91555000 12.11530000 18.40928100
   6.55471000  3.00263000 16.49806100
  12.89080000 10.35820000 18.09505100
  14.38670000 13.05090000 12.96748100
   0.00690648  8.35722000 15.07390100
   7.47383000  9.38414000 15.86389100
   3.61607000  3.38069000 17.95783100
  10.52620000  3.23232000 10.07269500
   7.71709000 11.10980000 12.23764100
   2.27893000  0.63287400 15.43991100
  11.86340000  8.82548000 12.29485100
   5.52186000 11.10010000 11.13168100
   4.92389000  6.58849000 16.83857100
   6.68087000  3.80598000 10.74890500
   7.08353000  7.48828000 12.84743100
  10.82510000  9.36864000 17.82675100
  12.35760000 12.12950000 16.60035100
  14.43320000 14.05800000 18.38294100
   9.14276000 10.69630000 16.85987100



--------------------------------------------------------------------------------------------------------


 k-point     1 :   0.0000 0.0000 0.0000  plane waves:  572275
 k-point     2 :   0.5000 0.0000 0.0000  plane waves:  572314
 k-point     3 :   0.0000 0.5000 0.0000  plane waves:  572314
 k-point     4 :   0.5000 0.5000 0.0000  plane waves:  572268

 maximum and minimum number of plane-waves per node :     35834    35685

 maximum number of plane-waves:    572314
 maximum index in each direction: 
   IXMAX=   41   IYMAX=   41   IZMAX=   81
   IXMIN=  -41   IYMIN=  -41   IZMIN=  -81


 parallel 3D FFT for wavefunctions:
    minimum data exchange during FFTs selected (reduces bandwidth)
 parallel 3D FFT for charge:
    minimum data exchange during FFTs selected (reduces bandwidth)


 total amount of memory used by VASP MPI-rank0   379792. kBytes
=======================================================================

   base                                    :      30000. kBytes
   nonl-proj                               :      76182. kBytes
   fftplans                                :     114267. kBytes
   grid                                    :      88184. kBytes
   one-center                              :         21. kBytes
   wavefun                                 :      71138. kBytes

     INWAV:  cpu time     20.7243: real time     20.7384
 Broyden mixing: mesh for mixing (old mesh)
   NGX = 83   NGY = 83   NGZ =163
  (NGX  =336   NGY  =336   NGZ  =672)
  gives a total of ****** points

 initial charge density was supplied:
 number of electron     388.9999999 magnetization 
 keeping initial charge density in first step


--------------------------------------------------------------------------------------------------------


 Maximum index for augmentation-charges        11609 (set IRDMAX)


--------------------------------------------------------------------------------------------------------


 First call to EWALD:  gamma=   0.097
 Maximum number of real-space cells   3x   3x   2
 Maximum number of reciprocal cells   2x   2x   4

    FEWALD:  cpu time      0.0183: real time      0.0183


--------------------------------------- Ionic step        1  -------------------------------------------




--------------------------------------- Iteration      1(   1)  ---------------------------------------


    POTLOK:  cpu time      2.3030: real time      2.3041
    SETDIJ:  cpu time      1.8375: real time      1.8389
    EDDIAG:  cpu time     43.4608: real time     43.4865
     EDDAV:  cpu time    202.9481: real time    203.0569
       DOS:  cpu time      0.0094: real time      0.0096
    CHARGE:  cpu time     25.2369: real time     25.2598
    MIXING:  cpu time      0.0540: real time      0.0547
    --------------------------------------------
      LOOP:  cpu time    275.8498: real time    276.0105

 eigenvalue-minimisations  :  1992
 total energy-change (2. order) :-0.9742057E+03  (-0.1087041E+01)
 number of electron     388.9999999 magnetization 
 augmentation part      -21.9572460 magnetization 

 Broyden mixing:
  rms(total) = 0.11810E+01    rms(broyden)= 0.11810E+01
  rms(prec ) = 0.11824E+01
  weight for this iteration     100.00

 Free energy of the ion-electron system (eV)
  ---------------------------------------------------
  alpha Z        PSCENC =        52.61336616
  Ewald energy   TEWEN  =     61892.81337476
  -Hartree energ DENC   =    -70736.55581336
  -exchange      EXHF   =         0.00000000
  -V(xc)+E(xc)   XCENC  =      -465.64113635
  PAW double counting   =     34393.13203076   -33435.59782260
  entropy T*S    EENTRO =        -0.28445525
  eigenvalues    EBANDS =     -2631.54332461
  atomic energy  EATOM  =      9956.85804497
  Solvation  Ediel_sol  =         0.00000000
  ---------------------------------------------------
  free energy    TOTEN  =      -974.20573552 eV

  energy without entropy =     -973.92128027  energy(sigma->0) =     -974.06350789


--------------------------------------------------------------------------------------------------------




--------------------------------------- Iteration      1(   2)  ---------------------------------------


    POTLOK:  cpu time      2.2634: real time      2.2776
    SETDIJ:  cpu time      1.7760: real time      1.7770
    EDDIAG:  cpu time     43.4588: real time     43.4818
     EDDAV:  cpu time    202.8863: real time    202.9897
       DOS:  cpu time      0.0029: real time      0.0029
    CHARGE:  cpu time     25.1346: real time     25.1582
    MIXING:  cpu time      0.0449: real time      0.0454
    --------------------------------------------
      LOOP:  cpu time    275.5668: real time    275.7325

 eigenvalue-minimisations  :  2000
 total energy-change (2. order) : 0.6920510E+02  (-0.1032495E+01)
 number of electron     388.9999999 magnetization 
 augmentation part      -21.8747105 magnetization 

 Broyden mixing:
  rms(total) = 0.79682E+00    rms(broyden)= 0.79682E+00
  rms(prec ) = 0.79861E+00
  weight for this iteration     100.00

 eigenvalues of (default mixing * dielectric matrix)
  average eigenvalue GAMMA=   2.6604
  2.6604

 Free energy of the ion-electron system (eV)
  ---------------------------------------------------
  alpha Z        PSCENC =        52.61336616
  Ewald energy   TEWEN  =     61892.81337476
  -Hartree energ DENC   =    -70722.57908104
  -exchange      EXHF   =         0.00000000
  -V(xc)+E(xc)   XCENC  =      -454.76581346
  PAW double counting   =     41075.87446217   -40118.11161384
  entropy T*S    EENTRO =        -0.26746928
  eigenvalues    EBANDS =     -2587.43590836
  atomic energy  EATOM  =      9956.85804497
  Solvation  Ediel_sol  =         0.00000000
  ---------------------------------------------------
  free energy    TOTEN  =      -905.00063791 eV

  energy without entropy =     -904.73316863  energy(sigma->0) =     -904.86690327


--------------------------------------------------------------------------------------------------------




--------------------------------------- Iteration      1(   3)  ---------------------------------------


    POTLOK:  cpu time      2.2538: real time      2.2724
    SETDIJ:  cpu time      1.7981: real time      1.7990
    EDDIAG:  cpu time     43.4493: real time     43.4768
     EDDAV:  cpu time    202.6454: real time    202.7599
       DOS:  cpu time      0.0027: real time      0.0027
    CHARGE:  cpu time     25.1537: real time     25.1800
    MIXING:  cpu time      0.0431: real time      0.0431
    --------------------------------------------
      LOOP:  cpu time    275.3461: real time    275.5338

 eigenvalue-minimisations  :  2000
 total energy-change (2. order) :-0.3043549E+01  (-0.8910861E+00)
 number of electron     388.9999999 magnetization 
 augmentation part      -21.8026483 magnetization 

 Broyden mixing:
  rms(total) = 0.16310E+00    rms(broyden)= 0.16310E+00
  rms(prec ) = 0.28373E+00
  weight for this iteration     100.00

 eigenvalues of (default mixing * dielectric matrix)
  average eigenvalue GAMMA=   1.7423
  0.8684  2.6162

 Free energy of the ion-electron system (eV)
  ---------------------------------------------------
  alpha Z        PSCENC =        52.61336616
  Ewald energy   TEWEN  =     61892.81337476
  -Hartree energ DENC   =    -70709.76584262
  -exchange      EXHF   =         0.00000000
  -V(xc)+E(xc)   XCENC  =      -458.18813250
  PAW double counting   =     54358.66623673   -53401.16928714
  entropy T*S    EENTRO =        -0.27492543
  eigenvalues    EBANDS =     -2599.59702175
  atomic energy  EATOM  =      9956.85804497
  Solvation  Ediel_sol  =         0.00000000
  ---------------------------------------------------
  free energy    TOTEN  =      -908.04418680 eV

  energy without entropy =     -907.76926137  energy(sigma->0) =     -907.90672409


--------------------------------------------------------------------------------------------------------




--------------------------------------- Iteration      1(   4)  ---------------------------------------


    POTLOK:  cpu time      2.2532: real time      2.2724
    SETDIJ:  cpu time      1.7806: real time      1.7816
    EDDIAG:  cpu time     43.4457: real time     43.4747
     EDDAV:  cpu time    227.4438: real time    227.5706
       DOS:  cpu time      0.0027: real time      0.0027
    CHARGE:  cpu time     25.1205: real time     25.1433
    MIXING:  cpu time      0.0432: real time      0.0433
    --------------------------------------------
      LOOP:  cpu time    300.0897: real time    300.2885

 eigenvalue-minimisations  :  2424
 total energy-change (2. order) :-0.5064974E+00  (-0.2462994E+00)
 number of electron     388.9999999 magnetization 
 augmentation part      -21.8024184 magnetization 

 Broyden mixing:
  rms(total) = 0.24348E+00    rms(broyden)= 0.24348E+00
  rms(prec ) = 0.46597E+00
  weight for this iteration     100.00

 eigenvalues of (default mixing * dielectric matrix)
  average eigenvalue GAMMA=   1.2729
  2.5862  0.9750  0.2575

 Free energy of the ion-electron system (eV)
  ---------------------------------------------------
  alpha Z        PSCENC =        52.61336616
  Ewald energy   TEWEN  =     61892.81337476
  -Hartree energ DENC   =    -70716.71520177
  -exchange      EXHF   =         0.00000000
  -V(xc)+E(xc)   XCENC  =      -460.75405151
  PAW double counting   =     54708.40168704   -53750.88000982
  entropy T*S    EENTRO =        -0.25805662
  eigenvalues    EBANDS =     -2590.62983738
  atomic energy  EATOM  =      9956.85804497
  Solvation  Ediel_sol  =         0.00000000
  ---------------------------------------------------
  free energy    TOTEN  =      -908.55068417 eV

  energy without entropy =     -908.29262754  energy(sigma->0) =     -908.42165585


--------------------------------------------------------------------------------------------------------




--------------------------------------- Iteration      1(   5)  ---------------------------------------


    POTLOK:  cpu time      2.2536: real time      2.2729
    SETDIJ:  cpu time      1.7754: real time      1.7764
    EDDIAG:  cpu time     43.4225: real time     43.4480
     EDDAV:  cpu time    218.9655: real time    219.0824
       DOS:  cpu time      0.0030: real time      0.0030
    CHARGE:  cpu time     25.1230: real time     25.1459
    MIXING:  cpu time      0.0465: real time      0.0465
    --------------------------------------------
      LOOP:  cpu time    291.5896: real time    291.7753

 eigenvalue-minimisations  :  2280
 total energy-change (2. order) : 0.2961023E+00  (-0.1311714E+00)
 number of electron     388.9999999 magnetization 
 augmentation part      -21.8014299 magnetization 

 Broyden mixing:
  rms(total) = 0.61016E-01    rms(broyden)= 0.61016E-01
  rms(prec ) = 0.70571E-01
  weight for this iteration     100.00

 eigenvalues of (default mixing * dielectric matrix)
  average eigenvalue GAMMA=   1.1299
  2.5439  1.1221  0.6086  0.2449

 Free energy of the ion-electron system (eV)
  ---------------------------------------------------
  alpha Z        PSCENC =        52.61336616
  Ewald energy   TEWEN  =     61892.81337476
  -Hartree energ DENC   =    -70720.38084631
  -exchange      EXHF   =         0.00000000
  -V(xc)+E(xc)   XCENC  =      -461.78978915
  PAW double counting   =     54535.50942169   -53577.96448486
  entropy T*S    EENTRO =        -0.26800234
  eigenvalues    EBANDS =     -2585.64566683
  atomic energy  EATOM  =      9956.85804497
  Solvation  Ediel_sol  =         0.00000000
  ---------------------------------------------------
  free energy    TOTEN  =      -908.25458190 eV

  energy without entropy =     -907.98657956  energy(sigma->0) =     -908.12058073


--------------------------------------------------------------------------------------------------------




--------------------------------------- Iteration      1(   6)  ---------------------------------------


    POTLOK:  cpu time      2.2587: real time      2.2787
    SETDIJ:  cpu time      1.7687: real time      1.7696
    EDDIAG:  cpu time     43.4400: real time     43.4670
     EDDAV:  cpu time    208.4954: real time    208.6141
       DOS:  cpu time      0.0053: real time      0.0053
    CHARGE:  cpu time     25.1187: real time     25.1426
    MIXING:  cpu time      0.0451: real time      0.0452
    --------------------------------------------
      LOOP:  cpu time    281.1318: real time    281.3223

 eigenvalue-minimisations  :  2096
 total energy-change (2. order) :-0.2236029E-01  (-0.2768310E-01)
 number of electron     388.9999999 magnetization 
 augmentation part      -21.8016209 magnetization 

 Broyden mixing:
  rms(total) = 0.40497E-01    rms(broyden)= 0.40497E-01
  rms(prec ) = 0.46314E-01
  weight for this iteration     100.00

 eigenvalues of (default mixing * dielectric matrix)
  average eigenvalue GAMMA=   1.1007
  2.4884  1.4832  0.7015  0.5825  0.2479

 Free energy of the ion-electron system (eV)
  ---------------------------------------------------
  alpha Z        PSCENC =        52.61336616
  Ewald energy   TEWEN  =     61892.81337476
  -Hartree energ DENC   =    -70719.80115651
  -exchange      EXHF   =         0.00000000
  -V(xc)+E(xc)   XCENC  =      -461.94460530
  PAW double counting   =     54405.22850443   -53447.66550752
  entropy T*S    EENTRO =        -0.27117891
  eigenvalues    EBANDS =     -2586.10778426
  atomic energy  EATOM  =      9956.85804497
  Solvation  Ediel_sol  =         0.00000000
  ---------------------------------------------------
  free energy    TOTEN  =      -908.27694219 eV

  energy without entropy =     -908.00576328  energy(sigma->0) =     -908.14135273


--------------------------------------------------------------------------------------------------------




--------------------------------------- Iteration      1(   7)  ---------------------------------------


    POTLOK:  cpu time      2.2587: real time      2.2775
    SETDIJ:  cpu time      1.7725: real time      1.7736
    EDDIAG:  cpu time     43.4314: real time     43.4575
     EDDAV:  cpu time    225.9174: real time    226.0441
       DOS:  cpu time      0.0027: real time      0.0027
    CHARGE:  cpu time     25.1585: real time     25.1814
    MIXING:  cpu time      0.0456: real time      0.0456
    --------------------------------------------
      LOOP:  cpu time    298.5867: real time    298.7823

 eigenvalue-minimisations  :  2392
 total energy-change (2. order) :-0.4548854E-02  (-0.3195262E-02)
 number of electron     388.9999999 magnetization 
 augmentation part      -21.7999630 magnetization 

 Broyden mixing:
  rms(total) = 0.27719E-01    rms(broyden)= 0.27719E-01
  rms(prec ) = 0.29958E-01
  weight for this iteration     100.00

 eigenvalues of (default mixing * dielectric matrix)
  average eigenvalue GAMMA=   1.1351
  2.2675  2.2675  0.7682  0.7682  0.2472  0.4918

 Free energy of the ion-electron system (eV)
  ---------------------------------------------------
  alpha Z        PSCENC =        52.61336616
  Ewald energy   TEWEN  =     61892.81337476
  -Hartree energ DENC   =    -70718.42733632
  -exchange      EXHF   =         0.00000000
  -V(xc)+E(xc)   XCENC  =      -461.88712835
  PAW double counting   =     54349.30469468   -53391.72785787
  entropy T*S    EENTRO =        -0.27070182
  eigenvalues    EBANDS =     -2587.55794726
  atomic energy  EATOM  =      9956.85804497
  Solvation  Ediel_sol  =         0.00000000
  ---------------------------------------------------
  free energy    TOTEN  =      -908.28149105 eV

  energy without entropy =     -908.01078923  energy(sigma->0) =     -908.14614014


--------------------------------------------------------------------------------------------------------




--------------------------------------- Iteration      1(   8)  ---------------------------------------


    POTLOK:  cpu time      2.2767: real time      2.2789
    SETDIJ:  cpu time      1.7768: real time      1.7777
    EDDIAG:  cpu time     43.4530: real time     43.4809
     EDDAV:  cpu time    215.5639: real time    215.6823
       DOS:  cpu time      0.0021: real time      0.0021
    CHARGE:  cpu time     25.1272: real time     25.1496
    MIXING:  cpu time      0.0478: real time      0.0478
    --------------------------------------------
      LOOP:  cpu time    288.2474: real time    288.4194

 eigenvalue-minimisations  :  2224
 total energy-change (2. order) :-0.1461317E-02  (-0.1047829E-02)
 number of electron     388.9999999 magnetization 
 augmentation part      -21.7984235 magnetization 

 Broyden mixing:
  rms(total) = 0.14849E-01    rms(broyden)= 0.14849E-01
  rms(prec ) = 0.16135E-01
  weight for this iteration     100.00

 eigenvalues of (default mixing * dielectric matrix)
  average eigenvalue GAMMA=   1.1830
  2.5567  2.5567  0.8907  0.8907  0.6731  0.2471  0.4656

 Free energy of the ion-electron system (eV)
  ---------------------------------------------------
  alpha Z        PSCENC =        52.61336616
  Ewald energy   TEWEN  =     61892.81337476
  -Hartree energ DENC   =    -70717.24004230
  -exchange      EXHF   =         0.00000000
  -V(xc)+E(xc)   XCENC  =      -461.64497056
  PAW double counting   =     54341.01503210   -53383.42202340
  entropy T*S    EENTRO =        -0.27153439
  eigenvalues    EBANDS =     -2589.00419970
  atomic energy  EATOM  =      9956.85804497
  Solvation  Ediel_sol  =         0.00000000
  ---------------------------------------------------
  free energy    TOTEN  =      -908.28295236 eV

  energy without entropy =     -908.01141797  energy(sigma->0) =     -908.14718517


--------------------------------------------------------------------------------------------------------




--------------------------------------- Iteration      1(   9)  ---------------------------------------


    POTLOK:  cpu time      2.2578: real time      2.2788
    SETDIJ:  cpu time      1.7737: real time      1.7753
    EDDIAG:  cpu time     43.4443: real time     43.4703
     EDDAV:  cpu time    214.0148: real time    214.1353
       DOS:  cpu time      0.0025: real time      0.0025
    CHARGE:  cpu time     25.1466: real time     25.1693
    MIXING:  cpu time      0.0466: real time      0.0466
    --------------------------------------------
      LOOP:  cpu time    286.6863: real time    286.8781

 eigenvalue-minimisations  :  2192
 total energy-change (2. order) :-0.8040659E-03  (-0.3694863E-03)
 number of electron     388.9999999 magnetization 
 augmentation part      -21.7971580 magnetization 

 Broyden mixing:
  rms(total) = 0.73532E-02    rms(broyden)= 0.73532E-02
  rms(prec ) = 0.91711E-02
  weight for this iteration     100.00

 eigenvalues of (default mixing * dielectric matrix)
  average eigenvalue GAMMA=   1.1495
  2.6247  2.6247  1.0390  0.8329  0.8329  0.2471  0.5495  0.4447

 Free energy of the ion-electron system (eV)
  ---------------------------------------------------
  alpha Z        PSCENC =        52.61336616
  Ewald energy   TEWEN  =     61892.81337476
  -Hartree energ DENC   =    -70716.71418381
  -exchange      EXHF   =         0.00000000
  -V(xc)+E(xc)   XCENC  =      -461.49569198
  PAW double counting   =     54370.80160932   -53413.19632635
  entropy T*S    EENTRO =        -0.27039532
  eigenvalues    EBANDS =     -2589.69355417
  atomic energy  EATOM  =      9956.85804497
  Solvation  Ediel_sol  =         0.00000000
  ---------------------------------------------------
  free energy    TOTEN  =      -908.28375643 eV

  energy without entropy =     -908.01336111  energy(sigma->0) =     -908.14855877


--------------------------------------------------------------------------------------------------------




--------------------------------------- Iteration      1(  10)  ---------------------------------------


    POTLOK:  cpu time      2.2864: real time      2.2876
    SETDIJ:  cpu time      1.7726: real time      1.7738
    EDDIAG:  cpu time     43.4612: real time     43.4887
     EDDAV:  cpu time    209.7221: real time    209.8404
       DOS:  cpu time      0.0039: real time      0.0039
    CHARGE:  cpu time     25.1545: real time     25.1784
    MIXING:  cpu time      0.0472: real time      0.0472
    --------------------------------------------
      LOOP:  cpu time    282.4478: real time    282.6199

 eigenvalue-minimisations  :  2120
 total energy-change (2. order) :-0.1075956E-04  (-0.1360590E-03)
 number of electron     388.9999999 magnetization 
 augmentation part      -21.7972274 magnetization 

 Broyden mixing:
  rms(total) = 0.32375E-02    rms(broyden)= 0.32375E-02
  rms(prec ) = 0.39376E-02
  weight for this iteration     100.00

 eigenvalues of (default mixing * dielectric matrix)
  average eigenvalue GAMMA=   1.1348
  2.6291  2.6291  1.2802  0.9818  0.8337  0.2471  0.6321  0.5501  0.4302

 Free energy of the ion-electron system (eV)
  ---------------------------------------------------
  alpha Z        PSCENC =        52.61336616
  Ewald energy   TEWEN  =     61892.81337476
  -Hartree energ DENC   =    -70716.53943872
  -exchange      EXHF   =         0.00000000
  -V(xc)+E(xc)   XCENC  =      -461.48991892
  PAW double counting   =     54385.16634906   -53427.55660092
  entropy T*S    EENTRO =        -0.27130373
  eigenvalues    EBANDS =     -2589.87763986
  atomic energy  EATOM  =      9956.85804497
  Solvation  Ediel_sol  =         0.00000000
  ---------------------------------------------------
  free energy    TOTEN  =      -908.28376719 eV

  energy without entropy =     -908.01246346  energy(sigma->0) =     -908.14811532


--------------------------------------------------------------------------------------------------------




--------------------------------------- Iteration      1(  11)  ---------------------------------------


    POTLOK:  cpu time      2.2644: real time      2.2837
    SETDIJ:  cpu time      1.7759: real time      1.7767
    EDDIAG:  cpu time     43.4660: real time     43.4925
     EDDAV:  cpu time    211.8825: real time    211.9992
       DOS:  cpu time      0.0094: real time      0.0096
    CHARGE:  cpu time     25.1553: real time     25.1792
    MIXING:  cpu time      0.0627: real time      0.0634
    --------------------------------------------
      LOOP:  cpu time    284.6165: real time    284.8045

 eigenvalue-minimisations  :  2152
 total energy-change (2. order) : 0.3815331E-04  (-0.6181505E-04)
 number of electron     388.9999999 magnetization 
 augmentation part      -21.7974688 magnetization 

 Broyden mixing:
  rms(total) = 0.18450E-02    rms(broyden)= 0.18450E-02
  rms(prec ) = 0.22100E-02
  weight for this iteration     100.00

 eigenvalues of (default mixing * dielectric matrix)
  average eigenvalue GAMMA=   1.1410
  2.6706  2.6706  1.6717  1.0394  0.7989  0.7989  0.2471  0.5610  0.5152  0.4365

 Free energy of the ion-electron system (eV)
  ---------------------------------------------------
  alpha Z        PSCENC =        52.61336616
  Ewald energy   TEWEN  =     61892.81337476
  -Hartree energ DENC   =    -70716.41439606
  -exchange      EXHF   =         0.00000000
  -V(xc)+E(xc)   XCENC  =      -461.51506150
  PAW double counting   =     54382.63591824   -53425.02421610
  entropy T*S    EENTRO =        -0.27111076
  eigenvalues    EBANDS =     -2589.97964874
  atomic energy  EATOM  =      9956.85804497
  Solvation  Ediel_sol  =         0.00000000
  ---------------------------------------------------
  free energy    TOTEN  =      -908.28372903 eV

  energy without entropy =     -908.01261828  energy(sigma->0) =     -908.14817366


--------------------------------------------------------------------------------------------------------




--------------------------------------- Iteration      1(  12)  ---------------------------------------


    POTLOK:  cpu time      2.2508: real time      2.2689
    SETDIJ:  cpu time      1.7761: real time      1.7782
    EDDIAG:  cpu time     43.4895: real time     43.5155
     EDDAV:  cpu time    207.5632: real time    207.6776
       DOS:  cpu time      0.0022: real time      0.0022
    CHARGE:  cpu time     25.1282: real time     25.1512
    MIXING:  cpu time      0.0491: real time      0.0491
    --------------------------------------------
      LOOP:  cpu time    280.2587: real time    280.4423

 eigenvalue-minimisations  :  2072
 total energy-change (2. order) :-0.4579085E-04  (-0.2403991E-04)
 number of electron     388.9999999 magnetization 
 augmentation part      -21.7975094 magnetization 

 Broyden mixing:
  rms(total) = 0.10893E-02    rms(broyden)= 0.10893E-02
  rms(prec ) = 0.13844E-02
  weight for this iteration     100.00

 eigenvalues of (default mixing * dielectric matrix)
  average eigenvalue GAMMA=   1.1631
  2.7770  2.7770  2.0393  1.0548  0.8812  0.8812  0.2471  0.6288  0.5368  0.5368
  0.4337

 Free energy of the ion-electron system (eV)
  ---------------------------------------------------
  alpha Z        PSCENC =        52.61336616
  Ewald energy   TEWEN  =     61892.81337476
  -Hartree energ DENC   =    -70716.15757367
  -exchange      EXHF   =         0.00000000
  -V(xc)+E(xc)   XCENC  =      -461.52439083
  PAW double counting   =     54378.36925140   -53420.75633447
  entropy T*S    EENTRO =        -0.27111227
  eigenvalues    EBANDS =     -2590.22840088
  atomic energy  EATOM  =      9956.85804497
  Solvation  Ediel_sol  =         0.00000000
  ---------------------------------------------------
  free energy    TOTEN  =      -908.28377483 eV

  energy without entropy =     -908.01266255  energy(sigma->0) =     -908.14821869


--------------------------------------------------------------------------------------------------------




--------------------------------------- Iteration      1(  13)  ---------------------------------------


    POTLOK:  cpu time      2.2586: real time      2.2779
    SETDIJ:  cpu time      1.7765: real time      1.7773
    EDDIAG:  cpu time     43.4631: real time     43.4876
     EDDAV:  cpu time    206.1719: real time    206.2864
       DOS:  cpu time      0.0041: real time      0.0041
    CHARGE:  cpu time     25.1334: real time     25.1567
    MIXING:  cpu time      0.0498: real time      0.0498
    --------------------------------------------
      LOOP:  cpu time    278.8575: real time    279.0398

 eigenvalue-minimisations  :  2056
 total energy-change (2. order) :-0.1078183E-03  (-0.2001105E-04)
 number of electron     388.9999999 magnetization 
 augmentation part      -21.7975978 magnetization 

 Broyden mixing:
  rms(total) = 0.56209E-03    rms(broyden)= 0.56209E-03
  rms(prec ) = 0.81816E-03
  weight for this iteration     100.00

 eigenvalues of (default mixing * dielectric matrix)
  average eigenvalue GAMMA=   1.1774
  2.8860  2.8860  2.1899  1.1402  0.9394  0.9394  0.8076  0.2471  0.5944  0.5323
  0.5323  0.4337

 Free energy of the ion-electron system (eV)
  ---------------------------------------------------
  alpha Z        PSCENC =        52.61336616
  Ewald energy   TEWEN  =     61892.81337476
  -Hartree energ DENC   =    -70715.84669128
  -exchange      EXHF   =         0.00000000
  -V(xc)+E(xc)   XCENC  =      -461.53110614
  PAW double counting   =     54376.14172213   -53418.52803795
  entropy T*S    EENTRO =        -0.27107234
  eigenvalues    EBANDS =     -2590.53348296
  atomic energy  EATOM  =      9956.85804497
  Solvation  Ediel_sol  =         0.00000000
  ---------------------------------------------------
  free energy    TOTEN  =      -908.28388264 eV

  energy without entropy =     -908.01281030  energy(sigma->0) =     -908.14834647


--------------------------------------------------------------------------------------------------------




--------------------------------------- Iteration      1(  14)  ---------------------------------------


    POTLOK:  cpu time      2.2757: real time      2.2772
    SETDIJ:  cpu time      1.7822: real time      1.7833
    EDDIAG:  cpu time     43.4693: real time     43.4948
     EDDAV:  cpu time    205.8521: real time    205.9637
       DOS:  cpu time      0.0111: real time      0.0117
    CHARGE:  cpu time     25.1268: real time     25.1502
    MIXING:  cpu time      0.0665: real time      0.0672
    --------------------------------------------
      LOOP:  cpu time    278.5839: real time    278.7482

 eigenvalue-minimisations  :  2048
 total energy-change (2. order) :-0.1386629E-03  (-0.2340751E-04)
 number of electron     388.9999999 magnetization 
 augmentation part      -21.7976715 magnetization 

 Broyden mixing:
  rms(total) = 0.32598E-03    rms(broyden)= 0.32598E-03
  rms(prec ) = 0.50641E-03
  weight for this iteration     100.00

 eigenvalues of (default mixing * dielectric matrix)
  average eigenvalue GAMMA=   1.1770
  2.9221  2.9221  2.2039  1.4212  0.9583  0.9583  0.9040  0.2471  0.6490  0.6490
  0.4331  0.5166  0.5166

 Free energy of the ion-electron system (eV)
  ---------------------------------------------------
  alpha Z        PSCENC =        52.61336616
  Ewald energy   TEWEN  =     61892.81337476
  -Hartree energ DENC   =    -70715.51443531
  -exchange      EXHF   =         0.00000000
  -V(xc)+E(xc)   XCENC  =      -461.53609187
  PAW double counting   =     54375.28552115   -53417.67160503
  entropy T*S    EENTRO =        -0.27109982
  eigenvalues    EBANDS =     -2590.86109632
  atomic energy  EATOM  =      9956.85804497
  Solvation  Ediel_sol  =         0.00000000
  ---------------------------------------------------
  free energy    TOTEN  =      -908.28402131 eV

  energy without entropy =     -908.01292149  energy(sigma->0) =     -908.14847140


--------------------------------------------------------------------------------------------------------




--------------------------------------- Iteration      1(  15)  ---------------------------------------


    POTLOK:  cpu time      2.2593: real time      2.2736
    SETDIJ:  cpu time      1.7922: real time      1.7937
    EDDIAG:  cpu time     43.4882: real time     43.5143
     EDDAV:  cpu time    205.9796: real time    206.0825
       DOS:  cpu time      0.0034: real time      0.0034
    CHARGE:  cpu time     25.1334: real time     25.1535
    MIXING:  cpu time      0.0521: real time      0.0521
    --------------------------------------------
      LOOP:  cpu time    278.7081: real time    278.8731

 eigenvalue-minimisations  :  2048
 total energy-change (2. order) :-0.1284620E-03  (-0.1466934E-04)
 number of electron     388.9999999 magnetization 
 augmentation part      -21.7977257 magnetization 

 Broyden mixing:
  rms(total) = 0.25410E-03    rms(broyden)= 0.25409E-03
  rms(prec ) = 0.39336E-03
  weight for this iteration     100.00

 eigenvalues of (default mixing * dielectric matrix)
  average eigenvalue GAMMA=   1.2157
  3.2482  2.7893  2.2236  1.9233  1.0588  1.0588  0.2471  0.9004  0.7618  0.7618
  0.4333  0.5373  0.5373  0.5385

 Free energy of the ion-electron system (eV)
  ---------------------------------------------------
  alpha Z        PSCENC =        52.61336616
  Ewald energy   TEWEN  =     61892.81337476
  -Hartree energ DENC   =    -70715.32505567
[...]
   0.252E+01 -.192E+01 -.160E+03   -.258E+01 0.758E+00 0.160E+03   -.108E+01 0.186E+01 0.353E+00   0.362E-04 -.541E-05 0.308E-05
   0.807E+01 -.714E+01 0.588E+02   -.591E+01 0.341E+01 -.599E+02   -.282E+01 0.457E+01 0.927E+00   -.269E-04 -.199E-04 -.822E-05
   -.147E+01 0.191E+01 -.585E+01   0.185E+01 -.730E-01 0.543E+01   -.107E+00 -.286E+01 0.862E+00   0.129E-04 -.171E-04 0.109E-05
   0.177E+02 0.462E+01 -.258E+03   -.163E+02 -.510E+01 0.257E+03   -.224E+01 0.125E+00 0.987E+00   0.398E-05 0.716E-05 0.193E-04
   0.178E+02 0.105E+02 -.243E+03   -.153E+02 -.123E+02 0.242E+03   -.289E+01 0.129E+01 0.106E+01   0.376E-04 -.365E-05 -.145E-04
   0.145E+02 0.497E+01 -.520E+02   -.127E+02 -.522E+01 0.520E+02   -.235E+01 -.128E+00 0.923E-01   0.295E-04 0.130E-04 -.337E-05
   0.662E+01 -.224E+00 -.197E+03   -.771E+01 -.411E+00 0.198E+03   0.446E+00 0.122E+01 -.207E+00   -.372E-05 0.102E-04 0.387E-05
   -.275E+02 0.110E+02 -.368E+03   0.267E+02 -.958E+01 0.367E+03   -.455E-01 -.211E+01 0.100E+01   -.181E-05 -.701E-05 0.227E-04
   -.140E+02 -.188E+01 0.346E+03   0.124E+02 0.293E+01 -.347E+03   0.187E+01 -.210E+01 0.926E+00   -.101E-04 0.202E-04 -.280E-04
   -.912E+01 -.241E+02 0.292E+03   0.844E+01 0.242E+02 -.291E+03   0.111E+01 -.389E+00 -.584E+00   0.298E-04 -.303E-05 -.797E-05
   -.152E+02 0.185E+02 -.377E+02   0.136E+02 -.180E+02 0.394E+02   0.206E+01 -.672E+00 -.184E+01   -.934E-05 0.717E-05 0.133E-04
   -.182E+02 0.124E+02 -.143E+03   0.159E+02 -.122E+02 0.146E+03   0.266E+01 0.661E-01 -.256E+01   0.134E-04 0.660E-05 -.151E-04
   -.831E+01 0.111E+02 0.244E+03   0.956E+01 -.115E+02 -.245E+03   -.931E+00 0.127E+00 0.236E+01   -.391E-05 0.411E-05 -.797E-05
   0.115E+02 -.140E+02 0.299E+03   -.101E+02 0.120E+02 -.297E+03   -.208E+01 0.294E+01 -.166E+01   0.498E-05 -.356E-04 -.144E-04
   0.782E+01 0.216E+02 -.379E+03   -.699E+01 -.191E+02 0.378E+03   -.427E+00 -.173E+01 0.580E+00   -.328E-05 -.642E-05 0.165E-04
   -.311E+01 0.960E+01 -.379E+03   0.271E+01 -.928E+01 0.382E+03   0.309E+00 -.114E+01 -.257E+01   -.154E-04 0.106E-04 -.155E-04
   0.120E+02 0.116E+02 -.210E+03   -.891E+01 -.110E+02 0.210E+03   -.446E+01 -.198E+00 -.107E+01   -.566E-05 -.224E-05 0.220E-04
   -.123E+02 0.215E+02 -.358E+03   0.119E+02 -.206E+02 0.357E+03   0.113E+01 -.439E+00 -.117E-01   0.108E-04 -.111E-04 -.906E-05
   0.333E+02 0.138E+02 0.140E+03   -.321E+02 -.148E+02 -.139E+03   -.131E+01 0.799E+00 -.869E+00   0.222E-04 0.904E-05 -.130E-04
   0.234E+02 0.143E+02 -.631E+02   -.196E+02 -.120E+02 0.633E+02   -.412E+01 -.170E+01 -.695E+00   0.245E-04 0.110E-04 0.966E-05
   -.872E+00 -.187E+01 -.147E+03   0.481E+00 0.152E+01 0.148E+03   -.538E+00 0.834E+00 0.570E+00   -.209E-04 0.264E-04 -.119E-04
   0.462E+02 0.625E+01 -.343E+03   -.429E+02 -.410E+01 0.341E+03   -.283E+01 -.194E+01 0.988E+00   0.143E-04 -.157E-05 0.111E-04
   -.257E+02 0.695E+01 0.382E+03   0.259E+02 -.891E+01 -.384E+03   0.386E+00 0.258E+01 0.248E+01   0.184E-05 -.355E-05 -.782E-05
   0.967E+01 -.230E+02 0.183E+03   -.893E+01 0.211E+02 -.185E+03   -.192E+01 0.213E+01 0.133E+01   -.189E-04 -.912E-05 -.197E-04
   -.440E+01 0.527E+00 -.105E+03   0.376E+01 0.599E+00 0.105E+03   -.264E+00 -.414E+00 -.345E+00   0.173E-04 -.196E-04 -.206E-05
   -.177E+02 -.487E+01 0.218E+03   0.170E+02 0.552E+01 -.215E+03   0.508E+00 -.992E+00 -.294E+01   0.919E-05 0.184E-05 0.309E-05
   0.151E+02 -.169E+02 0.318E+03   -.154E+02 0.166E+02 -.318E+03   0.196E+00 0.669E+00 0.641E+00   -.136E-04 0.236E-04 -.337E-04
   0.170E+02 -.775E+01 -.233E+03   -.171E+02 0.846E+01 0.234E+03   -.246E+00 -.182E+01 -.243E+01   -.169E-04 0.402E-05 0.396E-05
   -.209E+01 -.162E+02 0.337E+03   0.609E+00 0.160E+02 -.337E+03   0.751E+00 0.558E+00 0.200E+00   -.360E-04 -.666E-05 -.230E-04
   0.247E+01 0.243E+01 0.133E+03   -.266E+01 -.221E+00 -.134E+03   -.391E+00 -.221E+01 0.157E+01   -.242E-04 0.131E-04 -.327E-05
   0.845E+01 0.230E+02 -.354E+03   -.838E+01 -.237E+02 0.351E+03   -.322E+00 0.501E+00 0.301E+01   0.105E-05 0.124E-04 -.625E-05
   0.832E+01 0.154E+02 -.200E+03   -.834E+01 -.150E+02 0.199E+03   -.326E+00 -.106E+01 0.143E+01   0.227E-05 0.794E-05 -.192E-04
   -.251E+02 -.208E+02 -.387E+03   0.265E+02 0.217E+02 0.385E+03   -.202E+01 -.746E+00 0.238E+01   0.450E-05 0.315E-05 0.285E-05
   0.517E+01 -.714E+01 -.246E+03   -.562E+01 0.695E+01 0.246E+03   0.370E+00 0.127E+01 0.218E+00   -.371E-04 0.261E-04 -.612E-06
 -----------------------------------------------------------------------------------------------
   0.122E+02 -.197E+01 -.238E+01   0.178E-12 -.249E-13 0.796E-12   -.122E+02 0.196E+01 0.239E+01   -.345E-04 0.472E-04 -.472E-03


 POSITION                                       TOTAL-FORCE (eV/Angst)
 -----------------------------------------------------------------------------------
      6.94705      0.42328     17.66687        -0.387466      0.650141      0.601851
     12.77030      8.35998     15.57981         0.470077     -0.604626     -0.182966
      0.21422     12.56970     18.27677        -0.224168      0.152944      0.100694
     13.39780      5.90179     16.89256         0.239233      0.523421      0.317408
      6.75862     13.30890     12.97359         0.969663     -0.026936     -0.436369
      5.79099     12.88480     15.81108        -1.623272     -0.540258     -0.218396
      5.17188      1.62395     17.75376        -0.791750      0.269502     -0.064726
     14.27930      4.23541     10.00000        -0.857908      0.058941     -0.573959
      4.24269      3.36766     14.04749        -0.273959      0.430277     -0.358198
     10.53340      6.00213     16.24336         1.308761     -0.427938     -0.401159
     14.05420     12.98500     15.36004         0.795966     -1.276517     -0.647600
     10.75600      9.99753     10.41636        -0.251230      0.917975      0.916058
     13.05160     13.30060     10.92536         0.621042      0.304898      0.407032
      4.58863     10.66840     18.38447         0.150451     -0.663021     -0.043780
      1.69278     12.07200     10.29990        -1.077280     -0.058473      0.181965
     11.58570      6.37951     12.39733        -0.075379     -0.276384     -0.123895
      4.42009      4.29435     10.16944         0.878645     -0.601269     -0.489240
      5.57124      4.93306     15.19975        -1.192483     -1.096683      0.718946
      9.08150      0.30381     15.68002         0.582677      0.983757     -0.435276
      7.02753      7.93159     10.56759        -0.250095     -0.494938     -0.783141
     12.90500      2.08833     16.46054        -0.397911      0.579552      0.136114
      4.66939      7.99224     12.95265        -0.161916     -0.523889      0.502875
      0.90312     11.00070     12.34094         0.554969      1.104467      0.061631
      8.32213      6.00072     16.41551        -0.662337     -0.124657      0.973795
      3.14676      4.33409     12.04145        -0.166940      0.584042      1.316580
      7.95241      4.08782     17.79725         0.749721      0.528714      0.416577
      3.95637      9.44178     14.62370        -0.272051     -0.190676      0.374419
      4.85584      8.86473     10.88644         1.000593      0.609928     -0.977025
      7.47278     13.81060     16.91292         1.401463     -0.586011      0.736695
      2.55161     11.18100     13.99941         0.254309     -0.383315     -0.656240
     14.10500      9.22990     12.83319         0.052581     -1.088860      0.032713
     13.10550      1.10332     11.45324        -0.679593     -0.101930      0.097028
      4.41531      0.56725     10.11334        -0.840021      0.216850     -0.883349
      1.06297      4.64867     15.43821        -0.505860     -0.107833      1.169933
      7.49043      5.56234     14.29527         0.557944      0.384053     -0.446835
      4.06822     14.32000     16.75479        -0.309200     -0.563534      0.048290
      8.39970      9.73797     10.54945         1.403969     -0.102277     -0.315468
     10.57960      9.52205     14.03881        -0.570803      0.515910      0.712728
      8.09087      5.39035     11.80615         0.047787     -0.079536     -1.063333
     10.87810      4.77812     14.18606        -0.580781      1.354501      0.242756
      1.60717      0.17180     13.16517         0.519824     -0.915571      0.470331
      1.45882      3.05731     11.00349         1.220076      0.762694      0.017108
      6.87954      7.59645     17.22230         1.456335      0.753454      0.004359
     14.50760      5.14339     17.61403         0.872974      0.785320     -1.964663
      1.88088      8.45624     18.22694         0.389239      0.007032     -0.299903
      6.14598      1.56009     11.18797         0.383226      0.224855     -0.155105
     10.29670     13.81370     13.97952        -0.151124     -0.767225      0.391982
     14.48620      0.40290     16.26148         1.573341      1.147026      0.118755
     11.23800      4.94740     18.23061        -0.004352     -1.353077      0.194024
     10.64660     11.67870     15.17924        -0.672179     -0.339111     -0.478774
      4.58261      5.32802     18.72183         0.081819     -0.667307      0.708754
      9.09428     12.94760     12.17844         0.223806      1.095194     -0.940075
      2.63187      2.98259     15.74535         0.654054     -0.535708      0.012313
     13.70240      5.50188     11.93538         0.836916     -0.351286      0.210062
     10.18760      5.62451     10.66358        -0.457752     -0.726636      0.186780
     11.35200      1.25895     13.06560        -0.195175      0.263922     -0.785022
     11.94850     13.94130     17.97911         0.966649      0.174140      0.022928
      4.05662     12.43620     12.63998         0.691841     -0.971745      0.193433
      0.38591      1.99164     12.66962        -0.025146     -1.299199     -1.154647
      8.85599      3.73974     13.61661         0.006910     -0.251522     -0.350087
      8.22385      9.40216     13.67564         0.363133     -0.637898      0.231187
      5.82124      1.65950     13.43923        -0.291996     -0.704510      0.885768
      2.61658      6.68139     12.74203         0.454498     -0.696180     -0.544440
      5.35720     10.53070     16.07823         0.879003      0.850637      0.497544
      8.10767      0.32334     11.03123         0.768312     -0.036186      0.624174
     14.31660      3.87586     13.64206        -0.358684      1.634156      0.331089
      3.08631     12.35830     17.76541         0.594593      0.651485     -0.815216
      1.61411     11.66380     16.06546        -1.216175      0.764177      0.014265
      5.61087     13.75240     13.73303        -0.742819      1.023739     -0.073917
     12.28450      3.04991     14.35448         0.262821     -1.156510      0.461926
     10.79550      1.27272     17.16791        -0.846980     -0.404038      0.355964
      0.47970      9.79706     16.87684        -0.585945     -0.396227      0.796744
      1.80673      6.77766     14.90258        -0.722188     -0.350705      0.121924
      3.19685      7.95216     16.32675        -0.605888      0.594647     -0.060706
     13.15530      3.54367     18.34330        -0.831662     -0.681698      0.199742
     10.82050     12.50610     10.52720         0.406717     -1.281683      0.349333
      0.58173      7.39107     11.71071         0.468773     -0.355871      0.636784
      7.71513      2.03677     14.79236         0.513873     -0.133202     -0.252694
     11.13630      8.17366     15.93922         0.613051      0.298167     -0.455491
      9.39451      2.15388     11.79434         0.286724     -0.242027      0.641435
      2.89195     13.83160     11.34203        -0.803822      1.025549      0.162895
      9.85233      3.03090     18.57457         0.374175      0.861871     -0.560687
      7.91555     12.11530     18.40928        -0.030510     -0.831262     -0.178543
      6.55471      3.00263     16.49806        -1.576396      0.383173     -0.526752
     12.89080     10.35820     18.09505         0.672878      0.509732     -1.009996
     14.38670     13.05090     12.96748        -0.096325     -0.229443     -0.045879
      0.00691      8.35722     15.07390        -0.592619      0.501659     -0.485759
      7.47383      9.38414     15.86389        -0.955337      0.581840      1.002671
      3.61607      3.38069     17.95783         0.458262      0.095170     -0.817930
     10.52620      3.23232     10.07269         0.531257      0.847264      0.139362
      7.71709     11.10980     12.23764        -1.230569      0.230570     -0.801928
      2.27893      0.63287     15.43991        -0.937495      0.735749      0.011845
     11.86340      8.82548     12.29485        -0.210893     -0.394962     -0.800897
      5.52186     11.10010     11.13168        -0.088312      0.292365      1.206559
      4.92389      6.58849     16.83857        -0.300278     -1.223379     -1.081702
      6.68087      3.80598     10.74890        -0.824860      0.333581     -0.068475
      7.08353      7.48828     12.84743        -0.620461     -0.151209      0.850766
     10.82510      9.36864     17.82675        -0.157276     -0.058490      0.207747
     12.35760     12.12950     16.60035        -0.372864     -0.595377      0.684001
     14.43320     14.05800     18.38294        -0.866044     -0.055041      0.470362
      9.14276     10.69630     16.85987        -0.040402      1.114805      0.329238
 -----------------------------------------------------------------------------------
    total drift:                                0.006153     -0.010441      0.010484


--------------------------------------------------------------------------------------------------------



  FREE ENERGIE OF THE ION-ELECTRON SYSTEM (eV)
  ---------------------------------------------------
  free  energy   TOTEN  =      -908.28451565 eV

  energy  without entropy=     -908.01340854  energy(sigma->0) =     -908.14896209



--------------------------------------------------------------------------------------------------------


    POTLOK:  cpu time      4.0198: real time      4.0227


--------------------------------------------------------------------------------------------------------


     LOOP+:  cpu time   6872.4932: real time   6876.9908
    4ORBIT:  cpu time      0.0000: real time      0.0000



 total charge

# of ion       s       p       d       tot
------------------------------------------
    1        0.584   0.020   0.000   0.604
    2        0.533   0.014   0.000   0.547
    3        0.549   0.016   0.000   0.565
    4        0.549   0.015   0.000   0.564
    5        0.590   0.021   0.000   0.611
    6        0.760   0.966   0.000   1.726
    7        0.802   0.838   0.000   1.641
    8        0.873   0.725   0.000   1.598
    9        0.758   0.897   0.000   1.655
   10        0.763   0.961   0.000   1.724
   11        0.782   0.921   0.000   1.703
   12        0.795   0.789   0.000   1.584
   13        0.793   0.798   0.000   1.591
   14        0.868   0.711   0.000   1.579
   15        0.873   0.692   0.000   1.566
   16        0.757   0.887   0.000   1.644
   17        0.852   0.752   0.000   1.604
   18        0.772   0.919   0.000   1.691
   19        0.755   0.936   0.000   1.691
   20        0.795   0.865   0.000   1.660
   21        0.766   0.892   0.000   1.658
   22        0.762   0.908   0.000   1.670
   23        0.760   0.935   0.000   1.695
   24        0.766   0.968   0.000   1.733
   25        0.761   0.892   0.000   1.653
   26        0.792   0.890   0.000   1.683
   27        0.758   0.958   0.000   1.715
   28        0.803   0.866   0.000   1.669
   29        0.758   1.037   0.000   1.795
   30        0.756   0.938   0.000   1.694
   31        0.751   0.939   0.000   1.690
   32        0.796   0.826   0.000   1.622
   33        0.846   0.773   0.000   1.619
   34        0.755   0.940   0.000   1.695
   35        0.776   0.942   0.000   1.718
   36        0.757   0.901   0.000   1.658
   37        0.794   0.875   0.000   1.668
   38        0.762   0.915   0.000   1.677
   39        0.806   0.789   0.000   1.595
   40        0.762   0.922   0.000   1.685
   41        0.767   0.911   0.000   1.678
   42        0.805   0.870   0.000   1.675
   43        0.802   0.899   0.000   1.702
   44        0.795   0.862   0.000   1.657
   45        0.867   0.721   0.000   1.588
   46        0.759   0.950   0.000   1.708
   47        0.754   0.906   0.000   1.659
   48        0.763   0.968   0.000   1.731
   49        0.804   0.821   0.000   1.624
   50        0.765   0.892   0.000   1.657
   51        0.859   0.761   0.000   1.620
   52        0.763   0.893   0.000   1.656
   53        0.758   0.908   0.000   1.666
   54        0.757   0.914   0.000   1.671
   55        0.812   0.806   0.000   1.618
   56        0.762   0.876   0.000   1.638
   57        0.805   0.825   0.000   1.630
   58        0.764   0.939   0.000   1.703
   59        0.769   1.008   0.000   1.776
   60        0.757   0.918   0.000   1.675
   61        0.772   0.924   0.000   1.695
   62        0.760   0.910   0.000   1.670
   63        0.765   0.885   0.000   1.650
   64        0.760   0.906   0.000   1.666
   65        0.809   0.834   0.000   1.643
   66        0.767   0.957   0.000   1.724
   67        0.814   0.811   0.000   1.626
   68        0.764   0.908   0.000   1.672
   69        0.762   0.983   0.000   1.744
   70        0.762   0.955   0.000   1.718
   71        0.763   0.871   0.000   1.634
   72        0.761   0.911   0.000   1.672
   73        0.767   0.939   0.000   1.706
   74        0.763   0.953   0.000   1.716
   75        0.807   0.862   0.000   1.669
   76        0.802   0.794   0.000   1.596
   77        0.800   0.832   0.000   1.632
   78        0.761   0.943   0.000   1.704
   79        0.777   0.905   0.000   1.682
   80        0.772   0.874   0.000   1.646
   81        0.764   0.952   0.000   1.716
   82        0.797   0.836   0.000   1.633
   83        0.865   0.728   0.000   1.593
   84        0.766   0.956   0.000   1.722
   85        0.807   0.822   0.000   1.629
   86        0.773   0.863   0.000   1.636
   87        0.794   0.809   0.000   1.603
   88        0.762   0.933   0.000   1.695
   89        0.796   0.843   0.000   1.639
   90        0.874   0.697   0.000   1.571
   91        0.768   0.935   0.000   1.703
   92        0.758   0.886   0.000   1.644
   93        0.761   0.897   0.000   1.658
   94        0.808   0.786   0.000   1.594
   95        0.759   0.978   0.000   1.737
   96        0.794   0.838   0.000   1.632
   97        0.758   0.891   0.000   1.649
   98        0.797   0.887   0.000   1.684
   99        0.760   0.966   0.000   1.725
  100        0.808   0.835   0.000   1.643
  101        0.765   0.896   0.000   1.661
--------------------------------------------------
tot         78.013  84.689   0.000 162.702


 total amount of memory used by VASP MPI-rank0   379792. kBytes
=======================================================================

   base                                    :      30000. kBytes
   nonl-proj                               :      76182. kBytes
   fftplans                                :     114267. kBytes
   grid                                    :      88184. kBytes
   one-center                              :         21. kBytes
   wavefun                                 :      71138. kBytes

  
  
 General timing and accounting informations for this job:
 ========================================================
  
                  Total CPU time used (sec):     7028.859
                            User time (sec):     6250.734
                          System time (sec):      778.126
                         Elapsed time (sec):     7033.715
  
                   Maximum memory used (kb):      656412.
                   Average memory used (kb):          N/A
  
                          Minor page faults:     10787166
                          Major page faults:         1185
                 Voluntary context switches:         3353
