 vasp.6.5.0 16Dec24 (build Jan 20 2025 08:32:48) complex                         
 executed on        HPECrayEX_GCC date 2025.07.28  17:02:22
 running  128 mpi-ranks, with    1 threads/rank, on    1 nodes
 distrk:  each k-point on  128 cores,    1 groups
 distr:  one band on NCORE=  16 cores,    8 groups


--------------------------------------------------------------------------------------------------------


 INCAR:
   SYSTEM = a-Si SPC
   NCORE = 16
   ISTART = 1
   ICHARG = 1
   ISPIN = 1
   ISYM = 1
   EDIFF = 1E-6
   NELM = 150
   EDIFFG = -0.01
   NSW = 0
   ISIF = 2
   IBRION = -1
   PREC = Accurate
   ENCUT = 1200
   KSPACING = 0.23
   KGAMMA = .TRUE.
   METAGGA = SCAN
   LASPH = .TRUE.
   LDIAG = .FALSE.
   LMIXTAU = .TRUE.
   ADDGRID = .TRUE.
   ALGO = Normal
   ISMEAR = 0
   SIGMA = 0.1
   LORBIT = 11
   NEDOS = 2000
   LWAVE = .FALSE.
   LCHARG = .FALSE.

 POTCAR:    PAW_PBE H 15Jun2001                   
 POTCAR:    PAW_PBE Si 05Jan2001                  
 POTCAR:    PAW_PBE H 15Jun2001                   
   SHA256 =  030f79b5d3ab3cf0e668861823c8fb652ff669f3e15e46930bd03bfd63a607b6 H/POTCAR              
   COPYR  = (c) Copyright 15Jun2001 Georg Kresse                                                    
   COPYR  = This file is part of the software VASP. Any use, copying, and all other rights are regul
   COPYR  = If you do not have a valid VASP license, you may not use, copy or distribute this file. 
   VRHFIN =H: ultrasoft test                                                                        
   LEXCH  = PE                                                                                      
   EATOM  =    12.4884 eV,    0.9179 Ry                                                             
                                                                                                    
   TITEL  = PAW_PBE H 15Jun2001                                                                     
   LULTRA =        F    use ultrasoft PP ?                                                          
   IUNSCR =        0    unscreen: 0-lin 1-nonlin 2-no                                               
   RPACOR =    0.000    partial core radius                                                         
   POMASS =    1.000; ZVAL   =    1.000    mass and valenz                                          
   RCORE  =    1.100    outmost cutoff radius                                                       
   RWIGS  =    0.700; RWIGS  =    0.370    wigner-seitz radius (au A)                               
   ENMAX  =  250.000; ENMIN  =  200.000 eV                                                          
   RCLOC  =    0.701    cutoff for local pot                                                        
   LCOR   =        T    correct aug charges                                                         
   LPAW   =        T    paw PP                                                                      
   EAUG   =  400.000                                                                                
   RMAX   =    1.123    core radius for proj-oper                                                   
   RAUG   =    1.200    factor for augmentation sphere                                              
   RDEP   =    1.112    radius for radial grids                                                     
   RDEPT  =    0.926    core radius for aug-charge                                                  
                                                                                                    
   Atomic configuration                                                                             
    2 entries                                                                                       
     n  l   j            E        occ.                                                              
     1  0  0.50        -6.4927   1.0000                                                             
     2  1  0.50        -3.4015   0.0000                                                             
   Description                                                                                      
     l       E           TYP  RCUT    TYP  RCUT                                                     
     0     -6.4927494     23  1.100                                                                 
     0      6.8029130     23  1.100                                                                 
     1     -4.0817478     23  1.100                                                                 
  local pseudopotential read in
  atomic valenz-charges read in
  non local Contribution for L=           0  read in
    real space projection operators read in
  non local Contribution for L=           0  read in
    real space projection operators read in
  non local Contribution for L=           1  read in
    real space projection operators read in
    PAW grid and wavefunctions read in

   number of l-projection  operators is LMAX  =           3
   number of lm-projection operators is LMMAX =           5

 POTCAR:    PAW_PBE Si 05Jan2001                  
   SHA256 =  79d9987ad8750f624c4d6acb2a16d13abf6a777132adc04dc6c8399be72b42bb Si/POTCAR             
   COPYR  = (c) Copyright 05Jan2001 Georg Kresse                                                    
   COPYR  = This file is part of the software VASP. Any use, copying, and all other rights are regul
   COPYR  = If you do not have a valid VASP license, you may not use, copy or distribute this file. 
   VRHFIN =Si: s2p2                                                                                 
   LEXCH  = PE                                                                                      
   EATOM  =   103.0669 eV,    7.5752 Ry                                                             
                                                                                                    
   TITEL  = PAW_PBE Si 05Jan2001                                                                    
   LULTRA =        F    use ultrasoft PP ?                                                          
   IUNSCR =        1    unscreen: 0-lin 1-nonlin 2-no                                               
   RPACOR =    1.500    partial core radius                                                         
   POMASS =   28.085; ZVAL   =    4.000    mass and valenz                                          
   RCORE  =    1.900    outmost cutoff radius                                                       
   RWIGS  =    2.480; RWIGS  =    1.312    wigner-seitz radius (au A)                               
   ENMAX  =  245.345; ENMIN  =  184.009 eV                                                          
   ICORE  =        2    local potential                                                             
   LCOR   =        T    correct aug charges                                                         
   LPAW   =        T    paw PP                                                                      
   EAUG   =  322.069                                                                                
   DEXC   =    0.000                                                                                
   RMAX   =    1.950    core radius for proj-oper                                                   
   RAUG   =    1.300    factor for augmentation sphere                                              
   RDEP   =    1.993    radius for radial grids                                                     
   RDEPT  =    1.837    core radius for aug-charge                                                  
                                                                                                    
   Atomic configuration                                                                             
    6 entries                                                                                       
     n  l   j            E        occ.                                                              
     1  0  0.50     -1785.8828   2.0000                                                             
     2  0  0.50      -139.4969   2.0000                                                             
     2  1  1.50       -95.5546   6.0000                                                             
     3  0  0.50       -10.8127   2.0000                                                             
     3  1  0.50        -4.0811   2.0000                                                             
     3  2  1.50        -4.0817   0.0000                                                             
   Description                                                                                      
     l       E           TYP  RCUT    TYP  RCUT                                                     
     0    -10.8127223     23  1.900                                                                 
     0     -7.6451159     23  1.900                                                                 
     1     -4.0811372     23  1.900                                                                 
     1      2.4879257     23  1.900                                                                 
     2     -4.0817478      7  1.900                                                                 
  local pseudopotential read in
  partial core-charges read in
  partial kinetic energy density read in
  atomic valenz-charges read in
  non local Contribution for L=           0  read in
    real space projection operators read in
  non local Contribution for L=           0  read in
    real space projection operators read in
  non local Contribution for L=           1  read in
    real space projection operators read in
  non local Contribution for L=           1  read in
    real space projection operators read in
    PAW grid and wavefunctions read in

   number of l-projection  operators is LMAX  =           4
   number of lm-projection operators is LMMAX =           8

 -----------------------------------------------------------------------------
|                                                                             |
|               ----> ADVICE to this user running VASP <----                  |
|                                                                             |
|     You have a (more or less) 'large supercell' and for larger cells it     |
|     might be more efficient to use real-space projection operators.         |
|     Therefore, try LREAL= Auto in the INCAR file.                           |
|     Mind: For very accurate calculation, you might also keep the            |
|     reciprocal projection scheme (i.e. LREAL=.FALSE.).                      |
|                                                                             |
 -----------------------------------------------------------------------------

 -----------------------------------------------------------------------------
|                                                                             |
|               ----> ADVICE to this user running VASP <----                  |
|                                                                             |
|     You enforced a specific xc type in the INCAR file but a different       |
|     type was found in the POTCAR file.                                      |
|     I HOPE YOU KNOW WHAT YOU ARE DOING!                                     |
|                                                                             |
 -----------------------------------------------------------------------------

  PAW_PBE H 15Jun2001                   :
 energy of atom  1       EATOM=  -12.4884
 kinetic energy error for atom=    0.0000 (will be added to EATOM!!)
  PAW_PBE Si 05Jan2001                  :
 energy of atom  2       EATOM= -103.0669
 kinetic energy error for atom=    0.0001 (will be added to EATOM!!)


 POSCAR:  H Si
  positions in cartesian coordinates
  No initial velocities read in


 exchange-correlation table for SCAN
   RHO(1)=    0.500       N(1)  =     2000
   RHO(2)=  100.500       N(2)  =     4000



--------------------------------------------------------------------------------------------------------


 ion  position               nearest neighbor table
   1  0.642  0.849  0.366-  14 1.48
   2  0.438  0.174  0.308-  70 1.47
   3  0.436  0.765  0.365-  86 1.49
   4  0.571  0.636  0.343-  46 1.48
   5  0.457  0.030  0.355-  70 1.48
   6  0.607  0.926  0.443-  14 1.70  20 1.70
   7  0.652  0.179  0.409-  43 1.50
   8  0.430  0.942  0.640-  25 1.49
   9  0.648  0.371  0.374-  68 1.51
  10  0.853  0.035  0.518-  22 2.35  48 2.36  47 2.36  90 2.40
  11  0.144  0.662  0.422-  50 2.27  23 2.31  88 2.32
  12  0.099  0.367  0.557-  19 2.32  44 2.33  60 2.36  89 2.37
  13  0.748  0.455  0.610-  31 2.29  61 2.31  81 2.31
  14  0.692  0.876  0.411-   1 1.48   6 1.70  38 2.28  76 2.35  20 3.08
  15  0.755  0.481  0.462-  17 2.33  56 2.34  63 2.35  55 2.36
  16  0.540  0.129  0.551-  33 2.34  77 2.36  26 2.38  45 2.38
  17  0.873  0.505  0.517-  61 2.32  15 2.33  41 2.35  44 2.36
  18  0.238  0.018  0.435-  71 2.31  54 2.33  34 2.38  59 2.38
  19  0.182  0.274  0.504-  12 2.32  52 2.38  40 2.44  58 2.44
  20  0.547  0.887  0.492-   6 1.70  67 2.33  53 2.34  45 2.35  14 3.08
  21  0.992  0.640  0.619-  28 2.28  87 2.31  61 2.34
  22  0.737  0.034  0.576-  10 2.35  45 2.36
  23  0.296  0.619  0.416-  11 2.31  39 2.34  86 2.37  30 2.50
  24  0.411  0.209  0.423-  70 2.31  82 2.35  33 2.35  71 2.44
  25  0.512  0.892  0.622-   8 1.49  62 2.36  45 2.38
  26  0.642  0.241  0.520-  16 2.38  43 2.43  29 2.44  81 2.47
  27  0.989  0.899  0.606-  84 2.28  28 2.30  47 2.33
  28  0.913  0.771  0.635-  21 2.28  27 2.30  91 2.34
  29  0.534  0.360  0.495-  56 2.29  64 2.34  82 2.36  26 2.44
  30  0.309  0.450  0.429-  51 2.37  58 2.42  82 2.43  23 2.50
  31  0.624  0.532  0.580-  13 2.29  56 2.31  69 2.32  73 2.33
  32  1.000  0.169  0.419-  54 2.38  35 2.42  90 2.48  57 2.53
  33  0.409  0.152  0.503-  59 2.33  52 2.33  16 2.34  24 2.35
  34  0.286  0.862  0.430-  67 2.34  86 2.35  18 2.38  88 2.39
  35  0.948  0.318  0.446-  65 2.34  63 2.36  44 2.36  32 2.42
  36  0.853  0.755  0.515-  76 2.35  47 2.35  91 2.36  41 2.39
  37  0.902  0.675  0.399-  41 2.40  55 2.42  75 2.43  76 3.06
  38  0.824  0.957  0.397-  14 2.28  75 2.29  90 2.35
  39  0.377  0.633  0.489-  51 2.31  23 2.34  83 2.36  49 2.36
  40  0.102  0.131  0.522-  48 2.31  54 2.34  79 2.35  19 2.44
  41  0.941  0.634  0.480-  50 2.33  17 2.35  36 2.39  37 2.40
  42  0.034  0.891  0.463-  47 2.32  75 2.34  54 2.36  88 2.38
  43  0.724  0.206  0.445-   7 1.50  63 2.33  26 2.43  90 2.43
  44  0.949  0.363  0.528-  12 2.33  17 2.36  35 2.36  78 2.37
  45  0.589  0.975  0.560-  20 2.35  22 2.36  25 2.38  16 2.38
  46  0.596  0.580  0.385-   4 1.48  68 2.36  83 2.38  55 2.41
  47  0.931  0.894  0.527-  42 2.32  27 2.33  36 2.35  10 2.36
  48  0.956  0.138  0.555-  78 2.28  40 2.31  10 2.36  89 2.84
  49  0.365  0.756  0.544-  67 2.34  39 2.36  85 2.39  62 2.41
  50  0.081  0.558  0.474-  11 2.27  65 2.33  41 2.33  60 2.41
  51  0.315  0.494  0.512-  64 2.31  39 2.31  60 2.37  30 2.37
  52  0.326  0.265  0.545-  66 2.29  33 2.33  64 2.34  19 2.38
  53  0.603  0.737  0.500-  76 2.31  73 2.32  83 2.33  20 2.34
  54  0.083  0.043  0.452-  18 2.33  40 2.34  42 2.36  32 2.38
  55  0.751  0.612  0.411-  76 2.34  15 2.36  46 2.41  37 2.42
  56  0.611  0.497  0.499-  29 2.29  31 2.31  15 2.34  83 2.34
  57  0.139  0.227  0.373-  71 2.33  58 2.36  32 2.53
  58  0.177  0.350  0.425-  65 2.29  57 2.36  30 2.42  19 2.44
  59  0.312  0.026  0.512-  33 2.33  67 2.36  79 2.38  18 2.38
  60  0.166  0.513  0.545-  87 2.32  12 2.36  51 2.37  50 2.41
  61  0.858  0.565  0.594-  13 2.31  17 2.32  91 2.34  21 2.34
  62  0.479  0.736  0.607-  25 2.36  73 2.38  49 2.41  80 2.44
  63  0.794  0.343  0.422-  43 2.33  15 2.35  35 2.36
  64  0.417  0.396  0.550-  51 2.31  29 2.34  52 2.34  69 2.35
  65  0.047  0.437  0.422-  58 2.29  50 2.33  35 2.34
  66  0.326  0.218  0.624-  72 2.29  52 2.29  77 2.32
  67  0.387  0.886  0.495-  20 2.33  49 2.34  34 2.34  59 2.36
  68  0.561  0.425  0.368-   9 1.51  82 2.34  46 2.36
  69  0.496  0.464  0.615-  31 2.32  64 2.35  80 2.41  74 2.42
  70  0.417  0.123  0.353-   2 1.47   5 1.48  24 2.31  71 2.32
  71  0.273  0.144  0.387-  18 2.31  70 2.32  57 2.33  24 2.44
  72  0.188  0.147  0.635-  66 2.29  79 2.36  89 2.45
  73  0.628  0.692  0.580-  53 2.32  31 2.33  62 2.38  91 2.39
  74  0.578  0.325  0.635-  77 2.30  69 2.42  81 2.48
  75  0.927  0.840  0.405-  38 2.29  42 2.34  37 2.43
  76  0.737  0.747  0.456-  53 2.31  55 2.34  36 2.35  14 2.35  37 3.06
  77  0.484  0.200  0.622-  74 2.30  66 2.32  16 2.36
  78  0.895  0.266  0.591-  48 2.28  44 2.37  81 2.54  89 2.55
  79  0.195  0.039  0.572-  84 2.30  40 2.35  72 2.36  59 2.38
  80  0.403  0.596  0.634-  69 2.41  62 2.44
  81  0.725  0.302  0.591-  13 2.31  26 2.47  74 2.48  78 2.54
  82  0.451  0.365  0.422-  68 2.34  24 2.35  29 2.36  30 2.43
  83  0.529  0.616  0.462-  53 2.33  56 2.34  39 2.36  46 2.38
  84  0.143  0.896  0.594-  27 2.28  79 2.30  85 2.33
  85  0.203  0.765  0.557-  84 2.33  87 2.37  49 2.39  88 2.44
  86  0.336  0.754  0.373-   3 1.49  34 2.35  23 2.37
  87  0.145  0.635  0.598-  21 2.31  60 2.32  85 2.37
  88  0.161  0.790  0.472-  11 2.32  42 2.38  34 2.39  85 2.44
  89  0.063  0.254  0.616-  12 2.37  72 2.45  78 2.55  48 2.84
  90  0.849  0.097  0.437-  38 2.35  10 2.40  43 2.43  32 2.48
  91  0.790  0.710  0.591-  61 2.34  28 2.34  36 2.36  73 2.39

  LATTYP: Found a simple tetragonal cell.
 ALAT       =    14.5802938634
 C/A-ratio  =     1.8861634243
  
  Lattice vectors:
  
 A1 = (  14.5802938634,   0.0000000000,   0.0000000000)
 A2 = (   0.0000000000,  14.5802938634,   0.0000000000)
 A3 = (   0.0000000000,   0.0000000000,  27.5008170000)


Analysis of symmetry for initial positions (statically):
=====================================================================
 Subroutine PRICEL returns:
 Original cell was already a primitive cell.
 

 Routine SETGRP: Setting up the symmetry group for a 
 simple tetragonal supercell.


 Subroutine GETGRP returns: Found  1 space group operations
 (whereof  1 operations were pure point group operations)
 out of a pool of 16 trial point group operations.


The static configuration has the point symmetry C_1 .


Analysis of symmetry for dynamics (positions and initial velocities):
=====================================================================
 Subroutine PRICEL returns:
 Original cell was already a primitive cell.
 

 Routine SETGRP: Setting up the symmetry group for a 
 simple tetragonal supercell.


 Subroutine GETGRP returns: Found  1 space group operations
 (whereof  1 operations were pure point group operations)
 out of a pool of 16 trial point group operations.


The dynamic configuration has the point symmetry C_1 .


 Subroutine INISYM returns: Found  1 space group operations
 (whereof  1 operations are pure point group operations),
 and found     1 'primitive' translations


----------------------------------------------------------------------------------------

                                     Primitive cell                                     

  volume of cell :    5846.2603

  direct lattice vectors                    reciprocal lattice vectors
    14.580293863  0.000000000  0.000000000     0.068585723  0.000000000  0.000000000
     0.000000000 14.580293863  0.000000000     0.000000000  0.068585723  0.000000000
     0.000000000  0.000000000 27.500817000     0.000000000  0.000000000  0.036362556

  length of vectors
    14.580293863 14.580293863 27.500817000     0.068585723  0.068585723  0.036362556

  position of ions in fractional coordinates (direct lattice)
     0.642306252  0.849313574  0.365742448
     0.437976722  0.173879801  0.308284009
     0.436362783  0.764764879  0.364608059
     0.571362648  0.636199195  0.342903790
     0.456888854  0.029622094  0.354900000
     0.606884938  0.926094441  0.442995439
     0.651686996  0.178842544  0.408959640
     0.429912054  0.941731484  0.639743529
     0.648159685  0.371405535  0.373712933
     0.853402793  0.035305124  0.517623734
     0.143757058  0.662092031  0.422294245
     0.098797579  0.366980772  0.556939435
     0.747979240  0.455087784  0.610387202
     0.692061478  0.875564998  0.410700633
     0.754879332  0.480834071  0.461628352
     0.539670545  0.129401914  0.551039045
     0.873269767  0.504850131  0.516968752
     0.237932309  0.018156675  0.434524126
     0.181912932  0.273988269  0.504291832
     0.547026287  0.886640476  0.491700798
     0.992099743  0.639892767  0.619026708
     0.736586947  0.033666685  0.576379541
     0.295669848  0.619445963  0.415825634
     0.410772667  0.209338919  0.423290035
     0.512469191  0.891878687  0.622083818
     0.642424982  0.241158704  0.519522961
     0.988904153  0.898787145  0.605907304
     0.912737354  0.771242128  0.634541567
     0.533853641  0.359964924  0.495371877
     0.308544789  0.450041858  0.429190623
     0.623610422  0.532288579  0.580234230
     0.999674985  0.169226787  0.418865301
     0.409022321  0.152076656  0.503253681
     0.286337177  0.862256936  0.430397038
     0.947536393  0.318425869  0.445893834
     0.853227470  0.755232839  0.515299618
     0.901979220  0.675481641  0.398587289
     0.823545735  0.956762706  0.397160093
     0.376932251  0.633064376  0.489028974
     0.102013047  0.130967293  0.522019956
     0.940627227  0.633530708  0.480277265
     0.033792777  0.890665103  0.462510243
     0.724076575  0.206408755  0.444821532
     0.948711436  0.363404893  0.528436929
     0.589308018  0.974523710  0.559545795
     0.596258864  0.579607468  0.385474522
     0.931079128  0.894371313  0.527125233
     0.956267047  0.138279046  0.555168103
     0.365306350  0.756478824  0.544321341
     0.081304728  0.558184532  0.474152753
     0.315164847  0.493850604  0.512287411
     0.325921232  0.264672461  0.544514488
     0.602951094  0.737426239  0.500440818
     0.083119443  0.043257954  0.451514430
     0.750715013  0.611630653  0.411057780
     0.611381601  0.496534222  0.498657691
     0.138741006  0.226701433  0.373194036
     0.176763099  0.349572940  0.425248948
     0.312373554  0.026138359  0.511560889
     0.165842790  0.512683177  0.545276661
     0.857667915  0.564948071  0.594453029
     0.479077901  0.735796922  0.606962088
     0.794043905  0.343313882  0.422166584
     0.417146182  0.396330687  0.550245289
     0.046551024  0.436740397  0.422495370
     0.325988087  0.218091536  0.624083317
     0.387415668  0.886108943  0.495493948
     0.560544884  0.425327657  0.368430416
     0.496140430  0.464379500  0.615483050
     0.417272872  0.122671772  0.353086474
     0.272894675  0.143706508  0.387038333
     0.187509892  0.147051985  0.635478971
     0.627992882  0.692324579  0.580336059
     0.577891182  0.324711514  0.634601277
     0.927220212  0.839575768  0.404778057
     0.737219877  0.746747892  0.456325579
     0.484304680  0.200009149  0.622258348
     0.895050869  0.265531215  0.590997051
     0.195259098  0.038840238  0.571621874
     0.402668355  0.596083840  0.633963039
     0.724954568  0.302480547  0.590718887
     0.450945656  0.365245348  0.421580780
     0.529167178  0.615981170  0.461844198
     0.143462769  0.895631863  0.594043811
     0.203088595  0.765107713  0.556510972
     0.335552857  0.754276473  0.372575393
     0.145339646  0.635172057  0.598220675
     0.161273009  0.790269853  0.471625834
     0.063217991  0.253684352  0.615755341
     0.849283522  0.096970225  0.436855883
     0.789727994  0.710014781  0.590500148

  ion indices of the primitive-cell ions
   primitive index   ion index
                 1           1
                 2           2
                 3           3
                 4           4
                 5           5
                 6           6
                 7           7
                 8           8
                 9           9
                10          10
                11          11
                12          12
                13          13
                14          14
                15          15
                16          16
                17          17
                18          18
                19          19
                20          20
                21          21
                22          22
                23          23
                24          24
                25          25
                26          26
                27          27
                28          28
                29          29
                30          30
                31          31
                32          32
                33          33
                34          34
                35          35
                36          36
                37          37
                38          38
                39          39
                40          40
                41          41
                42          42
                43          43
                44          44
                45          45
                46          46
                47          47
                48          48
                49          49
                50          50
                51          51
                52          52
                53          53
                54          54
                55          55
                56          56
                57          57
                58          58
                59          59
                60          60
                61          61
                62          62
                63          63
                64          64
                65          65
                66          66
                67          67
                68          68
                69          69
                70          70
                71          71
                72          72
                73          73
                74          74
                75          75
                76          76
                77          77
                78          78
                79          79
                80          80
                81          81
                82          82
                83          83
                84          84
                85          85
                86          86
                87          87
                88          88
                89          89
                90          90
                91          91

----------------------------------------------------------------------------------------


 -----------------------------------------------------------------------------
|                                                                             |
|           W    W    AA    RRRRR   N    N  II  N    N   GGGG   !!!           |
|           W    W   A  A   R    R  NN   N  II  NN   N  G    G  !!!           |
|           W    W  A    A  R    R  N N  N  II  N N  N  G       !!!           |
|           W WW W  AAAAAA  RRRRR   N  N N  II  N  N N  G  GGG   !            |
|           WW  WW  A    A  R   R   N   NN  II  N   NN  G    G                |
|           W    W  A    A  R    R  N    N  II  N    N   GGGG   !!!           |
|                                                                             |
|     The requested file  could not be found or opened for reading            |
|     k-point information. Automatic k-point generation is used as a          |
|     fallback, which may lead to unwanted results.                           |
|                                                                             |
 -----------------------------------------------------------------------------



Automatic generation of k-mesh.
 Grid dimensions derived from KSPACING:
 generate k-points for:    2    2    1

 Generating k-lattice:

  Cartesian coordinates                     Fractional coordinates (reciprocal lattice)
     0.034292862  0.000000000  0.000000000     0.500000000  0.000000000  0.000000000
     0.000000000  0.034292862  0.000000000     0.000000000  0.500000000  0.000000000
     0.000000000  0.000000000  0.036362556     0.000000000  0.000000000  1.000000000

  Length of vectors
     0.034292862  0.034292862  0.036362556

  Shift w.r.t. Gamma in fractional coordinates (k-lattice)
     0.000000000  0.000000000  0.000000000

 
 Subroutine IBZKPT returns following result:
 ===========================================
 
 Found      4 irreducible k-points:
 
 Following reciprocal coordinates:
            Coordinates               Weight
  0.000000  0.000000  0.000000      1.000000
  0.500000  0.000000  0.000000      1.000000
  0.000000  0.500000  0.000000      1.000000
  0.500000  0.500000  0.000000      1.000000
 
 Following cartesian coordinates:
            Coordinates               Weight
  0.000000  0.000000  0.000000      1.000000
  0.034293  0.000000  0.000000      1.000000
  0.000000  0.034293  0.000000      1.000000
  0.034293  0.034293  0.000000      1.000000
 


--------------------------------------------------------------------------------------------------------




 Dimension of arrays:
   k-points           NKPTS =      4   k-points in BZ     NKDIM =      4   number of bands    NBANDS=    216
   number of dos      NEDOS =   2000   number of ions     NIONS =     91
   non local maximal  LDIM  =      4   non local SUM 2l+1 LMDIM =      8
   total plane-waves  NPLWV = ******
   max r-space proj   IRMAX =      1   max aug-charges    IRDMAX= 413371
   dimension x,y,z NGX =   168 NGY =  168 NGZ =  320
   dimension x,y,z NGXF=   336 NGYF=  336 NGZF=  640
   support grid    NGXF=   672 NGYF=  672 NGZF= 1280
   ions per type =               9  82
   NGX,Y,Z   is equivalent  to a cutoff of  19.16, 19.16, 19.34 a.u.
   NGXF,Y,Z  is equivalent  to a cutoff of  38.31, 38.31, 38.69 a.u.

 SYSTEM =  a-Si SPC                                
 POSCAR =   H Si                                   

 Startparameter for this run:
   NWRITE =      2    write-flag & timer
   PREC   = accura    normal or accurate (medium, high low for compatibility)
   ISTART =      1    job   : 0-new  1-cont  2-samecut
   ICHARG =      1    charge: 1-file 2-atom 10-const
   ISPIN  =      1    spin polarized calculation?
   LNONCOLLINEAR =      F non collinear calculations
   LSORBIT =      F    spin-orbit coupling
   INIWAV =      1    electr: 0-lowe 1-rand  2-diag
   LASPH  =      T    aspherical Exc in radial PAW
 Electronic Relaxation 1
   ENCUT  = 1200.0 eV  88.20 Ry    9.39 a.u.  41.18 41.18 77.68*2*pi/ulx,y,z
   ENINI  = 1200.0     initial cutoff
   ENAUG  =  400.0 eV  augmentation charge cutoff
   NELM   =    150;   NELMIN=  2; NELMDL=  0     # of ELM steps 
   EDIFF  = 0.1E-05   stopping-criterion for ELM
   LREAL  =      F    real-space projection
   NLSPLINE    = F    spline interpolate recip. space projectors
   LCOMPAT=      F    compatible to vasp.4.4
   GGA_COMPAT  = T    GGA compatible to vasp.4.4-vasp.4.6
   LMAXPAW     = -100 max onsite density
   LMAXMIX     =    2 max onsite mixed and CHGCAR
   VOSKOWN=      0    Vosko Wilk Nusair interpolation
   ROPT   =    0.00000   0.00000
 Ionic relaxation
   EDIFFG = -.1E-01   stopping-criterion for IOM
   NSW    =      0    number of steps for IOM
   NBLOCK =      1;   KBLOCK =      1    inner block; outer block 
   IBRION =     -1    ionic relax: 0-MD 1-quasi-New 2-CG
   NFREE  =      0    steps in history (QN), initial steepest desc. (CG)
   ISIF   =      2    stress and relaxation
   IWAVPR =     10    prediction:  0-non 1-charg 2-wave 3-comb
   ISYM   =      1    0-nonsym 1-usesym 2-fastsym
   LCORR  =      T    Harris-Foulkes like correction to forces

   POTIM  = 0.5000    time-step for ionic-motion
   TEIN   =    0.0    initial temperature
   TEBEG  =    0.0;   TEEND  =   0.0 temperature during run
   SMASS  =  -3.00    Nose mass-parameter (am)
   estimated Nose-frequenzy (Omega)   =  0.10E-29 period in steps = 0.13E+47 mass=  -0.486E-26a.u.
   SCALEE = 1.0000    scale energy and forces
   NPACO  =    256;   APACO  = 10.0  distance and # of slots for P.C.
   PSTRESS=    0.0 pullay stress

  Mass of Ions in am
   POMASS =   1.00 28.09
  Ionic Valenz
   ZVAL   =   1.00  4.00
  Atomic Wigner-Seitz radii
   RWIGS  =  -1.00 -1.00
  virtual crystal weights 
   VCA    =   1.00  1.00
   NELECT =     337.0000    total number of electrons
   NUPDOWN=      -1.0000    fix difference up-down

 DOS related values:
   EMIN   =  10.00;   EMAX   =-10.00  energy-range for DOS
   EFERMI =   0.00;   METHOD = LEGACY      
   ISMEAR =     0;   SIGMA  =   0.10  broadening in eV -4-tet -1-fermi 0-gaus
   EFERMI_NEDOS =   21; number of points for ismear=-14 and -15

 Electronic relaxation 2 (details)
   IALGO  =     38    algorithm
   LDIAG  =      F    sub-space diagonalisation (order eigenvalues)
   LSUBROT=      F    optimize rotation matrix (better conditioning)
   TURBO    =      0    0=normal 1=particle mesh
   IRESTART =      0    0=no restart 2=restart with 2 vectors
   NREBOOT  =      0    no. of reboots
   NMIN     =      0    reboot dimension
   EREF     =   0.00    reference energy to select bands
   IMIX   =      4    mixing-type and parameters
     AMIX     =   0.40;   BMIX     =  1.00
     AMIX_MAG =   1.60;   BMIX_MAG =  1.00
     AMIN     =   0.10
     WC   =   100.;   INIMIX=   1;  MIXPRE=   1;  MAXMIX= -45

 Intra band minimization:
   WEIMIN = 0.0000     energy-eigenvalue tresh-hold
   EBREAK =  0.12E-08  absolut break condition
   DEPER  =   0.30     relativ break condition  

   TIME   =   0.40     timestep for ELM

  volume/ion in A,a.u.               =      64.24       433.54
  Fermi-wavevector in a.u.,A,eV,Ry     =   0.632400  1.195063  5.441380  0.399930
  Thomas-Fermi vector in A             =   1.695704

 Write flags
   LWAVE        =      F    write WAVECAR
   LDOWNSAMPLE  =      F    k-point downsampling of WAVECAR
   LCHARG       =      F    write CHGCAR
   LVTOT        =      F    write LOCPOT, total local potential
   LVHAR        =      F    write LOCPOT, Hartree potential only
   WRT_POTENTIAL= false  ! write potential to hdf5 file
   LELF         =      F    write electronic localiz. function (ELF)
   LORBIT       =     11    0 simple, 1 ext, 2 COOP (PROOUT), +10 PAW based schemes


 Python interface
   PLUGINS active      =      F    recompile with -DPLUGINS to activate

 Dipole corrections
   LMONO      =      F    monopole corrections only (constant potential shift)
   LDIPOL     =      F    correct potential (dipole corrections)
   IDIPOL     =      0    1-x, 2-y, 3-z, 4-all directions 
   EPSILON    =  1.0000000 bulk dielectric constant
   LVACPOTAV  =      F  vacuum potentials using an averaging scheme for the charge density
   VACPOTFLAT =  0.1000000 required flatness to determine vacuum potential

Coulomb truncation method
  LTRUNCATE          =      F  Coulomb kernel truncation to be used
  IDIMENSIONALITY    =      3  Dimensionality of cutoff (0 molecules / 2 surfaces)
  ISURFACE           =     -1  Direction of surface normal
  LCOARSEN           =      F  Coarsen the charge grid before padding, preferred


 Exchange correlation treatment:
   METAGGA = SCAN    functional components
   XC_C    = 1    coefficients multiplying the functional components
   LIBXC   =     F    Libxc                    
   VOSKOWN =     0    Vosko Wilk Nusair interpolation
   LHFCALC =     F    Hartree Fock is set to
   LHFONE  =     F    Hartree Fock one center treatment
   AEXX    =    0.0000 exact exchange contribution

 Parameters of functionals:
   SCAN:
     P1 =  0.000000E+00
     P2 =  0.000000E+00
     P3 =  0.000000E+00

 Accuracy and mixing parameters for tau-dependent meta-GGA functionals:
   LMAXTAU = 6
   LMIXTAU = T

 Van der Waals corrections
   IVDW    =     0    specifies the selected vdW correction

 Linear response parameters
   LEPSILON=     F    determine dielectric tensor
   LRPA    =     F    only Hartree local field effects (RPA)
   LNABLA  =     F    use nabla operator in PAW spheres
   LVEL    =     F    velocity operator in full k-point grid
   CSHIFT  =0.1000    complex shift for real part using Kramers Kronig
   OMEGAMAX=  -1.0    maximum frequency
   DEG_THRESHOLD= 0.2000000E-02 threshold for treating states as degnerate
   RTIME   =   -0.100 relaxation time in fs
  (WPLASMAI=    0.000 imaginary part of plasma frequency in eV, 0.658/RTIME)
   DFIELD  = 0.0000000 0.0000000 0.0000000 field for delta impulse in time

  Optional k-point grid parameters
   LKPOINTS_OPT  =     F    use optional k-point grid
   KPOINTS_OPT_MODE=     1    mode for optional k-point grid

 Orbital magnetization related:
   ORBITALMAG=     F  switch on orbital magnetization
   LCHIMAG   =     F  perturbation theory with respect to B field
   DQ        =  0.001000  dq finite difference perturbation B field
   LLRAUG    =     F  two centre corrections for induced B field
   LBONE     =     F  B-component reconstruction in AE one-centre
   LVGVCALC  =     T  calculate vGv susceptibility
   LVGVAPPL  =     F  apply vGv susceptibility instead of pGv for G=0

 Random number generation:
   RANDOM_GENERATOR = DEFAULT
   PCG_SEED         = not used


--------------------------------------------------------------------------------------------------------


 Static calculation
 charge density and potential will be updated during run
 non-spin polarized calculation
 Variant of blocked Davidson
 perform Loewdin sub-space diagonalisation
    ordering is kept fixed
    before iterative eigenvector-optimisation
 modified Broyden-mixing scheme, WC =      100.0
 initial mixing is a Kerker type mixing with AMIX =  0.4000 and BMIX =      1.0000
 Hartree-type preconditioning will be used
 using additional bands           47
 reciprocal scheme for non local part
 use partial core corrections
 calculate Harris-corrections to forces   (improved forces if not selfconsistent)
 use gradient corrections 
 use of overlap-Matrix (Vanderbilt PP)
 Gauss-broadening in eV      SIGMA  =   0.10


--------------------------------------------------------------------------------------------------------


  energy-cutoff  :     1200.00
  volume of cell :     5846.26
      direct lattice vectors                 reciprocal lattice vectors
    14.580293863  0.000000000  0.000000000     0.068585723  0.000000000  0.000000000
     0.000000000 14.580293863  0.000000000     0.000000000  0.068585723  0.000000000
     0.000000000  0.000000000 27.500817000     0.000000000  0.000000000  0.036362556

  length of vectors
    14.580293863 14.580293863 27.500817000     0.068585723  0.068585723  0.036362556



 old parameters found on file WAVECAR:
  energy-cutoff  :     1200.00
  volume of cell :     5846.26
      direct lattice vectors                 reciprocal lattice vectors
    14.580293863  0.000000000  0.000000000     0.068585723  0.000000000  0.000000000
     0.000000000 14.580293863  0.000000000     0.000000000  0.068585723  0.000000000
     0.000000000  0.000000000 27.500817000     0.000000000  0.000000000  0.036362556

  length of vectors


 k-points in units of 2pi/SCALE and weight: read from INCAR                         
   0.00000000  0.00000000  0.00000000       0.250
   0.03429286  0.00000000  0.00000000       0.250
   0.00000000  0.03429286  0.00000000       0.250
   0.03429286  0.03429286  0.00000000       0.250

 k-points in reciprocal lattice and weights: read from INCAR                         
   0.00000000  0.00000000  0.00000000       0.250
   0.50000000  0.00000000  0.00000000       0.250
   0.00000000  0.50000000  0.00000000       0.250
   0.50000000  0.50000000  0.00000000       0.250

 position of ions in fractional coordinates (direct lattice) 
   0.64230625  0.84931357  0.36574245
   0.43797672  0.17387980  0.30828401
   0.43636278  0.76476488  0.36460806
   0.57136265  0.63619920  0.34290379
   0.45688885  0.02962209  0.35490000
   0.60688494  0.92609444  0.44299544
   0.65168700  0.17884254  0.40895964
   0.42991205  0.94173148  0.63974353
   0.64815969  0.37140554  0.37371293
   0.85340279  0.03530512  0.51762373
   0.14375706  0.66209203  0.42229424
   0.09879758  0.36698077  0.55693943
   0.74797924  0.45508778  0.61038720
   0.69206148  0.87556500  0.41070063
   0.75487933  0.48083407  0.46162835
   0.53967054  0.12940191  0.55103905
   0.87326977  0.50485013  0.51696875
   0.23793231  0.01815668  0.43452413
   0.18191293  0.27398827  0.50429183
   0.54702629  0.88664048  0.49170080
   0.99209974  0.63989277  0.61902671
   0.73658695  0.03366668  0.57637954
   0.29566985  0.61944596  0.41582563
   0.41077267  0.20933892  0.42329003
   0.51246919  0.89187869  0.62208382
   0.64242498  0.24115870  0.51952296
   0.98890415  0.89878714  0.60590730
   0.91273735  0.77124213  0.63454157
   0.53385364  0.35996492  0.49537188
   0.30854479  0.45004186  0.42919062
   0.62361042  0.53228858  0.58023423
   0.99967499  0.16922679  0.41886530
   0.40902232  0.15207666  0.50325368
   0.28633718  0.86225694  0.43039704
   0.94753639  0.31842587  0.44589383
   0.85322747  0.75523284  0.51529962
   0.90197922  0.67548164  0.39858729
   0.82354574  0.95676271  0.39716009
   0.37693225  0.63306438  0.48902897
   0.10201305  0.13096729  0.52201996
   0.94062723  0.63353071  0.48027727
   0.03379278  0.89066510  0.46251024
   0.72407658  0.20640876  0.44482153
   0.94871144  0.36340489  0.52843693
   0.58930802  0.97452371  0.55954580
   0.59625886  0.57960747  0.38547452
   0.93107913  0.89437131  0.52712523
   0.95626705  0.13827905  0.55516810
   0.36530635  0.75647882  0.54432134
   0.08130473  0.55818453  0.47415275
   0.31516485  0.49385060  0.51228741
   0.32592123  0.26467246  0.54451449
   0.60295109  0.73742624  0.50044082
   0.08311944  0.04325795  0.45151443
   0.75071501  0.61163065  0.41105778
   0.61138160  0.49653422  0.49865769
   0.13874101  0.22670143  0.37319404
   0.17676310  0.34957294  0.42524895
   0.31237355  0.02613836  0.51156089
   0.16584279  0.51268318  0.54527666
   0.85766792  0.56494807  0.59445303
   0.47907790  0.73579692  0.60696209
   0.79404391  0.34331388  0.42216658
   0.41714618  0.39633069  0.55024529
   0.04655102  0.43674040  0.42249537
   0.32598809  0.21809154  0.62408332
   0.38741567  0.88610894  0.49549395
   0.56054488  0.42532766  0.36843042
   0.49614043  0.46437950  0.61548305
   0.41727287  0.12267177  0.35308647
   0.27289467  0.14370651  0.38703833
   0.18750989  0.14705198  0.63547897
   0.62799288  0.69232458  0.58033606
   0.57789118  0.32471151  0.63460128
   0.92722021  0.83957577  0.40477806
   0.73721988  0.74674789  0.45632558
   0.48430468  0.20000915  0.62225835
   0.89505087  0.26553122  0.59099705
   0.19525910  0.03884024  0.57162187
   0.40266836  0.59608384  0.63396304
   0.72495457  0.30248055  0.59071889
   0.45094566  0.36524535  0.42158078
   0.52916718  0.61598117  0.46184420
   0.14346277  0.89563186  0.59404381
   0.20308859  0.76510771  0.55651097
   0.33555286  0.75427647  0.37257539
   0.14533965  0.63517206  0.59822067
   0.16127301  0.79026985  0.47162583
   0.06321799  0.25368435  0.61575534
   0.84928352  0.09697023  0.43685588
   0.78972799  0.71001478  0.59050015

 position of ions in cartesian coordinates  (Angst):
   9.36501390 12.38324149 10.05821612
   6.38582931  2.53521859  8.47806212
   6.36229761 11.15049667 10.02701952
   8.33063531  9.27597122  9.43013439
   6.66157375  0.43189884  9.76003995
   8.84856073 13.50272910 12.18273649
   9.50178791  2.60757685 11.24672422
   6.26824409 13.73072177 17.59346972
   9.45035868  5.41520185 10.27741097
  12.44286350  0.51475908 14.23507557
   2.09602015  9.65349638 11.61343675
   1.44049774  5.35068750 15.31628947
  10.90575712  6.63531362 16.78614674
  10.09045972 12.76599497 11.29460296
  11.00636249  7.01070206 12.69515684
   7.86855513  1.88671793 15.15402395
  12.73252982  7.36086326 14.21706303
   3.46912299  0.26472966 11.94976846
   2.65234401  3.99482948 13.86843739
   7.97580401 12.92747869 13.52217367
  14.46510579  9.32982458 17.02374022
  10.73965415  0.49087016 15.85090827
   4.31095327  9.03170417 11.43554466
   5.98918620  3.05222296 11.64082178
   7.47195140 13.00385335 17.10781324
   9.36674502  3.51616477 14.28730589
  14.41851315 13.10458069 16.66294590
  13.30797884 11.24493687 17.45041151
   7.78374296  5.24839437 13.62313135
   4.49867370  6.56174254 11.80309277
   9.09242321  7.76092390 15.95691537
  14.57555505  2.46737628 11.51913800
   5.96366563  2.21732234 13.83988739
   4.17488019 12.57195951 11.83627019
  13.81535906  4.64274274 12.26244473
  12.44030725 11.01151673 14.17116050
  13.15112208  9.84872082 10.96147609
  12.00753883 13.94988141 10.92222703
   5.49578299  9.23026463 13.44869632
   1.48738021  1.90954162 14.35597529
  13.71462138  9.23706389 13.20801718
   0.49270862 12.98615893 12.71940955
  10.55724925  3.00950031 12.23295555
  13.83249153  5.29855013 14.53244729
   8.59228408 14.20884207 15.38796652
   8.69362946  8.45084721 10.60086428
  13.57540730 13.04019657 14.49637456
  13.94265455  2.01614912 15.26757640
   5.32627393 11.02968356 14.96928158
   1.18544683  8.13849450 13.03958808
   4.59519609  7.20048693 14.08832233
   4.75202734  3.85900226 14.97459329
   8.79120413 10.75189126 13.76253136
   1.21190590  0.63071368 12.41701570
  10.94564550  8.91775465 11.30442478
   8.91412340  7.23961487 13.71349390
   2.02288464  3.30537351 10.26314090
   2.57725793  5.09687619 11.69469349
   4.55449821  0.38110496 14.06834240
   2.41803661  7.47507138 14.99555367
  12.50505024  8.23710890 16.34794396
   6.98509658 10.72813534 16.69195330
  11.57739348  5.00561729 11.60992598
   6.08211392  5.77861789 15.13219500
   0.67872761  6.36780333 11.61896785
   4.75300210  3.17983869 17.16280109
   5.64863428 12.91972879 13.62648840
   8.17290913  6.20140222 10.13213745
   7.23387326  6.77078958 16.92628673
   6.08396110  1.78859048  9.71016652
   3.97888455  2.09528311 10.64387037
   2.73394933  2.14406115 17.47619088
   9.15632076 10.09429581 15.95971576
   8.42582325  4.73438930 17.45205358
  13.51914316 12.24126142 11.13172726
  10.74888245 10.88780370 12.54932625
   7.06130456  2.91619217 17.11261295
  13.05010469  3.87152315 16.25290176
   2.84693503  0.56630209 15.72006855
   5.87102295  8.69107755 17.43450151
  10.57005064  4.41025527 16.24525200
   6.57492018  5.32538451 11.59381589
   7.71541296  8.98118647 12.70109276
   2.09172933 13.05857575 16.33669014
   2.96109139 11.15549529 15.30450640
   4.89245926 10.99757263 10.24612770
   2.11909475  9.26099524 16.45155730
   2.35140786 11.52236669 12.97009575
   0.92173689  3.69879240 16.93377495
  12.38280332  1.41385438 12.01389370
  11.51446622 10.35222415 16.23923650



--------------------------------------------------------------------------------------------------------


 k-point     1 :   0.0000 0.0000 0.0000  plane waves:  551555
 k-point     2 :   0.5000 0.0000 0.0000  plane waves:  551810
 k-point     3 :   0.0000 0.5000 0.0000  plane waves:  551810
 k-point     4 :   0.5000 0.5000 0.0000  plane waves:  551676

 maximum and minimum number of plane-waves per node :     34566    34420

 maximum number of plane-waves:    551810
 maximum index in each direction: 
   IXMAX=   41   IYMAX=   41   IZMAX=   77
   IXMIN=  -41   IYMIN=  -41   IZMIN=  -77


 parallel 3D FFT for wavefunctions:
    minimum data exchange during FFTs selected (reduces bandwidth)
 parallel 3D FFT for charge:
    minimum data exchange during FFTs selected (reduces bandwidth)


 total amount of memory used by VASP MPI-rank0   350523. kBytes
=======================================================================

   base                                    :      30000. kBytes
   nonl-proj                               :      67935. kBytes
   fftplans                                :     108846. kBytes
   grid                                    :      83991. kBytes
   one-center                              :         18. kBytes
   wavefun                                 :      59733. kBytes

     INWAV:  cpu time     17.2487: real time     17.2603
 Broyden mixing: mesh for mixing (old mesh)
   NGX = 83   NGY = 83   NGZ =155
  (NGX  =336   NGY  =336   NGZ  =640)
  gives a total of ****** points

 initial charge density was supplied:
 number of electron     336.9999999 magnetization 
 keeping initial charge density in first step


--------------------------------------------------------------------------------------------------------


 Maximum index for augmentation-charges        11102 (set IRDMAX)


--------------------------------------------------------------------------------------------------------


 First call to EWALD:  gamma=   0.098
 Maximum number of real-space cells   3x   3x   2
 Maximum number of reciprocal cells   2x   2x   4

    FEWALD:  cpu time      0.0156: real time      0.0160


--------------------------------------- Ionic step        1  -------------------------------------------




--------------------------------------- Iteration      1(   1)  ---------------------------------------


    POTLOK:  cpu time      2.2144: real time      2.2153
    SETDIJ:  cpu time      1.5778: real time      1.5786
    EDDIAG:  cpu time     34.4406: real time     34.4601
     EDDAV:  cpu time    158.3353: real time    158.4243
       DOS:  cpu time      0.0067: real time      0.0069
    CHARGE:  cpu time     20.3304: real time     20.3498
    MIXING:  cpu time      0.0481: real time      0.0486
    --------------------------------------------
      LOOP:  cpu time    216.9535: real time    217.0837

 eigenvalue-minimisations  :  1728
 total energy-change (2. order) :-0.8582909E+03  (-0.9481866E+00)
 number of electron     336.9999999 magnetization 
 augmentation part      -18.4130480 magnetization 

 Broyden mixing:
  rms(total) = 0.11178E+01    rms(broyden)= 0.25725E+02
  rms(prec ) = 0.11485E+01
  weight for this iteration     100.00
  WARNING: grid for Broyden might be to small

 Free energy of the ion-electron system (eV)
  ---------------------------------------------------
  alpha Z        PSCENC =        41.04343999
  Ewald energy   TEWEN  =     48234.90672399
  -Hartree energ DENC   =    -55765.54061496
  -exchange      EXHF   =         0.00000000
  -V(xc)+E(xc)   XCENC  =      -378.64574730
  PAW double counting   =     30651.31972223   -29833.84837545
  entropy T*S    EENTRO =        -0.24522568
  eigenvalues    EBANDS =     -2371.15662730
  atomic energy  EATOM  =      8563.87579245
  Solvation  Ediel_sol  =         0.00000000
  ---------------------------------------------------
  free energy    TOTEN  =      -858.29091203 eV

  energy without entropy =     -858.04568635  energy(sigma->0) =     -858.16829919


--------------------------------------------------------------------------------------------------------




--------------------------------------- Iteration      1(   2)  ---------------------------------------


    POTLOK:  cpu time      2.1037: real time      2.1291
    SETDIJ:  cpu time      1.5742: real time      1.5751
    EDDIAG:  cpu time     34.5309: real time     34.5501
     EDDAV:  cpu time    159.7885: real time    159.8850
       DOS:  cpu time      0.0028: real time      0.0028
    CHARGE:  cpu time     20.2216: real time     20.2399
    MIXING:  cpu time      0.0422: real time      0.0422
    --------------------------------------------
      LOOP:  cpu time    218.2638: real time    218.4241

 eigenvalue-minimisations  :  1760
 total energy-change (2. order) : 0.5978205E+02  (-0.8876588E+00)
 number of electron     336.9999999 magnetization 
 augmentation part      -18.3394400 magnetization 

 Broyden mixing:
  rms(total) = 0.75970E+00    rms(broyden)= 0.14849E+02
  rms(prec ) = 0.77562E+00
  weight for this iteration     100.00
  WARNING: grid for Broyden might be to small

 eigenvalues of (default mixing * dielectric matrix)
  average eigenvalue GAMMA=   0.6341
  0.6341

 Free energy of the ion-electron system (eV)
  ---------------------------------------------------
  alpha Z        PSCENC =        41.04343999
  Ewald energy   TEWEN  =     48234.90672399
  -Hartree energ DENC   =    -55752.68894672
  -exchange      EXHF   =         0.00000000
  -V(xc)+E(xc)   XCENC  =      -369.98405548
  PAW double counting   =     36627.92720940   -35810.23502374
  entropy T*S    EENTRO =        -0.22765959
  eigenvalues    EBANDS =     -2333.12633809
  atomic energy  EATOM  =      8563.87579245
  Solvation  Ediel_sol  =         0.00000000
  ---------------------------------------------------
  free energy    TOTEN  =      -798.50885779 eV

  energy without entropy =     -798.28119820  energy(sigma->0) =     -798.39502799


--------------------------------------------------------------------------------------------------------




--------------------------------------- Iteration      1(   3)  ---------------------------------------


    POTLOK:  cpu time      2.1069: real time      2.1298
    SETDIJ:  cpu time      1.5688: real time      1.5699
    EDDIAG:  cpu time     34.5093: real time     34.5286
     EDDAV:  cpu time    158.4946: real time    158.5920
       DOS:  cpu time      0.0027: real time      0.0027
    CHARGE:  cpu time     20.2128: real time     20.2304
    MIXING:  cpu time      0.0400: real time      0.0400
    --------------------------------------------
      LOOP:  cpu time    216.9351: real time    217.0933

 eigenvalue-minimisations  :  1736
 total energy-change (2. order) :-0.3331082E+01  (-0.7376024E+00)
 number of electron     336.9999999 magnetization 
 augmentation part      -18.2788811 magnetization 

 Broyden mixing:
  rms(total) = 0.31395E+00    rms(broyden)= 0.22859E+02
  rms(prec ) = 0.40156E+00
  weight for this iteration     100.00
  WARNING: grid for Broyden might be to small

 eigenvalues of (default mixing * dielectric matrix)
  average eigenvalue GAMMA=   0.7906
  0.9534  0.6278

 Free energy of the ion-electron system (eV)
  ---------------------------------------------------
  alpha Z        PSCENC =        41.04343999
  Ewald energy   TEWEN  =     48234.90672399
  -Hartree energ DENC   =    -55753.95376627
  -exchange      EXHF   =         0.00000000
  -V(xc)+E(xc)   XCENC  =      -373.52054977
  PAW double counting   =     43896.58447573   -43079.01158611
  entropy T*S    EENTRO =        -0.23119490
  eigenvalues    EBANDS =     -2331.53327536
  atomic energy  EATOM  =      8563.87579245
  Solvation  Ediel_sol  =         0.00000000
  ---------------------------------------------------
  free energy    TOTEN  =      -801.83994025 eV

  energy without entropy =     -801.60874534  energy(sigma->0) =     -801.72434280


--------------------------------------------------------------------------------------------------------




--------------------------------------- Iteration      1(   4)  ---------------------------------------


    POTLOK:  cpu time      2.1250: real time      2.1383
    SETDIJ:  cpu time      1.5713: real time      1.5722
    EDDIAG:  cpu time     34.4758: real time     34.4959
     EDDAV:  cpu time    173.1385: real time    173.2445
       DOS:  cpu time      0.0043: real time      0.0043
    CHARGE:  cpu time     20.1920: real time     20.2116
    MIXING:  cpu time      0.0407: real time      0.0407
    --------------------------------------------
      LOOP:  cpu time    231.5477: real time    231.7074

 eigenvalue-minimisations  :  2016
 total energy-change (2. order) : 0.2993658E+00  (-0.1378004E+00)
 number of electron     336.9999999 magnetization 
 augmentation part      -18.2741892 magnetization 

 Broyden mixing:
  rms(total) = 0.17788E+00    rms(broyden)= 0.92949E+00
  rms(prec ) = 0.27029E+00
  weight for this iteration     100.00
  WARNING: grid for Broyden might be to small

 eigenvalues of (default mixing * dielectric matrix)
  average eigenvalue GAMMA=   0.9508
  1.6600  0.6304  0.5619

 Free energy of the ion-electron system (eV)
  ---------------------------------------------------
  alpha Z        PSCENC =        41.04343999
  Ewald energy   TEWEN  =     48234.90672399
  -Hartree energ DENC   =    -55754.37090163
  -exchange      EXHF   =         0.00000000
  -V(xc)+E(xc)   XCENC  =      -374.31570476
  PAW double counting   =     49086.01399312   -48268.48216376
  entropy T*S    EENTRO =        -0.22429465
  eigenvalues    EBANDS =     -2329.98745916
  atomic energy  EATOM  =      8563.87579245
  Solvation  Ediel_sol  =         0.00000000
  ---------------------------------------------------
  free energy    TOTEN  =      -801.54057440 eV

  energy without entropy =     -801.31627974  energy(sigma->0) =     -801.42842707


--------------------------------------------------------------------------------------------------------




--------------------------------------- Iteration      1(   5)  ---------------------------------------


    POTLOK:  cpu time      2.1061: real time      2.1353
    SETDIJ:  cpu time      1.5720: real time      1.5735
    EDDIAG:  cpu time     34.4447: real time     34.4645
     EDDAV:  cpu time    173.1920: real time    173.2955
       DOS:  cpu time      0.0028: real time      0.0028
    CHARGE:  cpu time     20.1978: real time     20.2159
    MIXING:  cpu time      0.0407: real time      0.0407
    --------------------------------------------
      LOOP:  cpu time    231.5560: real time    231.7282

 eigenvalue-minimisations  :  2016
 total energy-change (2. order) : 0.5913505E-01  (-0.6904437E-01)
 number of electron     336.9999999 magnetization 
 augmentation part      -18.2748507 magnetization 

 Broyden mixing:
  rms(total) = 0.64421E-01    rms(broyden)= 0.17814E+01
  rms(prec ) = 0.88977E-01
  weight for this iteration     100.00
  WARNING: grid for Broyden might be to small

 eigenvalues of (default mixing * dielectric matrix)
  average eigenvalue GAMMA=   1.0004
  2.3490  0.7339  0.6193  0.2995

 Free energy of the ion-electron system (eV)
  ---------------------------------------------------
  alpha Z        PSCENC =        41.04343999
  Ewald energy   TEWEN  =     48234.90672399
  -Hartree energ DENC   =    -55755.99627352
  -exchange      EXHF   =         0.00000000
  -V(xc)+E(xc)   XCENC  =      -375.39097650
  PAW double counting   =     49034.91153529   -48217.36616171
  entropy T*S    EENTRO =        -0.23316860
  eigenvalues    EBANDS =     -2327.23235075
  atomic energy  EATOM  =      8563.87579245
  Solvation  Ediel_sol  =         0.00000000
  ---------------------------------------------------
  free energy    TOTEN  =      -801.48143935 eV

  energy without entropy =     -801.24827075  energy(sigma->0) =     -801.36485505


--------------------------------------------------------------------------------------------------------




--------------------------------------- Iteration      1(   6)  ---------------------------------------


    POTLOK:  cpu time      2.1057: real time      2.1345
    SETDIJ:  cpu time      1.5580: real time      1.5589
    EDDIAG:  cpu time     34.4844: real time     34.5057
     EDDAV:  cpu time    162.7351: real time    162.8312
       DOS:  cpu time      0.0048: real time      0.0048
    CHARGE:  cpu time     20.2181: real time     20.2356
    MIXING:  cpu time      0.0414: real time      0.0414
    --------------------------------------------
      LOOP:  cpu time    221.1475: real time    221.3122

 eigenvalue-minimisations  :  1808
 total energy-change (2. order) : 0.1259153E-01  (-0.1606765E-01)
 number of electron     336.9999999 magnetization 
 augmentation part      -18.2730046 magnetization 

 Broyden mixing:
  rms(total) = 0.43975E-01    rms(broyden)= 0.16289E+00
  rms(prec ) = 0.53844E-01
  weight for this iteration     100.00
  WARNING: grid for Broyden might be to small

 eigenvalues of (default mixing * dielectric matrix)
  average eigenvalue GAMMA=   1.0089
  2.5557  0.9259  0.6322  0.6322  0.2984

 Free energy of the ion-electron system (eV)
  ---------------------------------------------------
  alpha Z        PSCENC =        41.04343999
  Ewald energy   TEWEN  =     48234.90672399
  -Hartree energ DENC   =    -55756.92712590
  -exchange      EXHF   =         0.00000000
  -V(xc)+E(xc)   XCENC  =      -375.58247998
  PAW double counting   =     48599.52615195   -47781.95927858
  entropy T*S    EENTRO =        -0.23403529
  eigenvalues    EBANDS =     -2326.11803646
  atomic energy  EATOM  =      8563.87579245
  Solvation  Ediel_sol  =         0.00000000
  ---------------------------------------------------
  free energy    TOTEN  =      -801.46884782 eV

  energy without entropy =     -801.23481253  energy(sigma->0) =     -801.35183017


--------------------------------------------------------------------------------------------------------




--------------------------------------- Iteration      1(   7)  ---------------------------------------


    POTLOK:  cpu time      2.1417: real time      2.1714
    SETDIJ:  cpu time      1.5690: real time      1.5703
    EDDIAG:  cpu time     34.4935: real time     34.5135
     EDDAV:  cpu time    163.8259: real time    163.9279
       DOS:  cpu time      0.0021: real time      0.0021
    CHARGE:  cpu time     20.2064: real time     20.2242
    MIXING:  cpu time      0.0449: real time      0.0449
    --------------------------------------------
      LOOP:  cpu time    222.2835: real time    222.4544

 eigenvalue-minimisations  :  1840
 total energy-change (2. order) : 0.3088963E-02  (-0.1999672E-02)
 number of electron     336.9999999 magnetization 
 augmentation part      -18.2730274 magnetization 

 Broyden mixing:
  rms(total) = 0.24788E-01    rms(broyden)= 0.17989E+00
  rms(prec ) = 0.28775E-01
  weight for this iteration     100.00
  WARNING: grid for Broyden might be to small

 eigenvalues of (default mixing * dielectric matrix)
  average eigenvalue GAMMA=   0.9323
  2.5753  0.9583  0.3197  0.6404  0.6050  0.4952

 Free energy of the ion-electron system (eV)
  ---------------------------------------------------
  alpha Z        PSCENC =        41.04343999
  Ewald energy   TEWEN  =     48234.90672399
  -Hartree energ DENC   =    -55756.25708306
  -exchange      EXHF   =         0.00000000
  -V(xc)+E(xc)   XCENC  =      -375.55383070
  PAW double counting   =     48564.17089748   -47746.59500611
  entropy T*S    EENTRO =        -0.23327247
  eigenvalues    EBANDS =     -2326.82342043
  atomic energy  EATOM  =      8563.87579245
  Solvation  Ediel_sol  =         0.00000000
  ---------------------------------------------------
  free energy    TOTEN  =      -801.46575885 eV

  energy without entropy =     -801.23248639  energy(sigma->0) =     -801.34912262


--------------------------------------------------------------------------------------------------------




--------------------------------------- Iteration      1(   8)  ---------------------------------------


    POTLOK:  cpu time      2.1121: real time      2.1314
    SETDIJ:  cpu time      1.5746: real time      1.5751
    EDDIAG:  cpu time     34.4671: real time     34.4841
     EDDAV:  cpu time    162.2302: real time    162.3289
       DOS:  cpu time      0.0019: real time      0.0019
    CHARGE:  cpu time     20.2169: real time     20.2364
    MIXING:  cpu time      0.0427: real time      0.0428
    --------------------------------------------
      LOOP:  cpu time    220.6455: real time    220.8007

 eigenvalue-minimisations  :  1808
 total energy-change (2. order) :-0.8675068E-03  (-0.1102463E-02)
 number of electron     336.9999999 magnetization 
 augmentation part      -18.2711098 magnetization 

 Broyden mixing:
  rms(total) = 0.16173E-01    rms(broyden)= 0.69082E-01
  rms(prec ) = 0.18888E-01
  weight for this iteration     100.00
  WARNING: grid for Broyden might be to small

 eigenvalues of (default mixing * dielectric matrix)
  average eigenvalue GAMMA=   0.9436
  2.5640  1.2572  0.8346  0.6252  0.6252  0.3496  0.3496

 Free energy of the ion-electron system (eV)
  ---------------------------------------------------
  alpha Z        PSCENC =        41.04343999
  Ewald energy   TEWEN  =     48234.90672399
  -Hartree energ DENC   =    -55756.09675791
  -exchange      EXHF   =         0.00000000
  -V(xc)+E(xc)   XCENC  =      -375.38815110
  PAW double counting   =     48565.66628430   -47748.07791446
  entropy T*S    EENTRO =        -0.23427906
  eigenvalues    EBANDS =     -2327.16176456
  atomic energy  EATOM  =      8563.87579245
  Solvation  Ediel_sol  =         0.00000000
  ---------------------------------------------------
  free energy    TOTEN  =      -801.46662636 eV

  energy without entropy =     -801.23234730  energy(sigma->0) =     -801.34948683


--------------------------------------------------------------------------------------------------------




--------------------------------------- Iteration      1(   9)  ---------------------------------------


    POTLOK:  cpu time      2.1144: real time      2.1311
    SETDIJ:  cpu time      1.5745: real time      1.5756
    EDDIAG:  cpu time     34.5000: real time     34.5217
     EDDAV:  cpu time    164.2219: real time    164.3189
       DOS:  cpu time      0.0025: real time      0.0025
    CHARGE:  cpu time     20.1978: real time     20.2166
    MIXING:  cpu time      0.0438: real time      0.0438
    --------------------------------------------
      LOOP:  cpu time    222.6551: real time    222.8103

 eigenvalue-minimisations  :  1848
 total energy-change (2. order) :-0.4169955E-03  (-0.3987710E-03)
 number of electron     336.9999999 magnetization 
 augmentation part      -18.2707785 magnetization 

 Broyden mixing:
  rms(total) = 0.12393E-01    rms(broyden)= 0.19360E-01
  rms(prec ) = 0.15205E-01
  weight for this iteration     100.00
  WARNING: grid for Broyden might be to small

 eigenvalues of (default mixing * dielectric matrix)
  average eigenvalue GAMMA=   0.9391
  2.5573  1.5519  0.8629  0.6421  0.6421  0.5608  0.3478  0.3478

 Free energy of the ion-electron system (eV)
  ---------------------------------------------------
  alpha Z        PSCENC =        41.04343999
  Ewald energy   TEWEN  =     48234.90672399
  -Hartree energ DENC   =    -55756.09255453
  -exchange      EXHF   =         0.00000000
  -V(xc)+E(xc)   XCENC  =      -375.33247217
  PAW double counting   =     48587.13789175   -47769.54284542
  entropy T*S    EENTRO =        -0.23412816
  eigenvalues    EBANDS =     -2327.22889127
  atomic energy  EATOM  =      8563.87579245
  Solvation  Ediel_sol  =         0.00000000
  ---------------------------------------------------
  free energy    TOTEN  =      -801.46704336 eV

  energy without entropy =     -801.23291520  energy(sigma->0) =     -801.34997928


--------------------------------------------------------------------------------------------------------




--------------------------------------- Iteration      1(  10)  ---------------------------------------


    POTLOK:  cpu time      2.0986: real time      2.1287
    SETDIJ:  cpu time      1.5670: real time      1.5684
    EDDIAG:  cpu time     34.4998: real time     34.5185
     EDDAV:  cpu time    163.2961: real time    163.3934
       DOS:  cpu time      0.0052: real time      0.0052
    CHARGE:  cpu time     20.2107: real time     20.2271
    MIXING:  cpu time      0.0437: real time      0.0437
    --------------------------------------------
      LOOP:  cpu time    221.7208: real time    221.8847

 eigenvalue-minimisations  :  1824
 total energy-change (2. order) :-0.1221265E-03  (-0.4549953E-03)
 number of electron     336.9999999 magnetization 
 augmentation part      -18.2701223 magnetization 

 Broyden mixing:
  rms(total) = 0.33538E-02    rms(broyden)= 0.24599E-01
  rms(prec ) = 0.40058E-02
  weight for this iteration     100.00
  WARNING: grid for Broyden might be to small

 eigenvalues of (default mixing * dielectric matrix)
  average eigenvalue GAMMA=   0.9878
  2.5417  2.2010  1.0124  0.7870  0.6450  0.6307  0.4110  0.3308  0.3308

 Free energy of the ion-electron system (eV)
  ---------------------------------------------------
  alpha Z        PSCENC =        41.04343999
  Ewald energy   TEWEN  =     48234.90672399
  -Hartree energ DENC   =    -55755.98634656
  -exchange      EXHF   =         0.00000000
  -V(xc)+E(xc)   XCENC  =      -375.26506920
  PAW double counting   =     48610.20669024   -47792.60457403
  entropy T*S    EENTRO =        -0.23404445
  eigenvalues    EBANDS =     -2327.40977790
  atomic energy  EATOM  =      8563.87579245
  Solvation  Ediel_sol  =         0.00000000
  ---------------------------------------------------
  free energy    TOTEN  =      -801.46716548 eV

  energy without entropy =     -801.23312103  energy(sigma->0) =     -801.35014326


--------------------------------------------------------------------------------------------------------




--------------------------------------- Iteration      1(  11)  ---------------------------------------


    POTLOK:  cpu time      2.1338: real time      2.1357
    SETDIJ:  cpu time      1.5699: real time      1.5711
    EDDIAG:  cpu time     34.5255: real time     34.5435
     EDDAV:  cpu time    163.0796: real time    163.1787
       DOS:  cpu time      0.0022: real time      0.0022
    CHARGE:  cpu time     20.2137: real time     20.2323
    MIXING:  cpu time      0.0454: real time      0.0454
    --------------------------------------------
      LOOP:  cpu time    221.5700: real time    221.7087

 eigenvalue-minimisations  :  1824
 total energy-change (2. order) : 0.2160072E-04  (-0.1436803E-03)
 number of electron     336.9999999 magnetization 
 augmentation part      -18.2702631 magnetization 

 Broyden mixing:
  rms(total) = 0.24928E-02    rms(broyden)= 0.14201E-01
  rms(prec ) = 0.31027E-02
  weight for this iteration     100.00
  WARNING: grid for Broyden might be to small

 eigenvalues of (default mixing * dielectric matrix)
  average eigenvalue GAMMA=   0.9991
  2.5528  2.5528  1.0121  0.8706  0.7330  0.6327  0.5946  0.4076  0.3176  0.3176

 Free energy of the ion-electron system (eV)
  ---------------------------------------------------
  alpha Z        PSCENC =        41.04343999
  Ewald energy   TEWEN  =     48234.90672399
  -Hartree energ DENC   =    -55755.89439007
  -exchange      EXHF   =         0.00000000
  -V(xc)+E(xc)   XCENC  =      -375.27735503
  PAW double counting   =     48610.27775606   -47792.67365905
  entropy T*S    EENTRO =        -0.23429053
  eigenvalues    EBANDS =     -2327.49116170
  atomic energy  EATOM  =      8563.87579245
  Solvation  Ediel_sol  =         0.00000000
  ---------------------------------------------------
  free energy    TOTEN  =      -801.46714388 eV

  energy without entropy =     -801.23285335  energy(sigma->0) =     -801.34999862


--------------------------------------------------------------------------------------------------------




--------------------------------------- Iteration      1(  12)  ---------------------------------------


    POTLOK:  cpu time      2.1228: real time      2.1530
    SETDIJ:  cpu time      1.5626: real time      1.5634
    EDDIAG:  cpu time     34.5128: real time     34.5311
     EDDAV:  cpu time    163.4633: real time    163.5583
       DOS:  cpu time      0.0025: real time      0.0025
    CHARGE:  cpu time     20.2344: real time     20.2530
    MIXING:  cpu time      0.0456: real time      0.0456
    --------------------------------------------
      LOOP:  cpu time    221.9439: real time    222.1068

 eigenvalue-minimisations  :  1824
 total energy-change (2. order) :-0.8962373E-04  (-0.4109923E-04)
 number of electron     336.9999999 magnetization 
 augmentation part      -18.2703832 magnetization 

 Broyden mixing:
  rms(total) = 0.10001E-02    rms(broyden)= 0.45385E-02
  rms(prec ) = 0.12294E-02
  weight for this iteration     100.00
  WARNING: grid for Broyden might be to small

 eigenvalues of (default mixing * dielectric matrix)
  average eigenvalue GAMMA=   1.0141
  2.6523  2.6523  1.1117  1.1117  0.7793  0.6261  0.6166  0.5540  0.4126  0.3190
  0.3190

 Free energy of the ion-electron system (eV)
  ---------------------------------------------------
  alpha Z        PSCENC =        41.04343999
  Ewald energy   TEWEN  =     48234.90672399
  -Hartree energ DENC   =    -55755.71415241
  -exchange      EXHF   =         0.00000000
  -V(xc)+E(xc)   XCENC  =      -375.28476658
  PAW double counting   =     48608.43588713   -47790.83017986
  entropy T*S    EENTRO =        -0.23419907
  eigenvalues    EBANDS =     -2327.66577916
  atomic energy  EATOM  =      8563.87579245
  Solvation  Ediel_sol  =         0.00000000
  ---------------------------------------------------
  free energy    TOTEN  =      -801.46723351 eV

  energy without entropy =     -801.23303444  energy(sigma->0) =     -801.35013397


--------------------------------------------------------------------------------------------------------




--------------------------------------- Iteration      1(  13)  ---------------------------------------


    POTLOK:  cpu time      2.1011: real time      2.1299
    SETDIJ:  cpu time      1.5736: real time      1.5746
    EDDIAG:  cpu time     34.5343: real time     34.5534
     EDDAV:  cpu time    163.4862: real time    163.5851
       DOS:  cpu time      0.0048: real time      0.0048
    CHARGE:  cpu time     20.2198: real time     20.2377
    MIXING:  cpu time      0.0464: real time      0.0464
    --------------------------------------------
      LOOP:  cpu time    221.9661: real time    222.1318

 eigenvalue-minimisations  :  1832
 total energy-change (2. order) :-0.6002127E-04  (-0.1767152E-04)
 number of electron     336.9999999 magnetization 
 augmentation part      -18.2704553 magnetization 

 Broyden mixing:
  rms(total) = 0.83164E-03    rms(broyden)= 0.44321E-02
  rms(prec ) = 0.11192E-02
  weight for this iteration     100.00
  WARNING: grid for Broyden might be to small

 eigenvalues of (default mixing * dielectric matrix)
  average eigenvalue GAMMA=   1.0123
  2.7209  2.7209  1.3419  1.0260  0.7813  0.7813  0.6305  0.5452  0.5452  0.4166
  0.3193  0.3193

 Free energy of the ion-electron system (eV)
  ---------------------------------------------------
  alpha Z        PSCENC =        41.04343999
  Ewald energy   TEWEN  =     48234.90672399
  -Hartree energ DENC   =    -55755.54662629
  -exchange      EXHF   =         0.00000000
  -V(xc)+E(xc)   XCENC  =      -375.28928902
  PAW double counting   =     48606.31524330   -47788.70863802
  entropy T*S    EENTRO =        -0.23418803
  eigenvalues    EBANDS =     -2327.82975191
  atomic energy  EATOM  =      8563.87579245
  Solvation  Ediel_sol  =         0.00000000
  ---------------------------------------------------
  free energy    TOTEN  =      -801.46729353 eV

  energy without entropy =     -801.23310550  energy(sigma->0) =     -801.35019951


--------------------------------------------------------------------------------------------------------




--------------------------------------- Iteration      1(  14)  ---------------------------------------


    POTLOK:  cpu time      2.1327: real time      2.1338
    SETDIJ:  cpu time      1.5731: real time      1.5743
    EDDIAG:  cpu time     34.5248: real time     34.5436
     EDDAV:  cpu time    164.2580: real time    164.3592
       DOS:  cpu time      0.0040: real time      0.0040
    CHARGE:  cpu time     20.2103: real time     20.2289
    MIXING:  cpu time      0.0471: real time      0.0471
    --------------------------------------------
      LOOP:  cpu time    222.7500: real time    222.8910

 eigenvalue-minimisations  :  1840
 total energy-change (2. order) :-0.6997365E-04  (-0.9061005E-05)
 number of electron     336.9999999 magnetization 
 augmentation part      -18.2704995 magnetization 

 Broyden mixing:
  rms(total) = 0.37325E-03    rms(broyden)= 0.14166E-02
  rms(prec ) = 0.54445E-03
  weight for this iteration     100.00
  WARNING: grid for Broyden might be to small

 eigenvalues of (default mixing * dielectric matrix)
  average eigenvalue GAMMA=   1.0585
  2.7858  2.7858  1.7194  1.0882  1.0882  0.8410  0.3192  0.3192  0.4158  0.6398
  0.6253  0.5663  0.5663

 Free energy of the ion-electron system (eV)
  ---------------------------------------------------
  alpha Z        PSCENC =        41.04343999
  Ewald energy   TEWEN  =     48234.90672399
  -Hartree energ DENC   =    -55755.42291373
  -exchange      EXHF   =         0.00000000
  -V(xc)+E(xc)   XCENC  =      -375.29489022
  PAW double counting   =     48604.68156019   -47787.07473486
  entropy T*S    EENTRO =        -0.23421628
  eigenvalues    EBANDS =     -2327.94812502
  atomic energy  EATOM  =      8563.87579245
  Solvation  Ediel_sol  =         0.00000000
  ---------------------------------------------------
  free energy    TOTEN  =      -801.46736350 eV

  energy without entropy =     -801.23314722  energy(sigma->0) =     -801.35025536


--------------------------------------------------------------------------------------------------------




--------------------------------------- Iteration      1(  15)  ---------------------------------------


    POTLOK:  cpu time      2.1075: real time      2.1361
    SETDIJ:  cpu time      1.5752: real time      1.5763
    EDDIAG:  cpu time     34.5237: real time     34.5429
     EDDAV:  cpu time    163.5609: real time    163.6597
       DOS:  cpu time      0.0020: real time      0.0020
    CHARGE:  cpu time     20.2019: real time     20.2213
    MIXING:  cpu time      0.0491: real time      0.0491
    --------------------------------------------
      LOOP:  cpu time    222.0202: real time    222.1873

 eigenvalue-minimisations  :  1824
 total energy-change (2. order) :-0.6865992E-04  (-0.1314171E-04)
 number of electron     336.9999999 magnetization 
 augmentation part      -18.2705226 magnetization 

 Broyden mixing:
  rms(total) = 0.40921E-03    rms(broyden)= 0.14720E-02
  rms(prec ) = 0.57624E-03
  weight for this iteration     100.00
  WARNING: grid for Broyden might be to small

 eigenvalues of (default mixing * dielectric matrix)
  average eigenvalue GAMMA=   1.0579
  2.8538  2.8538  2.0049  1.1631  0.9092  0.8144  0.8144  0.3192  0.3192  0.4172
  0.6157  0.5893  0.5893  0.5473

 Free energy of the ion-electron system (eV)
  ---------------------------------------------------
  alpha Z        PSCENC =        41.04343999
  Ewald energy   TEWEN  =     48234.90672399
  -Hartree energ DENC   =    -55755.29122459
  -exchange      EXHF   =         0.00000000
  -V(xc)+E(xc)   XCENC  =      -375.29848086
  PAW double counting   =     48603.94467519   -47786.33800641
  entropy T*S    EENTRO =        -0.23422584
  eigenvalues    EBANDS =     -2328.07612608
  atomic energy  EATOM  =      8563.87579245
  Solvation  Ediel_sol  =         0.00000000
  ---------------------------------------------------
  free energy    TOTEN  =      -801.46743216 eV

  energy without entropy =     -801.23320632  energy(sigma->0) =     -801.35031924


--------------------------------------------------------------------------------------------------------




--------------------------------------- Iteration      1(  16)  ---------------------------------------


    POTLOK:  cpu time      2.1276: real time      2.1294
    SETDIJ:  cpu time      1.5762: real time      1.5774
    EDDIAG:  cpu time     34.5352: real time     34.5560
     EDDAV:  cpu time    161.5087: real time    161.6021
       DOS:  cpu time      0.0139: real time      0.0141
    CHARGE:  cpu time     20.2302: real time     20.2482
    MIXING:  cpu time      0.0646: real time      0.0648
    --------------------------------------------
      LOOP:  cpu time    220.0563: real time    220.1920

 eigenvalue-minimisations  :  1792
 total energy-change (2. order) :-0.7536505E-04  (-0.6755605E-05)
[...]
   0.279E+02 0.246E+02 -.160E+03   -.291E+02 -.238E+02 0.158E+03   0.119E+01 -.944E+00 0.195E+01   0.256E-05 -.442E-05 -.149E-04
   0.502E+01 -.123E+02 -.134E+03   -.577E+01 0.130E+02 0.131E+03   0.572E+00 -.796E+00 0.212E+01   -.189E-04 0.248E-05 -.582E-04
   -.466E+00 -.492E+01 0.750E+02   0.897E+00 0.584E+01 -.778E+02   -.657E+00 -.973E+00 0.300E+01   0.369E-04 0.179E-04 -.136E-04
   0.136E+02 -.533E+01 -.486E+02   -.119E+02 0.544E+01 0.475E+02   -.190E+01 0.109E-01 0.102E+01   -.322E-04 0.685E-04 -.302E-04
   0.108E+02 -.298E+01 -.110E+03   -.100E+02 0.209E+01 0.111E+03   -.904E+00 0.937E+00 -.121E+01   -.114E-04 0.923E-05 -.210E-04
   0.839E+01 -.339E+02 0.980E+01   -.615E+01 0.326E+02 -.107E+02   -.217E+01 0.117E+01 0.758E+00   -.348E-04 0.210E-04 0.743E-05
   0.195E+02 0.185E+02 0.165E+03   -.173E+02 -.183E+02 -.162E+03   -.194E+01 -.308E+00 -.197E+01   0.259E-04 -.316E-04 -.119E-04
   -.159E+02 0.388E+01 0.279E+03   0.149E+02 -.440E+01 -.277E+03   0.869E+00 0.218E+00 -.299E+01   0.511E-04 0.381E-04 0.213E-04
   -.799E+01 0.611E+01 0.213E+02   0.707E+01 -.659E+01 -.204E+02   0.899E+00 0.474E+00 -.100E+01   0.723E-05 0.553E-04 0.578E-04
   0.266E+02 0.289E+00 0.343E+03   -.261E+02 0.159E+01 -.346E+03   -.882E+00 -.162E+01 0.161E+01   -.931E-06 -.728E-05 0.157E-04
   -.988E+01 -.912E+01 0.225E+03   0.621E+01 0.953E+01 -.226E+03   0.379E+01 -.601E+00 0.434E+00   -.173E-04 0.282E-04 0.457E-05
   -.219E+02 0.145E+02 -.429E+02   0.218E+02 -.144E+02 0.408E+02   0.678E-01 -.217E+00 0.210E+01   -.145E-05 -.670E-04 -.400E-04
   -.339E+01 -.275E+01 -.145E+03   0.282E+01 0.373E+01 0.145E+03   0.534E+00 -.924E+00 0.353E+00   0.496E-05 0.335E-04 -.304E-04
   -.200E+02 0.180E+02 -.261E+03   0.184E+02 -.166E+02 0.258E+03   0.158E+01 -.139E+01 0.258E+01   0.160E-04 0.136E-04 -.310E-05
   0.104E+02 -.189E+02 -.281E+03   -.104E+02 0.176E+02 0.282E+03   0.233E+00 0.908E+00 0.240E+00   -.586E-05 0.403E-04 -.192E-04
   0.206E+01 0.121E+02 0.252E+03   -.121E+01 -.132E+02 -.253E+03   -.724E+00 0.961E+00 -.227E-01   0.787E-04 -.867E-05 0.199E-04
   0.163E+02 -.327E+01 -.143E+03   -.162E+02 0.363E+01 0.141E+03   -.173E+00 -.380E+00 0.209E+01   -.491E-04 0.260E-04 0.926E-05
   0.224E+02 -.209E+02 0.263E+03   -.214E+02 0.207E+02 -.263E+03   -.130E+01 0.382E+00 0.392E-01   0.241E-04 0.173E-04 0.760E-05
   0.317E+01 -.139E+01 -.325E+03   -.438E+01 0.159E+01 0.322E+03   0.125E+01 0.128E-01 0.262E+01   0.492E-04 0.114E-04 -.446E-05
   -.240E+02 -.163E+02 0.251E+02   0.224E+02 0.155E+02 -.250E+02   0.154E+01 0.904E+00 -.983E-01   -.491E-04 -.470E-04 -.508E-04
   0.265E+01 0.165E+02 0.340E+03   -.164E+01 -.170E+02 -.341E+03   -.103E+01 0.545E+00 0.934E+00   -.337E-05 0.250E-04 0.589E-04
   0.243E+02 -.393E+01 -.307E+03   -.241E+02 0.584E+01 0.305E+03   -.394E+00 -.185E+01 0.253E+01   -.711E-05 0.193E-04 0.762E-05
   -.369E+02 0.270E+02 0.323E+03   0.369E+02 -.266E+02 -.323E+03   -.252E+00 -.384E+00 0.821E-01   -.365E-04 -.661E-04 -.128E-04
   0.108E+02 0.113E+02 0.296E+03   -.107E+02 -.121E+02 -.295E+03   0.156E+00 0.721E+00 -.134E+01   -.279E-04 -.422E-04 0.168E-05
   0.130E+02 0.172E+02 -.342E+03   -.126E+02 -.202E+02 0.345E+03   -.951E+00 0.265E+01 -.154E+01   -.518E-05 0.561E-05 -.336E-04
   -.936E+01 -.381E+02 -.228E+03   0.776E+01 0.362E+02 0.226E+03   0.142E+01 0.185E+01 0.180E+01   -.121E-04 0.264E-04 0.990E-05
   -.193E+02 0.168E+02 -.338E+03   0.175E+02 -.182E+02 0.336E+03   0.168E+01 0.103E+01 0.185E+01   0.168E-05 -.110E-04 0.797E-05
   -.176E+02 -.394E+01 0.287E+03   0.171E+02 0.591E+01 -.285E+03   0.299E+00 -.199E+01 -.232E+01   0.541E-04 -.181E-04 0.841E-05
   0.722E+00 -.305E+02 0.133E+03   -.276E+01 0.298E+02 -.131E+03   0.198E+01 0.809E+00 -.181E+01   0.756E-05 0.136E-04 0.208E-04
   -.113E+02 0.435E+02 -.313E+03   0.128E+02 -.427E+02 0.311E+03   -.121E+01 -.894E+00 0.141E+01   0.109E-04 -.277E-04 0.610E-05
   0.302E+02 0.152E+02 -.265E+03   -.284E+02 -.142E+02 0.261E+03   -.179E+01 -.740E+00 0.374E+01   0.870E-05 0.610E-06 -.558E-05
   -.150E+02 0.261E+02 -.201E+03   0.126E+02 -.256E+02 0.200E+03   0.256E+01 -.706E+00 0.137E+01   -.468E-06 -.574E-04 -.646E-04
   0.385E+02 -.717E+01 -.324E+03   -.439E+02 0.686E+01 0.325E+03   0.459E+01 0.657E+00 -.119E+01   -.102E-04 0.303E-04 -.130E-04
   -.246E+02 0.485E+02 -.228E+03   0.235E+02 -.463E+02 0.227E+03   0.710E+00 -.247E+01 0.886E+00   0.192E-04 -.634E-05 0.103E-04
   0.478E+00 0.755E+01 0.234E+03   0.102E+01 -.763E+01 -.233E+03   -.166E+01 0.212E-01 -.791E+00   -.139E-03 -.192E-04 0.627E-04
   0.209E+02 -.206E+02 0.131E+03   -.192E+02 0.205E+02 -.130E+03   -.166E+01 0.734E-01 -.158E+01   -.901E-04 0.859E-04 0.301E-04
   -.183E+02 0.423E+01 -.262E+03   0.176E+02 -.442E+01 0.261E+03   0.972E+00 0.642E-01 0.127E+01   0.682E-05 -.408E-04 -.410E-04
   -.158E+01 -.143E+01 -.160E+03   0.106E+01 0.208E+01 0.160E+03   0.510E+00 -.627E+00 0.134E+00   0.155E-04 -.852E-05 -.515E-04
   0.269E+01 -.154E+02 0.337E+03   -.219E+01 0.148E+02 -.336E+03   -.590E+00 0.188E+00 -.810E+00   -.896E-04 0.206E-04 -.558E-04
   -.200E+02 0.252E+01 -.275E+03   0.202E+02 -.327E+01 0.275E+03   0.458E-01 0.518E+00 0.702E+00   0.925E-05 0.136E-04 -.233E-04
   0.122E+02 -.574E+01 0.820E+02   -.120E+02 0.449E+01 -.842E+02   -.242E+00 0.147E+01 0.210E+01   0.717E-04 -.980E-05 -.472E-04
   0.135E+02 -.717E+01 -.322E+03   -.119E+02 0.843E+01 0.321E+03   -.150E+01 -.120E+01 0.907E+00   -.393E-04 0.324E-04 -.228E-04
   0.248E+02 -.348E+01 0.195E+03   -.255E+02 0.276E+01 -.193E+03   0.591E+00 0.792E+00 -.136E+01   0.327E-04 0.146E-05 0.102E-04
   0.284E+02 -.415E+02 -.246E+03   -.253E+02 0.399E+02 0.243E+03   -.297E+01 0.173E+01 0.253E+01   0.745E-05 0.133E-04 0.269E-05
 -----------------------------------------------------------------------------------------------
   -.118E+02 0.534E+01 -.201E+02   0.199E-12 0.213E-13 0.000E+00   0.118E+02 -.535E+01 0.201E+02   0.389E-05 0.215E-03 -.343E-03


 POSITION                                       TOTAL-FORCE (eV/Angst)
 -----------------------------------------------------------------------------------
      9.36501     12.38324     10.05822        -0.273063      0.041551      0.037644
      6.38583      2.53522      8.47806         0.169539      0.036046     -0.075758
      6.36230     11.15050     10.02702         0.097421      0.121629     -0.025973
      8.33064      9.27597      9.43013        -0.159357      0.179179     -0.061727
      6.66157      0.43190      9.76004         0.010876     -0.120351     -0.127267
      8.84856     13.50273     12.18274         0.227401     -0.123588     -0.113237
      9.50179      2.60758     11.24672         0.005107      0.036936      0.100903
      6.26824     13.73072     17.59347        -0.180848      0.189115     -0.160386
      9.45036      5.41520     10.27741         0.080422     -0.145839     -0.119730
     12.44286      0.51476     14.23508        -0.118568     -0.303543     -0.313808
      2.09602      9.65350     11.61344        -0.205791      0.109257      0.072212
      1.44050      5.35069     15.31629         0.198698      0.106514      0.078466
     10.90576      6.63531     16.78615         0.088694      0.146413     -0.137810
     10.09046     12.76599     11.29460         0.246698     -0.348796     -0.104560
     11.00636      7.01070     12.69516         0.212609     -0.000152      0.075701
      7.86856      1.88672     15.15402         0.250971     -0.084353      0.205178
     12.73253      7.36086     14.21706        -0.286468     -0.277177      0.065742
      3.46912      0.26473     11.94977         0.116088     -0.136792      0.067384
      2.65234      3.99483     13.86844         0.034345      0.017127      0.165649
      7.97580     12.92748     13.52217        -0.164100      0.061205      0.730214
     14.46511      9.32982     17.02374        -0.025632      0.313974     -0.009877
     10.73965      0.49087     15.85091        -0.257879      0.201605      0.311706
      4.31095      9.03170     11.43554         0.080062     -0.104805     -0.489772
      5.98919      3.05222     11.64082        -0.147939     -0.057262      0.018792
      7.47195     13.00385     17.10781         0.162474      0.026727      0.122981
      9.36675      3.51616     14.28731         0.345146      0.043195     -0.054289
     14.41851     13.10458     16.66295        -0.043466      0.472546      0.101566
     13.30798     11.24494     17.45041         0.324559     -0.320957     -0.088810
      7.78374      5.24839     13.62313         0.096231      0.006369     -0.055545
      4.49867      6.56174     11.80309         0.147782      0.026605     -0.049368
      9.09242      7.76092     15.95692         0.175758      0.206822     -0.247376
     14.57556      2.46738     11.51914        -0.085665      0.042430      0.079309
      5.96367      2.21732     13.83989         0.106615     -0.030632     -0.250147
      4.17488     12.57196     11.83627        -0.216424     -0.095000     -0.115257
     13.81536      4.64274     12.26244        -0.027070     -0.048892      0.042018
     12.44031     11.01152     14.17116         0.054940     -0.047084      0.001442
     13.15112      9.84872     10.96148         0.221426      0.294662      0.265493
     12.00754     13.94988     10.92223         0.205324      0.226276     -0.105780
      5.49578      9.23026     13.44870         0.119590      0.239174      0.045721
      1.48738      1.90954     14.35598         0.049488      0.264881     -0.158158
     13.71462      9.23706     13.20802         0.068241      0.312951      0.221385
      0.49271     12.98616     12.71941         0.242013     -0.075585     -0.245706
     10.55725      3.00950     12.23296         0.027020     -0.017178     -0.063917
     13.83249      5.29855     14.53245         0.047702      0.189939     -0.187618
      8.59228     14.20884     15.38797         0.196293     -0.223874     -0.426745
      8.69363      8.45085     10.60086        -0.070884      0.180016     -0.068704
     13.57541     13.04020     14.49637        -0.438036      0.068906     -0.152284
     13.94265      2.01615     15.26758         0.087729     -0.112684      0.084079
      5.32627     11.02968     14.96928        -0.142396     -0.182690     -0.328105
      1.18545      8.13849     13.03959        -0.311377     -0.084119      0.321082
      4.59520      7.20049     14.08832        -0.309677      0.139036     -0.007995
      4.75203      3.85900     14.97459        -0.133130      0.091976     -0.162790
      8.79120     10.75189     13.76253        -0.037393     -0.125889     -0.100563
      1.21191      0.63071     12.41702         0.202316     -0.056577      0.094920
     10.94565      8.91775     11.30442        -0.116173     -0.250553     -0.151151
      8.91412      7.23961     13.71349         0.029949      0.017780     -0.137299
      2.02288      3.30537     10.26314        -0.315004      0.147618     -0.186638
      2.57726      5.09688     11.69469         0.283650     -0.234329      0.186738
      4.55450      0.38110     14.06834         0.006912     -0.159416      0.058084
      2.41804      7.47507     14.99555        -0.010818      0.005995     -0.172014
     12.50505      8.23711     16.34794         0.104795      0.008629      0.351453
      6.98510     10.72814     16.69195         0.268159     -0.329844      0.479699
     11.57739      5.00562     11.60993         0.105706     -0.091408      0.084825
      6.08211      5.77862     15.13220        -0.093504     -0.037950      0.035928
      0.67873      6.36780     11.61897        -0.226213      0.041739     -0.015806
      4.75300      3.17984     17.16280         0.139365      0.134472     -0.054164
      5.64863     12.91973     13.62649        -0.067357      0.088604      0.023978
      8.17291      6.20140     10.13214         0.028699      0.040663     -0.016300
      7.23387      6.77079     16.92629        -0.167568     -0.058032      0.228068
      6.08396      1.78859      9.71017        -0.263191     -0.053339      0.035304
      3.97888      2.09528     10.64387         0.287130      0.006634     -0.017734
      2.73395      2.14406     17.47619        -0.556309     -0.091294      0.547839
      9.15632     10.09430     15.95972        -0.105995     -0.054199      0.019195
      8.42582      4.73439     17.45205        -0.071348     -0.337787     -0.167939
     13.51914     12.24126     11.13173        -0.258146     -0.096409      0.418149
     10.74888     10.88780     12.54933         0.033815      0.171901     -0.013018
      7.06130      2.91619     17.11261         0.165177      0.047803      0.241788
     13.05010      3.87152     16.25290        -0.039037      0.150483      0.122743
      2.84694      0.56630     15.72007         0.372748     -0.308864     -0.129990
      5.87102      8.69108     17.43450        -0.296367      0.406401      0.031510
     10.57005      4.41026     16.24525        -0.392619     -0.232993     -0.131019
      6.57492      5.32538     11.59382        -0.242483     -0.076363      0.018621
      7.71541      8.98119     12.70109         0.044437     -0.038854     -0.013659
      2.09173     13.05858     16.33669         0.192516     -0.088519     -0.233751
      2.96109     11.15550     15.30451         0.031458     -0.003579      0.187212
      4.89246     10.99757     10.24613         0.033581     -0.329657      0.211367
      2.11909      9.26100     16.45156         0.144795     -0.192937     -0.238990
      2.35141     11.52237     12.97010         0.001561      0.342476     -0.025981
      0.92174      3.69879     16.93377        -0.000976     -0.053515     -0.127410
     12.38280      1.41385     12.01389        -0.083176      0.074897     -0.155573
     11.51447     10.35222     16.23924        -0.032582      0.164502      0.005409
 -----------------------------------------------------------------------------------
    total drift:                                0.018579     -0.003768      0.004770


--------------------------------------------------------------------------------------------------------



  FREE ENERGIE OF THE ION-ELECTRON SYSTEM (eV)
  ---------------------------------------------------
  free  energy   TOTEN  =      -801.46768747 eV

  energy  without entropy=     -801.23344888  energy(sigma->0) =     -801.35056817



--------------------------------------------------------------------------------------------------------


    POTLOK:  cpu time      3.6821: real time      3.6838


--------------------------------------------------------------------------------------------------------


     LOOP+:  cpu time   5619.5011: real time   5623.6085
    4ORBIT:  cpu time      0.0000: real time      0.0000



 total charge

# of ion       s       p       d       tot
------------------------------------------
    1        0.568   0.016   0.000   0.583
    2        0.571   0.016   0.000   0.587
    3        0.564   0.015   0.000   0.579
    4        0.573   0.016   0.000   0.589
    5        0.571   0.016   0.000   0.587
    6        0.550   0.016   0.000   0.566
    7        0.561   0.015   0.000   0.576
    8        0.565   0.016   0.000   0.581
    9        0.551   0.017   0.000   0.568
   10        0.768   0.910   0.000   1.678
   11        0.804   0.886   0.000   1.690
   12        0.761   0.945   0.000   1.706
   13        0.798   0.877   0.000   1.675
   14        0.763   0.925   0.000   1.688
   15        0.754   0.943   0.000   1.697
   16        0.754   0.923   0.000   1.677
   17        0.766   0.947   0.000   1.712
   18        0.760   0.934   0.000   1.694
   19        0.765   0.903   0.000   1.667
   20        0.775   0.895   0.000   1.670
   21        0.782   0.877   0.000   1.659
   22        0.867   0.731   0.000   1.598
   23        0.760   0.902   0.000   1.662
   24        0.750   0.938   0.000   1.688
   25        0.785   0.874   0.000   1.659
   26        0.764   0.859   0.000   1.623
   27        0.779   0.896   0.000   1.675
   28        0.789   0.879   0.000   1.667
   29        0.762   0.937   0.000   1.700
   30        0.759   0.874   0.000   1.633
   31        0.757   0.982   0.000   1.739
   32        0.757   0.851   0.000   1.608
   33        0.755   0.945   0.000   1.700
   34        0.755   0.928   0.000   1.683
   35        0.760   0.910   0.000   1.671
   36        0.765   0.913   0.000   1.678
   37        0.806   0.786   0.000   1.591
   38        0.772   0.913   0.000   1.685
   39        0.765   0.938   0.000   1.703
   40        0.764   0.900   0.000   1.664
   41        0.764   0.916   0.000   1.680
   42        0.757   0.928   0.000   1.684
   43        0.740   0.939   0.000   1.679
   44        0.763   0.918   0.000   1.681
   45        0.748   0.922   0.000   1.670
   46        0.741   0.948   0.000   1.688
   47        0.766   0.925   0.000   1.690
   48        0.788   0.876   0.000   1.663
   49        0.762   0.906   0.000   1.668
   50        0.766   0.932   0.000   1.698
   51        0.759   0.952   0.000   1.711
   52        0.761   0.946   0.000   1.707
   53        0.758   0.979   0.000   1.737
   54        0.760   0.942   0.000   1.702
   55        0.759   0.910   0.000   1.669
   56        0.760   0.970   0.000   1.730
   57        0.812   0.807   0.000   1.620
   58        0.755   0.911   0.000   1.666
   59        0.754   0.940   0.000   1.694
   60        0.752   0.918   0.000   1.670
   61        0.762   0.931   0.000   1.693
   62        0.763   0.892   0.000   1.656
   63        0.788   0.873   0.000   1.662
   64        0.760   0.943   0.000   1.704
   65        0.799   0.893   0.000   1.692
   66        0.787   0.889   0.000   1.676
   67        0.758   0.941   0.000   1.698
   68        0.785   0.892   0.000   1.677
   69        0.762   0.908   0.000   1.670
   70        0.731   1.006   0.000   1.737
   71        0.755   0.946   0.000   1.701
   72        0.806   0.823   0.000   1.629
   73        0.753   0.943   0.000   1.696
   74        0.790   0.824   0.000   1.614
   75        0.777   0.860   0.000   1.637
   76        0.755   0.960   0.000   1.715
   77        0.780   0.872   0.000   1.651
   78        0.788   0.845   0.000   1.632
   79        0.759   0.920   0.000   1.678
   80        0.874   0.693   0.000   1.566
   81        0.762   0.836   0.000   1.598
   82        0.746   0.927   0.000   1.673
   83        0.753   0.950   0.000   1.704
   84        0.777   0.896   0.000   1.673
   85        0.756   0.893   0.000   1.649
   86        0.786   0.876   0.000   1.662
   87        0.783   0.869   0.000   1.651
   88        0.761   0.908   0.000   1.669
   89        0.813   0.775   0.000   1.587
   90        0.757   0.873   0.000   1.630
   91        0.756   0.926   0.000   1.682
--------------------------------------------------
tot         68.197  74.131   0.000 142.328


 total amount of memory used by VASP MPI-rank0   350523. kBytes
=======================================================================

   base                                    :      30000. kBytes
   nonl-proj                               :      67935. kBytes
   fftplans                                :     108846. kBytes
   grid                                    :      83991. kBytes
   one-center                              :         18. kBytes
   wavefun                                 :      59733. kBytes

  
  
 General timing and accounting informations for this job:
 ========================================================
  
                  Total CPU time used (sec):     5763.441
                            User time (sec):     5117.045
                          System time (sec):      646.396
                         Elapsed time (sec):     5767.653
  
                   Maximum memory used (kb):      620424.
                   Average memory used (kb):          N/A
  
                          Minor page faults:      9343434
                          Major page faults:         1173
                 Voluntary context switches:         3520
