 vasp.6.5.0 16Dec24 (build Jan 20 2025 08:32:48) complex                         
 executed on        HPECrayEX_GCC date 2025.07.22  12:23:18
 running  128 mpi-ranks, with    1 threads/rank, on    1 nodes
 distrk:  each k-point on  128 cores,    1 groups
 distr:  one band on NCORE=  16 cores,    8 groups


--------------------------------------------------------------------------------------------------------


 INCAR:
   SYSTEM = a-Si SPC
   NCORE = 16
   ISTART = 1
   ICHARG = 1
   ISPIN = 1
   ISYM = 1
   EDIFF = 1E-6
   NELM = 150
   EDIFFG = -0.01
   NSW = 0
   ISIF = 2
   IBRION = -1
   PREC = Accurate
   ENCUT = 1200
   KSPACING = 0.23
   KGAMMA = .TRUE.
   METAGGA = SCAN
   LASPH = .TRUE.
   LDIAG = .FALSE.
   LMIXTAU = .TRUE.
   ADDGRID = .TRUE.
   ALGO = Normal
   ISMEAR = 0
   SIGMA = 0.1
   LORBIT = 11
   NEDOS = 2000
   LWAVE = .FALSE.
   LCHARG = .FALSE.

 POTCAR:    PAW_PBE H 15Jun2001                   
 POTCAR:    PAW_PBE Si 05Jan2001                  
 POTCAR:    PAW_PBE H 15Jun2001                   
   SHA256 =  030f79b5d3ab3cf0e668861823c8fb652ff669f3e15e46930bd03bfd63a607b6 H/POTCAR              
   COPYR  = (c) Copyright 15Jun2001 Georg Kresse                                                    
   COPYR  = This file is part of the software VASP. Any use, copying, and all other rights are regul
   COPYR  = If you do not have a valid VASP license, you may not use, copy or distribute this file. 
   VRHFIN =H: ultrasoft test                                                                        
   LEXCH  = PE                                                                                      
   EATOM  =    12.4884 eV,    0.9179 Ry                                                             
                                                                                                    
   TITEL  = PAW_PBE H 15Jun2001                                                                     
   LULTRA =        F    use ultrasoft PP ?                                                          
   IUNSCR =        0    unscreen: 0-lin 1-nonlin 2-no                                               
   RPACOR =    0.000    partial core radius                                                         
   POMASS =    1.000; ZVAL   =    1.000    mass and valenz                                          
   RCORE  =    1.100    outmost cutoff radius                                                       
   RWIGS  =    0.700; RWIGS  =    0.370    wigner-seitz radius (au A)                               
   ENMAX  =  250.000; ENMIN  =  200.000 eV                                                          
   RCLOC  =    0.701    cutoff for local pot                                                        
   LCOR   =        T    correct aug charges                                                         
   LPAW   =        T    paw PP                                                                      
   EAUG   =  400.000                                                                                
   RMAX   =    1.123    core radius for proj-oper                                                   
   RAUG   =    1.200    factor for augmentation sphere                                              
   RDEP   =    1.112    radius for radial grids                                                     
   RDEPT  =    0.926    core radius for aug-charge                                                  
                                                                                                    
   Atomic configuration                                                                             
    2 entries                                                                                       
     n  l   j            E        occ.                                                              
     1  0  0.50        -6.4927   1.0000                                                             
     2  1  0.50        -3.4015   0.0000                                                             
   Description                                                                                      
     l       E           TYP  RCUT    TYP  RCUT                                                     
     0     -6.4927494     23  1.100                                                                 
     0      6.8029130     23  1.100                                                                 
     1     -4.0817478     23  1.100                                                                 
  local pseudopotential read in
  atomic valenz-charges read in
  non local Contribution for L=           0  read in
    real space projection operators read in
  non local Contribution for L=           0  read in
    real space projection operators read in
  non local Contribution for L=           1  read in
    real space projection operators read in
    PAW grid and wavefunctions read in

   number of l-projection  operators is LMAX  =           3
   number of lm-projection operators is LMMAX =           5

 POTCAR:    PAW_PBE Si 05Jan2001                  
   SHA256 =  79d9987ad8750f624c4d6acb2a16d13abf6a777132adc04dc6c8399be72b42bb Si/POTCAR             
   COPYR  = (c) Copyright 05Jan2001 Georg Kresse                                                    
   COPYR  = This file is part of the software VASP. Any use, copying, and all other rights are regul
   COPYR  = If you do not have a valid VASP license, you may not use, copy or distribute this file. 
   VRHFIN =Si: s2p2                                                                                 
   LEXCH  = PE                                                                                      
   EATOM  =   103.0669 eV,    7.5752 Ry                                                             
                                                                                                    
   TITEL  = PAW_PBE Si 05Jan2001                                                                    
   LULTRA =        F    use ultrasoft PP ?                                                          
   IUNSCR =        1    unscreen: 0-lin 1-nonlin 2-no                                               
   RPACOR =    1.500    partial core radius                                                         
   POMASS =   28.085; ZVAL   =    4.000    mass and valenz                                          
   RCORE  =    1.900    outmost cutoff radius                                                       
   RWIGS  =    2.480; RWIGS  =    1.312    wigner-seitz radius (au A)                               
   ENMAX  =  245.345; ENMIN  =  184.009 eV                                                          
   ICORE  =        2    local potential                                                             
   LCOR   =        T    correct aug charges                                                         
   LPAW   =        T    paw PP                                                                      
   EAUG   =  322.069                                                                                
   DEXC   =    0.000                                                                                
   RMAX   =    1.950    core radius for proj-oper                                                   
   RAUG   =    1.300    factor for augmentation sphere                                              
   RDEP   =    1.993    radius for radial grids                                                     
   RDEPT  =    1.837    core radius for aug-charge                                                  
                                                                                                    
   Atomic configuration                                                                             
    6 entries                                                                                       
     n  l   j            E        occ.                                                              
     1  0  0.50     -1785.8828   2.0000                                                             
     2  0  0.50      -139.4969   2.0000                                                             
     2  1  1.50       -95.5546   6.0000                                                             
     3  0  0.50       -10.8127   2.0000                                                             
     3  1  0.50        -4.0811   2.0000                                                             
     3  2  1.50        -4.0817   0.0000                                                             
   Description                                                                                      
     l       E           TYP  RCUT    TYP  RCUT                                                     
     0    -10.8127223     23  1.900                                                                 
     0     -7.6451159     23  1.900                                                                 
     1     -4.0811372     23  1.900                                                                 
     1      2.4879257     23  1.900                                                                 
     2     -4.0817478      7  1.900                                                                 
  local pseudopotential read in
  partial core-charges read in
  partial kinetic energy density read in
  atomic valenz-charges read in
  non local Contribution for L=           0  read in
    real space projection operators read in
  non local Contribution for L=           0  read in
    real space projection operators read in
  non local Contribution for L=           1  read in
    real space projection operators read in
  non local Contribution for L=           1  read in
    real space projection operators read in
    PAW grid and wavefunctions read in

   number of l-projection  operators is LMAX  =           4
   number of lm-projection operators is LMMAX =           8

 -----------------------------------------------------------------------------
|                                                                             |
|               ----> ADVICE to this user running VASP <----                  |
|                                                                             |
|     You have a (more or less) 'large supercell' and for larger cells it     |
|     might be more efficient to use real-space projection operators.         |
|     Therefore, try LREAL= Auto in the INCAR file.                           |
|     Mind: For very accurate calculation, you might also keep the            |
|     reciprocal projection scheme (i.e. LREAL=.FALSE.).                      |
|                                                                             |
 -----------------------------------------------------------------------------

 -----------------------------------------------------------------------------
|                                                                             |
|               ----> ADVICE to this user running VASP <----                  |
|                                                                             |
|     You enforced a specific xc type in the INCAR file but a different       |
|     type was found in the POTCAR file.                                      |
|     I HOPE YOU KNOW WHAT YOU ARE DOING!                                     |
|                                                                             |
 -----------------------------------------------------------------------------

  PAW_PBE H 15Jun2001                   :
 energy of atom  1       EATOM=  -12.4884
 kinetic energy error for atom=    0.0000 (will be added to EATOM!!)
  PAW_PBE Si 05Jan2001                  :
 energy of atom  2       EATOM= -103.0669
 kinetic energy error for atom=    0.0001 (will be added to EATOM!!)


 POSCAR:  H Si
  positions in cartesian coordinates
  No initial velocities read in


 exchange-correlation table for SCAN
   RHO(1)=    0.500       N(1)  =     2000
   RHO(2)=  100.500       N(2)  =     4000



--------------------------------------------------------------------------------------------------------


 ion  position               nearest neighbor table
   1  0.356  0.348  0.112-   3 0.77
   2  0.312  0.443  0.926-  26 0.72
   3  0.379  0.314  0.163-   1 0.77
   4  0.211  0.362  0.482-  21 0.70
   5  0.144  0.348  0.016-  36 0.74
   6  0.529  0.289  0.975-  48 1.50
   7  0.494  0.056  0.708-  94 1.55
   8  0.352  0.124  0.123-  29 0.74
   9  0.280  0.115  0.910-  35 0.75
  10  0.050  0.639  0.222-  73 1.55
  11  0.188  0.308  0.654-  12 0.76
  12  0.222  0.305  0.714-  11 0.76
  13  0.473  0.456  0.989-  65 1.57
  14  0.355  0.223  0.411-  28 0.71
  15  0.160  0.231  0.308-  16 0.76
  16  0.125  0.201  0.272-  15 0.76
  17  0.069  0.360  0.259-  20 0.78
  18  0.307  0.068  0.514-  32 0.72
  19  0.069  0.182  0.491-  61 1.48
  20  0.096  0.372  0.192-  17 0.78
  21  0.219  0.392  0.427-   4 0.70
  22  0.399  0.984  0.920- 101 1.48
  23  0.383  0.310  0.642-  31 0.74
  24  0.162  0.529  0.013-  83 1.55
  25  0.112  0.195  0.827-  27 0.76
  26  0.284  0.437  0.987-   2 0.72
  27  0.109  0.148  0.794-  25 0.76
  28  0.350  0.268  0.385-  14 0.71
  29  0.403  0.128  0.127-   8 0.74
  30  0.053  0.201  0.090-  42 1.48
  31  0.355  0.281  0.595-  23 0.74
  32  0.308  0.104  0.566-  18 0.72
  33  0.459  0.090  0.327-  58 1.53
  34  0.202  0.019  0.135- 104 1.53
  35  0.302  0.107  0.841-   9 0.75
  36  0.191  0.342  0.989-   5 0.74
  37  0.987  0.685  0.756-  66 2.31  98 2.36 102 2.44  90 2.52
  38  0.830  0.270  0.080-  41 2.31  89 2.33  42 2.34  54 2.37  39 3.08
  39  0.748  0.194  0.350-  71 2.36  69 2.41  55 2.45  56 2.45  89 2.69  51 3.01  38 3.08
  40  0.480  0.625  0.348-  63 2.26  76 2.32  72 2.33  80 2.35
  41  0.807  0.399  0.216-  38 2.31  88 2.34  71 2.34  81 2.53
  42  0.956  0.171  0.075-  30 1.48  38 2.34  59 2.44  55 2.51
  43  0.607  0.624  0.032-  80 2.26  65 2.28  44 2.30  62 2.45
  44  0.735  0.605  0.897-  43 2.30  87 2.31  46 2.33  79 2.48  90 3.13
  45  0.515  0.581  0.700-  72 2.26  65 2.33  60 2.35  78 2.48
  46  0.767  0.750  0.807-  90 2.22  44 2.33  70 2.37 107 2.40
  47  0.942  0.887  0.024-  90 2.26 106 2.29  77 2.38  59 2.61
  48  0.615  0.293  0.060-   6 1.50  89 2.28  81 2.38  54 2.47
  49  0.689  0.994  0.738-  94 2.25  97 2.30  68 2.40 107 2.42
  50  0.238  0.779  0.697-  75 2.35 102 2.35  64 2.41  84 2.45
  51  0.799  0.994  0.330- 106 2.27  68 2.38  56 2.41  55 2.46  39 3.01
  52  0.466  0.882  0.384- 103 2.28  58 2.36  76 2.39  82 2.58
  53  0.350  0.648  0.970-  64 2.33  83 2.34  65 2.38  63 2.41
  54  0.740  0.333  0.899-  74 2.30  87 2.36  38 2.37  48 2.47  89 3.02
  55  0.901  0.128  0.312-  61 2.41  39 2.45  51 2.46  42 2.51
  56  0.658  0.066  0.256-  58 2.27  89 2.36  51 2.41  39 2.45
  57  0.887  0.292  0.612-  74 2.34  86 2.35  71 2.37  61 2.40
  58  0.535  0.029  0.388-  33 1.53  56 2.27  94 2.33  52 2.36
  59  0.931  0.049  0.908-  97 2.39  42 2.44  96 2.48  47 2.61
  60  0.647  0.501  0.626-  87 2.34  45 2.35  67 2.37  92 2.38
  61  0.972  0.162  0.530-  19 1.48  96 2.37  57 2.40  55 2.41
  62  0.601  0.791  0.060- 107 2.37 103 2.38  95 2.44  43 2.45
  63  0.377  0.692  0.207-  40 2.26 103 2.39  91 2.40  53 2.41
  64  0.375  0.779  0.837-  53 2.33 101 2.35  50 2.41  78 2.45
  65  0.483  0.556  0.932-  13 1.57  43 2.28  45 2.33  53 2.38
  66  0.917  0.707  0.544-  70 2.26  93 2.29  37 2.31  99 2.36
  67  0.703  0.583  0.432- 100 2.28  93 2.34  80 2.36  60 2.37
  68  0.807  0.963  0.572-  70 2.37  51 2.38  49 2.40  96 2.51
  69  0.650  0.201  0.550-  94 2.33  39 2.41  74 2.43  92 2.54  71 3.02
  70  0.796  0.801  0.579-  66 2.26 100 2.29  46 2.37  68 2.37
  71  0.783  0.340  0.438-  41 2.34  39 2.36  57 2.37  92 2.42  81 2.91  86 2.93  69 3.02
  72  0.408  0.555  0.536-  45 2.26  40 2.33  84 2.50
  73  0.103  0.731  0.231-  10 1.55  77 2.31  91 2.40  99 2.43
  74  0.764  0.225  0.730-  54 2.30  57 2.34  97 2.42  69 2.43
  75  0.218  0.912  0.563-  50 2.35  82 2.35 105 2.42
  76  0.528  0.746  0.485- 100 2.22  78 2.26  40 2.32  52 2.39
  77  0.096  0.837  0.054-  73 2.31 104 2.33 102 2.37  47 2.38
  78  0.522  0.751  0.719-  76 2.26  64 2.45  45 2.48 107 2.53
  79  0.816  0.654  0.110-  88 2.30  90 2.38  95 2.47  44 2.48
  80  0.607  0.555  0.242-  43 2.26  40 2.35  67 2.36  81 2.40
  81  0.635  0.393  0.253-  92 2.31  48 2.38  80 2.40  41 2.53  71 2.91
  82  0.291  0.870  0.355-  75 2.35  91 2.36 104 2.39  52 2.58 103 3.12
  83  0.201  0.602  0.911-  24 1.55 102 2.30  53 2.34  85 2.35
  84  0.258  0.636  0.568-  91 2.40  85 2.41  50 2.45  72 2.50
  85  0.170  0.527  0.701-  98 2.24  83 2.35  84 2.41
  86  0.897  0.452  0.622-  57 2.35  98 2.39  87 2.44  93 2.52  71 2.93
  87  0.767  0.471  0.779-  44 2.31  60 2.34  54 2.36  86 2.44
  88  0.892  0.535  0.215-  79 2.30  93 2.33  41 2.34
  89  0.707  0.168  0.082-  48 2.28  38 2.33  56 2.36  97 2.48  39 2.69  54 3.02
  90  0.889  0.751  0.945-  46 2.22  47 2.26  79 2.38  37 2.52  44 3.13
  91  0.246  0.715  0.351-  82 2.36  84 2.40  63 2.40  73 2.40
  92  0.623  0.368  0.488-  81 2.31  60 2.38  71 2.42  69 2.54
  93  0.864  0.574  0.444-  66 2.29  88 2.33  67 2.34  86 2.52
  94  0.579  0.064  0.612-   7 1.55  49 2.25  69 2.33  58 2.33
  95  0.733  0.783  0.216- 106 2.41  62 2.44  79 2.47 100 2.52
  96  0.958  0.024  0.658- 105 2.35  61 2.37  59 2.48  68 2.51
  97  0.774  0.091  0.877-  49 2.30  59 2.39  74 2.42  89 2.48
  98  0.019  0.527  0.742-  85 2.24  37 2.36  86 2.39
  99  0.989  0.802  0.381-  66 2.36  73 2.43 106 2.45 105 2.49
 100  0.678  0.737  0.453-  76 2.22  67 2.28  70 2.29  95 2.52
 101  0.363  0.902  0.993-  22 1.48  64 2.35 103 2.35 104 2.51
 102  0.128  0.739  0.865-  83 2.30  50 2.35  77 2.37  37 2.44
 103  0.457  0.832  0.160-  52 2.28 101 2.35  62 2.38  63 2.39  82 3.12
 104  0.223  0.916  0.141-  34 1.53  77 2.33  82 2.39 101 2.51
 105  0.052  0.913  0.554-  96 2.35  75 2.42  99 2.49
 106  0.872  0.872  0.234-  51 2.27  47 2.29  95 2.41  99 2.45
 107  0.639  0.851  0.840-  62 2.37  46 2.40  49 2.42  78 2.53

  LATTYP: Found a simple tetragonal cell.
 ALAT       =    14.5676482755
 C/A-ratio  =     0.6646411743
  
  Lattice vectors:
  
 A1 = (  14.5676482755,   0.0000000000,   0.0000000000)
 A2 = (   0.0000000000,  14.5676482755,   0.0000000000)
 A3 = (   0.0000000000,   0.0000000000,   9.6822588565)


Analysis of symmetry for initial positions (statically):
=====================================================================
 Subroutine PRICEL returns:
 Original cell was already a primitive cell.
 

 Routine SETGRP: Setting up the symmetry group for a 
 simple tetragonal supercell.


 Subroutine GETGRP returns: Found  1 space group operations
 (whereof  1 operations were pure point group operations)
 out of a pool of 16 trial point group operations.


The static configuration has the point symmetry C_1 .


Analysis of symmetry for dynamics (positions and initial velocities):
=====================================================================
 Subroutine PRICEL returns:
 Original cell was already a primitive cell.
 

 Routine SETGRP: Setting up the symmetry group for a 
 simple tetragonal supercell.


 Subroutine GETGRP returns: Found  1 space group operations
 (whereof  1 operations were pure point group operations)
 out of a pool of 16 trial point group operations.


The dynamic configuration has the point symmetry C_1 .


 Subroutine INISYM returns: Found  1 space group operations
 (whereof  1 operations are pure point group operations),
 and found     1 'primitive' translations


----------------------------------------------------------------------------------------

                                     Primitive cell                                     

  volume of cell :    2054.7339

  direct lattice vectors                    reciprocal lattice vectors
    14.567648276  0.000000000  0.000000000     0.068645260  0.000000000  0.000000000
     0.000000000 14.567648276  0.000000000     0.000000000  0.068645260  0.000000000
     0.000000000  0.000000000  9.682258856     0.000000000  0.000000000  0.103281684

  length of vectors
    14.567648276 14.567648276  9.682258856     0.068645260  0.068645260  0.103281684

  position of ions in fractional coordinates (direct lattice)
     0.356432960  0.347743157  0.111887114
     0.312043503  0.442775655  0.926076253
     0.378769441  0.313984105  0.163169569
     0.210950316  0.361805138  0.482135426
     0.143901058  0.347514568  0.015838659
     0.528656366  0.288699996  0.975235236
     0.494065333  0.056280532  0.707921581
     0.352393873  0.124443559  0.122672820
     0.279749341  0.114934131  0.910176037
     0.049806529  0.639012545  0.222055621
     0.187963077  0.307779946  0.654326650
     0.221518253  0.305372557  0.714317816
     0.472868363  0.455525139  0.989029538
     0.355277661  0.223237817  0.410973313
     0.159867259  0.230640522  0.308455913
     0.125155411  0.200532711  0.272005742
     0.068735185  0.360355350  0.258837327
     0.307458686  0.068366835  0.513952382
     0.068661048  0.181947007  0.491116801
     0.096220747  0.372346304  0.191630902
     0.219123907  0.392009739  0.426933432
     0.398700593  0.983617927  0.919719265
     0.383047414  0.309691717  0.642089836
     0.161645858  0.529178070  0.012852373
     0.112031810  0.194815934  0.826550924
     0.283977889  0.437049267  0.986590024
     0.109183031  0.147684785  0.794349760
     0.350094257  0.268247827  0.384651976
     0.402652500  0.128426357  0.127041635
     0.053007320  0.200756494  0.090053573
     0.354722320  0.281203934  0.594630869
     0.308046290  0.103731225  0.565783262
     0.458776178  0.089639726  0.327385381
     0.202259139  0.018941492  0.135044933
     0.301677382  0.107370797  0.841068197
     0.190899035  0.342430014  0.988857057
     0.987317907  0.685245814  0.755970286
     0.829921191  0.270323660  0.080466244
     0.748281383  0.193684660  0.349995807
     0.480022572  0.624575074  0.348358792
     0.806822061  0.398893486  0.215549907
     0.956406946  0.171023487  0.075431675
     0.607001888  0.624241458  0.032328510
     0.734916151  0.604833384  0.896841339
     0.515383805  0.581172736  0.699768525
     0.767302985  0.749908276  0.806929469
     0.941936525  0.887308628  0.023536966
     0.614636613  0.293391213  0.060075857
     0.689088576  0.994196162  0.738071570
     0.238061074  0.779480654  0.697463278
     0.798893533  0.993942174  0.330459043
     0.466320292  0.882283795  0.383537566
     0.349582850  0.647976930  0.970413014
     0.740373449  0.332879399  0.898913170
     0.900673860  0.127770108  0.312211235
     0.658365703  0.066175335  0.255712023
     0.887322357  0.291701853  0.611517425
     0.534948391  0.029068247  0.387602734
     0.930562006  0.048803416  0.907683850
     0.646512726  0.501124125  0.625611243
     0.972415021  0.161684299  0.530418581
     0.600919231  0.790992464  0.060412659
     0.377417816  0.692163883  0.206664584
     0.375445638  0.778656911  0.836681824
     0.482624228  0.556259312  0.932279351
     0.916949651  0.706572523  0.544052796
     0.703476622  0.583279459  0.432425952
     0.807117235  0.963086130  0.571596988
     0.650039033  0.200743452  0.550131956
     0.795886871  0.800740091  0.578686243
     0.783407163  0.340381639  0.437733597
     0.407890134  0.555374474  0.536218880
     0.102545035  0.730852352  0.231460451
     0.764248271  0.224610722  0.729534306
     0.218098346  0.912055244  0.563057658
     0.527707689  0.746290671  0.485327863
     0.096123957  0.837101485  0.054050920
     0.521521378  0.750574135  0.718937606
     0.816260784  0.653725284  0.109653131
     0.607063668  0.554991434  0.241699797
     0.635262455  0.392841033  0.253030831
     0.290849279  0.870476810  0.355455277
     0.200873878  0.601771805  0.911090080
     0.257663415  0.636064231  0.568011048
     0.170490113  0.526759011  0.700772423
     0.897385752  0.452283023  0.622196751
     0.767158830  0.471010136  0.778765587
     0.892223628  0.534804922  0.215249358
     0.707046176  0.168273558  0.081793930
     0.888592294  0.751473388  0.945426076
     0.245744538  0.714706987  0.351382880
     0.623205601  0.367668130  0.487833477
     0.863646607  0.574275260  0.444427283
     0.579146328  0.063855880  0.612420106
     0.732822471  0.783015885  0.215770930
     0.958013245  0.023515189  0.658194549
     0.773508516  0.090697549  0.876579538
     0.019267763  0.526926506  0.742480666
     0.989425316  0.802490545  0.381045379
     0.678423162  0.737366787  0.452999663
     0.363294741  0.901765319  0.992746645
     0.128281516  0.738808337  0.865182405
     0.457379247  0.832213942  0.160456359
     0.222820454  0.916036669  0.141204653
     0.051899180  0.912618135  0.553814981
     0.871575134  0.872014464  0.234241827
     0.638757871  0.850789349  0.839764782

  ion indices of the primitive-cell ions
   primitive index   ion index
                 1           1
                 2           2
                 3           3
                 4           4
                 5           5
                 6           6
                 7           7
                 8           8
                 9           9
                10          10
                11          11
                12          12
                13          13
                14          14
                15          15
                16          16
                17          17
                18          18
                19          19
                20          20
                21          21
                22          22
                23          23
                24          24
                25          25
                26          26
                27          27
                28          28
                29          29
                30          30
                31          31
                32          32
                33          33
                34          34
                35          35
                36          36
                37          37
                38          38
                39          39
                40          40
                41          41
                42          42
                43          43
                44          44
                45          45
                46          46
                47          47
                48          48
                49          49
                50          50
                51          51
                52          52
                53          53
                54          54
                55          55
                56          56
                57          57
                58          58
                59          59
                60          60
                61          61
                62          62
                63          63
                64          64
                65          65
                66          66
                67          67
                68          68
                69          69
                70          70
                71          71
                72          72
                73          73
                74          74
                75          75
                76          76
                77          77
                78          78
                79          79
                80          80
                81          81
                82          82
                83          83
                84          84
                85          85
                86          86
                87          87
                88          88
                89          89
                90          90
                91          91
                92          92
                93          93
                94          94
                95          95
                96          96
                97          97
                98          98
                99          99
               100         100
               101         101
               102         102
               103         103
               104         104
               105         105
               106         106
               107         107

----------------------------------------------------------------------------------------


 -----------------------------------------------------------------------------
|                                                                             |
|           W    W    AA    RRRRR   N    N  II  N    N   GGGG   !!!           |
|           W    W   A  A   R    R  NN   N  II  NN   N  G    G  !!!           |
|           W    W  A    A  R    R  N N  N  II  N N  N  G       !!!           |
|           W WW W  AAAAAA  RRRRR   N  N N  II  N  N N  G  GGG   !            |
|           WW  WW  A    A  R   R   N   NN  II  N   NN  G    G                |
|           W    W  A    A  R    R  N    N  II  N    N   GGGG   !!!           |
|                                                                             |
|     The requested file  could not be found or opened for reading            |
|     k-point information. Automatic k-point generation is used as a          |
|     fallback, which may lead to unwanted results.                           |
|                                                                             |
 -----------------------------------------------------------------------------



Automatic generation of k-mesh.
 Grid dimensions derived from KSPACING:
 generate k-points for:    2    2    3

 Generating k-lattice:

  Cartesian coordinates                     Fractional coordinates (reciprocal lattice)
     0.034322630  0.000000000  0.000000000     0.500000000  0.000000000  0.000000000
     0.000000000  0.034322630  0.000000000     0.000000000  0.500000000  0.000000000
     0.000000000  0.000000000  0.034427228     0.000000000  0.000000000  0.333333333

  Length of vectors
     0.034322630  0.034322630  0.034427228

  Shift w.r.t. Gamma in fractional coordinates (k-lattice)
     0.000000000  0.000000000  0.000000000

 
 Subroutine IBZKPT returns following result:
 ===========================================
 
 Found      8 irreducible k-points:
 
 Following reciprocal coordinates:
            Coordinates               Weight
  0.000000  0.000000  0.000000      1.000000
  0.500000  0.000000  0.000000      1.000000
  0.000000  0.500000  0.000000      1.000000
  0.500000  0.500000  0.000000      1.000000
  0.000000  0.000000  0.333333      2.000000
  0.500000  0.000000  0.333333      2.000000
  0.000000  0.500000  0.333333      2.000000
  0.500000  0.500000  0.333333      2.000000
 
 Following cartesian coordinates:
            Coordinates               Weight
  0.000000  0.000000  0.000000      1.000000
  0.034323  0.000000  0.000000      1.000000
  0.000000  0.034323  0.000000      1.000000
  0.034323  0.034323  0.000000      1.000000
  0.000000  0.000000  0.034427      2.000000
  0.034323  0.000000  0.034427      2.000000
  0.000000  0.034323  0.034427      2.000000
  0.034323  0.034323  0.034427      2.000000
 


--------------------------------------------------------------------------------------------------------




 Dimension of arrays:
   k-points           NKPTS =      8   k-points in BZ     NKDIM =      8   number of bands    NBANDS=    216
   number of dos      NEDOS =   2000   number of ions     NIONS =    107
   non local maximal  LDIM  =      4   non local SUM 2l+1 LMDIM =      8
   total plane-waves  NPLWV = ******
   max r-space proj   IRMAX =      1   max aug-charges    IRDMAX= 411653
   dimension x,y,z NGX =   168 NGY =  168 NGZ =  112
   dimension x,y,z NGXF=   336 NGYF=  336 NGZF=  224
   support grid    NGXF=   672 NGYF=  672 NGZF=  448
   ions per type =              36  71
   NGX,Y,Z   is equivalent  to a cutoff of  19.17, 19.17, 19.23 a.u.
   NGXF,Y,Z  is equivalent  to a cutoff of  38.34, 38.34, 38.46 a.u.

 SYSTEM =  a-Si SPC                                
 POSCAR =   H Si                                   

 Startparameter for this run:
   NWRITE =      2    write-flag & timer
   PREC   = accura    normal or accurate (medium, high low for compatibility)
   ISTART =      1    job   : 0-new  1-cont  2-samecut
   ICHARG =      1    charge: 1-file 2-atom 10-const
   ISPIN  =      1    spin polarized calculation?
   LNONCOLLINEAR =      F non collinear calculations
   LSORBIT =      F    spin-orbit coupling
   INIWAV =      1    electr: 0-lowe 1-rand  2-diag
   LASPH  =      T    aspherical Exc in radial PAW
 Electronic Relaxation 1
   ENCUT  = 1200.0 eV  88.20 Ry    9.39 a.u.  41.15 41.15 27.35*2*pi/ulx,y,z
   ENINI  = 1200.0     initial cutoff
   ENAUG  =  400.0 eV  augmentation charge cutoff
   NELM   =    150;   NELMIN=  2; NELMDL=  0     # of ELM steps 
   EDIFF  = 0.1E-05   stopping-criterion for ELM
   LREAL  =      F    real-space projection
   NLSPLINE    = F    spline interpolate recip. space projectors
   LCOMPAT=      F    compatible to vasp.4.4
   GGA_COMPAT  = T    GGA compatible to vasp.4.4-vasp.4.6
   LMAXPAW     = -100 max onsite density
   LMAXMIX     =    2 max onsite mixed and CHGCAR
   VOSKOWN=      0    Vosko Wilk Nusair interpolation
   ROPT   =    0.00000   0.00000
 Ionic relaxation
   EDIFFG = -.1E-01   stopping-criterion for IOM
   NSW    =      0    number of steps for IOM
   NBLOCK =      1;   KBLOCK =      1    inner block; outer block 
   IBRION =     -1    ionic relax: 0-MD 1-quasi-New 2-CG
   NFREE  =      0    steps in history (QN), initial steepest desc. (CG)
   ISIF   =      2    stress and relaxation
   IWAVPR =     10    prediction:  0-non 1-charg 2-wave 3-comb
   ISYM   =      1    0-nonsym 1-usesym 2-fastsym
   LCORR  =      T    Harris-Foulkes like correction to forces

   POTIM  = 0.5000    time-step for ionic-motion
   TEIN   =    0.0    initial temperature
   TEBEG  =    0.0;   TEEND  =   0.0 temperature during run
   SMASS  =  -3.00    Nose mass-parameter (am)
   estimated Nose-frequenzy (Omega)   =  0.10E-29 period in steps = 0.13E+47 mass=  -0.485E-26a.u.
   SCALEE = 1.0000    scale energy and forces
   NPACO  =    256;   APACO  = 10.0  distance and # of slots for P.C.
   PSTRESS=    0.0 pullay stress

  Mass of Ions in am
   POMASS =   1.00 28.09
  Ionic Valenz
   ZVAL   =   1.00  4.00
  Atomic Wigner-Seitz radii
   RWIGS  =  -1.00 -1.00
  virtual crystal weights 
   VCA    =   1.00  1.00
   NELECT =     320.0000    total number of electrons
   NUPDOWN=      -1.0000    fix difference up-down

 DOS related values:
   EMIN   =  10.00;   EMAX   =-10.00  energy-range for DOS
   EFERMI =   0.00;   METHOD = LEGACY      
   ISMEAR =     0;   SIGMA  =   0.10  broadening in eV -4-tet -1-fermi 0-gaus
   EFERMI_NEDOS =   21; number of points for ismear=-14 and -15

 Electronic relaxation 2 (details)
   IALGO  =     38    algorithm
   LDIAG  =      F    sub-space diagonalisation (order eigenvalues)
   LSUBROT=      F    optimize rotation matrix (better conditioning)
   TURBO    =      0    0=normal 1=particle mesh
   IRESTART =      0    0=no restart 2=restart with 2 vectors
   NREBOOT  =      0    no. of reboots
   NMIN     =      0    reboot dimension
   EREF     =   0.00    reference energy to select bands
   IMIX   =      4    mixing-type and parameters
     AMIX     =   0.40;   BMIX     =  1.00
     AMIX_MAG =   1.60;   BMIX_MAG =  1.00
     AMIN     =   0.10
     WC   =   100.;   INIMIX=   1;  MIXPRE=   1;  MAXMIX= -45

 Intra band minimization:
   WEIMIN = 0.0000     energy-eigenvalue tresh-hold
   EBREAK =  0.12E-08  absolut break condition
   DEPER  =   0.30     relativ break condition  

   TIME   =   0.40     timestep for ELM

  volume/ion in A,a.u.               =      19.20       129.59
  Fermi-wavevector in a.u.,A,eV,Ry     =   0.880791  1.664454 10.555306  0.775793
  Thomas-Fermi vector in A             =   2.001199

 Write flags
   LWAVE        =      F    write WAVECAR
   LDOWNSAMPLE  =      F    k-point downsampling of WAVECAR
   LCHARG       =      F    write CHGCAR
   LVTOT        =      F    write LOCPOT, total local potential
   LVHAR        =      F    write LOCPOT, Hartree potential only
   WRT_POTENTIAL= false  ! write potential to hdf5 file
   LELF         =      F    write electronic localiz. function (ELF)
   LORBIT       =     11    0 simple, 1 ext, 2 COOP (PROOUT), +10 PAW based schemes


 Python interface
   PLUGINS active      =      F    recompile with -DPLUGINS to activate

 Dipole corrections
   LMONO      =      F    monopole corrections only (constant potential shift)
   LDIPOL     =      F    correct potential (dipole corrections)
   IDIPOL     =      0    1-x, 2-y, 3-z, 4-all directions 
   EPSILON    =  1.0000000 bulk dielectric constant
   LVACPOTAV  =      F  vacuum potentials using an averaging scheme for the charge density
   VACPOTFLAT =  0.1000000 required flatness to determine vacuum potential

Coulomb truncation method
  LTRUNCATE          =      F  Coulomb kernel truncation to be used
  IDIMENSIONALITY    =      3  Dimensionality of cutoff (0 molecules / 2 surfaces)
  ISURFACE           =     -1  Direction of surface normal
  LCOARSEN           =      F  Coarsen the charge grid before padding, preferred


 Exchange correlation treatment:
   METAGGA = SCAN    functional components
   XC_C    = 1    coefficients multiplying the functional components
   LIBXC   =     F    Libxc                    
   VOSKOWN =     0    Vosko Wilk Nusair interpolation
   LHFCALC =     F    Hartree Fock is set to
   LHFONE  =     F    Hartree Fock one center treatment
   AEXX    =    0.0000 exact exchange contribution

 Parameters of functionals:
   SCAN:
     P1 =  0.000000E+00
     P2 =  0.000000E+00
     P3 =  0.000000E+00

 Accuracy and mixing parameters for tau-dependent meta-GGA functionals:
   LMAXTAU = 6
   LMIXTAU = T

 Van der Waals corrections
   IVDW    =     0    specifies the selected vdW correction

 Linear response parameters
   LEPSILON=     F    determine dielectric tensor
   LRPA    =     F    only Hartree local field effects (RPA)
   LNABLA  =     F    use nabla operator in PAW spheres
   LVEL    =     F    velocity operator in full k-point grid
   CSHIFT  =0.1000    complex shift for real part using Kramers Kronig
   OMEGAMAX=  -1.0    maximum frequency
   DEG_THRESHOLD= 0.2000000E-02 threshold for treating states as degnerate
   RTIME   =   -0.100 relaxation time in fs
  (WPLASMAI=    0.000 imaginary part of plasma frequency in eV, 0.658/RTIME)
   DFIELD  = 0.0000000 0.0000000 0.0000000 field for delta impulse in time

  Optional k-point grid parameters
   LKPOINTS_OPT  =     F    use optional k-point grid
   KPOINTS_OPT_MODE=     1    mode for optional k-point grid

 Orbital magnetization related:
   ORBITALMAG=     F  switch on orbital magnetization
   LCHIMAG   =     F  perturbation theory with respect to B field
   DQ        =  0.001000  dq finite difference perturbation B field
   LLRAUG    =     F  two centre corrections for induced B field
   LBONE     =     F  B-component reconstruction in AE one-centre
   LVGVCALC  =     T  calculate vGv susceptibility
   LVGVAPPL  =     F  apply vGv susceptibility instead of pGv for G=0

 Random number generation:
   RANDOM_GENERATOR = DEFAULT
   PCG_SEED         = not used


--------------------------------------------------------------------------------------------------------


 Static calculation
 charge density and potential will be updated during run
 non-spin polarized calculation
 Variant of blocked Davidson
 perform Loewdin sub-space diagonalisation
    ordering is kept fixed
    before iterative eigenvector-optimisation
 modified Broyden-mixing scheme, WC =      100.0
 initial mixing is a Kerker type mixing with AMIX =  0.4000 and BMIX =      1.0000
 Hartree-type preconditioning will be used
 using additional bands           56
 reciprocal scheme for non local part
 use partial core corrections
 calculate Harris-corrections to forces   (improved forces if not selfconsistent)
 use gradient corrections 
 use of overlap-Matrix (Vanderbilt PP)
 Gauss-broadening in eV      SIGMA  =   0.10


--------------------------------------------------------------------------------------------------------


  energy-cutoff  :     1200.00
  volume of cell :     2054.73
      direct lattice vectors                 reciprocal lattice vectors
    14.567648276  0.000000000  0.000000000     0.068645260  0.000000000  0.000000000
     0.000000000 14.567648276  0.000000000     0.000000000  0.068645260  0.000000000
     0.000000000  0.000000000  9.682258856     0.000000000  0.000000000  0.103281684

  length of vectors
    14.567648276 14.567648276  9.682258856     0.068645260  0.068645260  0.103281684



 old parameters found on file WAVECAR:
  energy-cutoff  :     1200.00
  volume of cell :     2054.73
      direct lattice vectors                 reciprocal lattice vectors
    14.567648276  0.000000000  0.000000000     0.068645260  0.000000000  0.000000000
     0.000000000 14.567648276  0.000000000     0.000000000  0.068645260  0.000000000
     0.000000000  0.000000000  9.682258856     0.000000000  0.000000000  0.103281684

  length of vectors


 k-points in units of 2pi/SCALE and weight: read from INCAR                         
   0.00000000  0.00000000  0.00000000       0.083
   0.03432263  0.00000000  0.00000000       0.083
   0.00000000  0.03432263  0.00000000       0.083
   0.03432263  0.03432263  0.00000000       0.083
   0.00000000  0.00000000  0.03442723       0.167
   0.03432263  0.00000000  0.03442723       0.167
   0.00000000  0.03432263  0.03442723       0.167
   0.03432263  0.03432263  0.03442723       0.167

 k-points in reciprocal lattice and weights: read from INCAR                         
   0.00000000  0.00000000  0.00000000       0.083
   0.50000000  0.00000000  0.00000000       0.083
   0.00000000  0.50000000  0.00000000       0.083
   0.50000000  0.50000000  0.00000000       0.083
   0.00000000  0.00000000  0.33333333       0.167
   0.50000000  0.00000000  0.33333333       0.167
   0.00000000  0.50000000  0.33333333       0.167
   0.50000000  0.50000000  0.33333333       0.167

 position of ions in fractional coordinates (direct lattice) 
   0.35643296  0.34774316  0.11188711
   0.31204350  0.44277565  0.92607625
   0.37876944  0.31398410  0.16316957
   0.21095032  0.36180514  0.48213543
   0.14390106  0.34751457  0.01583866
   0.52865637  0.28870000  0.97523524
   0.49406533  0.05628053  0.70792158
   0.35239387  0.12444356  0.12267282
   0.27974934  0.11493413  0.91017604
   0.04980653  0.63901255  0.22205562
   0.18796308  0.30777995  0.65432665
   0.22151825  0.30537256  0.71431782
   0.47286836  0.45552514  0.98902954
   0.35527766  0.22323782  0.41097331
   0.15986726  0.23064052  0.30845591
   0.12515541  0.20053271  0.27200574
   0.06873519  0.36035535  0.25883733
   0.30745869  0.06836683  0.51395238
   0.06866105  0.18194701  0.49111680
   0.09622075  0.37234630  0.19163090
   0.21912391  0.39200974  0.42693343
   0.39870059  0.98361793  0.91971927
   0.38304741  0.30969172  0.64208984
   0.16164586  0.52917807  0.01285237
   0.11203181  0.19481593  0.82655092
   0.28397789  0.43704927  0.98659002
   0.10918303  0.14768478  0.79434976
   0.35009426  0.26824783  0.38465198
   0.40265250  0.12842636  0.12704164
   0.05300732  0.20075649  0.09005357
   0.35472232  0.28120393  0.59463087
   0.30804629  0.10373122  0.56578326
   0.45877618  0.08963973  0.32738538
   0.20225914  0.01894149  0.13504493
   0.30167738  0.10737080  0.84106820
   0.19089904  0.34243001  0.98885706
   0.98731791  0.68524581  0.75597029
   0.82992119  0.27032366  0.08046624
   0.74828138  0.19368466  0.34999581
   0.48002257  0.62457507  0.34835879
   0.80682206  0.39889349  0.21554991
   0.95640695  0.17102349  0.07543167
   0.60700189  0.62424146  0.03232851
   0.73491615  0.60483338  0.89684134
   0.51538381  0.58117274  0.69976853
   0.76730298  0.74990828  0.80692947
   0.94193653  0.88730863  0.02353697
   0.61463661  0.29339121  0.06007586
   0.68908858  0.99419616  0.73807157
   0.23806107  0.77948065  0.69746328
   0.79889353  0.99394217  0.33045904
   0.46632029  0.88228379  0.38353757
   0.34958285  0.64797693  0.97041301
   0.74037345  0.33287940  0.89891317
   0.90067386  0.12777011  0.31221124
   0.65836570  0.06617533  0.25571202
   0.88732236  0.29170185  0.61151742
   0.53494839  0.02906825  0.38760273
   0.93056201  0.04880342  0.90768385
   0.64651273  0.50112413  0.62561124
   0.97241502  0.16168430  0.53041858
   0.60091923  0.79099246  0.06041266
   0.37741782  0.69216388  0.20666458
   0.37544564  0.77865691  0.83668182
   0.48262423  0.55625931  0.93227935
   0.91694965  0.70657252  0.54405280
   0.70347662  0.58327946  0.43242595
   0.80711724  0.96308613  0.57159699
   0.65003903  0.20074345  0.55013196
   0.79588687  0.80074009  0.57868624
   0.78340716  0.34038164  0.43773360
   0.40789013  0.55537447  0.53621888
   0.10254503  0.73085235  0.23146045
   0.76424827  0.22461072  0.72953431
   0.21809835  0.91205524  0.56305766
   0.52770769  0.74629067  0.48532786
   0.09612396  0.83710148  0.05405092
   0.52152138  0.75057413  0.71893761
   0.81626078  0.65372528  0.10965313
   0.60706367  0.55499143  0.24169980
   0.63526245  0.39284103  0.25303083
   0.29084928  0.87047681  0.35545528
   0.20087388  0.60177181  0.91109008
   0.25766341  0.63606423  0.56801105
   0.17049011  0.52675901  0.70077242
   0.89738575  0.45228302  0.62219675
   0.76715883  0.47101014  0.77876559
   0.89222363  0.53480492  0.21524936
   0.70704618  0.16827356  0.08179393
   0.88859229  0.75147339  0.94542608
   0.24574454  0.71470699  0.35138288
   0.62320560  0.36766813  0.48783348
   0.86364661  0.57427526  0.44442728
   0.57914633  0.06385588  0.61242011
   0.73282247  0.78301588  0.21577093
   0.95801325  0.02351519  0.65819455
   0.77350852  0.09069755  0.87657954
   0.01926776  0.52692651  0.74248067
   0.98942532  0.80249054  0.38104538
   0.67842316  0.73736679  0.45299966
   0.36329474  0.90176532  0.99274665
   0.12828152  0.73880834  0.86518240
   0.45737925  0.83221394  0.16045636
   0.22282045  0.91603667  0.14120465
   0.05189918  0.91261813  0.55381498
   0.87157513  0.87201446  0.23424183
   0.63875787  0.85078935  0.83976478

 position of ions in cartesian coordinates  (Angst):
   5.19239000  5.06580000  1.08332000
   4.54574000  6.45020000  8.96651000
   5.51778000  4.57401000  1.57985000
   3.07305000  5.27065000  4.66816000
   2.09630000  5.06247000  0.15335400
   7.70128000  4.20568000  9.44248000
   7.19737000  0.81987500  6.85428000
   5.13355000  1.81285000  1.18775000
   4.07529000  1.67432000  8.81256000
   0.72556400  9.30891000  2.15000000
   2.73818000  4.48363000  6.33536000
   3.22700000  4.44856000  6.91621000
   6.88858000  6.63593000  9.57604000
   5.17556000  3.25205000  3.97915000
   2.32889000  3.35989000  2.98655000
   1.82322000  2.92129000  2.63363000
   1.00131000  5.24953000  2.50613000
   4.47895000  0.99594400  4.97622000
   1.00023000  2.65054000  4.75512000
   1.40171000  5.42421000  1.85542000
   3.19212000  5.71066000  4.13368000
   5.80813000 14.32900000  8.90496000
   5.58010000  4.51148000  6.21688000
   2.35480000  7.70888000  0.12444000
   1.63204000  2.83801000  8.00288000
   4.13689000  6.36678000  9.55242000
   1.59054000  2.15142000  7.69110000
   5.10005000  3.90774000  3.72430000
   5.86570000  1.87087000  1.23005000
   0.77219200  2.92455000  0.87192200
   5.16747000  4.09648000  5.75737000
   4.48751000  1.51112000  5.47806000
   6.68329000  1.30584000  3.16983000
   2.94644000  0.27593300  1.30754000
   4.39473000  1.56414000  8.14344000
   2.78095000  4.98840000  9.57437000
  14.38290000  9.98242000  7.31950000
  12.09000000  3.93798000  0.77909500
  10.90070000  2.82153000  3.38875000
   6.99280000  9.09859000  3.37290000
  11.75350000  5.81094000  2.08701000
  13.93260000  2.49141000  0.73034900
   8.84259000  9.09373000  0.31301300
  10.70600000  8.81100000  8.68345000
   7.50793000  8.46632000  6.77534000
  11.17780000 10.92440000  7.81290000
  13.72180000 12.92600000  0.22789100
   8.95381000  4.27402000  0.58167000
  10.03840000 14.48310000  7.14620000
   3.46799000 11.35520000  6.75302000
  11.63800000 14.47940000  3.19959000
   6.79319000 12.85280000  3.71351000
   5.09260000  9.43950000  9.39579000
  10.78550000  4.84927000  8.70351000
  13.12070000  1.86131000  3.02291000
   9.59084000  0.96401900  2.47587000
  12.92620000  4.24941000  5.92087000
   7.79294000  0.42345600  3.75287000
  13.55610000  0.71095100  8.78843000
   9.41817000  7.30020000  6.05733000
  14.16580000  2.35536000  5.13565000
   8.75398000 11.52290000  0.58493100
   5.49809000 10.08320000  2.00098000
   5.46936000 11.34320000  8.10097000
   7.03070000  8.10339000  9.02657000
  13.35780000 10.29310000  5.26766000
  10.24800000  8.49701000  4.18686000
  11.75780000 14.02990000  5.53435000
   9.46954000  2.92436000  5.32652000
  11.59420000 11.66490000  5.60299000
  11.41240000  4.95856000  4.23825000
   5.94200000  8.09050000  5.19181000
   1.49384000 10.64680000  2.24106000
  11.13330000  3.27205000  7.06354000
   3.17718000 13.28650000  5.45167000
   7.68746000 10.87170000  4.69907000
   1.40030000 12.19460000  0.52333500
   7.59734000 10.93410000  6.96094000
  11.89100000  9.52324000  1.06169000
   8.84349000  8.08492000  2.34020000
   9.25428000  5.72277000  2.44991000
   4.23699000 12.68080000  3.44161000
   2.92626000  8.76640000  8.82141000
   3.75355000  9.26596000  5.49963000
   2.48364000  7.67364000  6.78506000
  13.07280000  6.58870000  6.02427000
  11.17570000  6.86151000  7.54021000
  12.99760000  7.79085000  2.08410000
  10.30000000  2.45135000  0.79195000
  12.94470000 10.94720000  9.15386000
   3.57992000 10.41160000  3.40218000
   9.07864000  5.35606000  4.72333000
  12.58130000  8.36584000  4.30306000
   8.43680000  0.93023000  5.92961000
  10.67550000 11.40670000  2.08915000
  13.95600000  0.34256100  6.37281000
  11.26820000  1.32125000  8.48727000
   0.28068600  7.67608000  7.18889000
  14.41360000 11.69040000  3.68938000
   9.88303000 10.74170000  4.38606000
   5.29235000 13.13660000  9.61203000
   1.86876000 10.76270000  8.37692000
   6.66294000 12.12340000  1.55358000
   3.24597000 13.34450000  1.36718000
   0.75604900 13.29470000  5.36218000
  12.69680000 12.70320000  2.26799000
   9.30520000 12.39400000  8.13082000



--------------------------------------------------------------------------------------------------------


 k-point     1 :   0.0000 0.0000 0.0000  plane waves:  193887
 k-point     2 :   0.5000 0.0000 0.0000  plane waves:  194026
 k-point     3 :   0.0000 0.5000 0.0000  plane waves:  194026
 k-point     4 :   0.5000 0.5000 0.0000  plane waves:  194052
 k-point     5 :   0.0000 0.0000 0.3333  plane waves:  193987
 k-point     6 :   0.5000 0.0000 0.3333  plane waves:  193898
 k-point     7 :   0.0000 0.5000 0.3333  plane waves:  193898
 k-point     8 :   0.5000 0.5000 0.3333  plane waves:  193916

 maximum and minimum number of plane-waves per node :     12192    12060

 maximum number of plane-waves:    194052
 maximum index in each direction: 
   IXMAX=   41   IYMAX=   41   IZMAX=   27
   IXMIN=  -41   IYMIN=  -41   IZMIN=  -27


 parallel 3D FFT for wavefunctions:
    minimum data exchange during FFTs selected (reduces bandwidth)
 parallel 3D FFT for charge:
    minimum data exchange during FFTs selected (reduces bandwidth)


 total amount of memory used by VASP MPI-rank0   173170. kBytes
=======================================================================

   base                                    :      30000. kBytes
   nonl-proj                               :      33247. kBytes
   fftplans                                :      38234. kBytes
   grid                                    :      29478. kBytes
   one-center                              :         21. kBytes
   wavefun                                 :      42190. kBytes

     INWAV:  cpu time      7.4926: real time      7.4962
 Broyden mixing: mesh for mixing (old mesh)
   NGX = 83   NGY = 83   NGZ = 55
  (NGX  =336   NGY  =336   NGZ  =224)
  gives a total of 378895 points

 initial charge density was supplied:
 number of electron     319.9999999 magnetization 
 keeping initial charge density in first step


--------------------------------------------------------------------------------------------------------


 Maximum index for augmentation-charges        11474 (set IRDMAX)


--------------------------------------------------------------------------------------------------------


 First call to EWALD:  gamma=   0.139
 Maximum number of real-space cells   2x   2x   3
 Maximum number of reciprocal cells   3x   3x   2

    FEWALD:  cpu time      0.0180: real time      0.0180


--------------------------------------- Ionic step        1  -------------------------------------------




--------------------------------------- Iteration      1(   1)  ---------------------------------------


    POTLOK:  cpu time      0.6778: real time      0.6783
    SETDIJ:  cpu time      1.3831: real time      1.3843
    EDDIAG:  cpu time     17.0807: real time     17.0945
     EDDAV:  cpu time     84.0558: real time     84.1339
       DOS:  cpu time      0.0087: real time      0.0091
    CHARGE:  cpu time      7.5466: real time      7.5533
    MIXING:  cpu time      0.0232: real time      0.0235
    --------------------------------------------
      LOOP:  cpu time    110.7761: real time    110.8770

 eigenvalue-minimisations  :  3752
 total energy-change (2. order) :-0.8605022E+03  (-0.9220409E+00)
 number of electron     319.9999999 magnetization 
 augmentation part      -15.1418061 magnetization 

 Broyden mixing:
  rms(total) = 0.10832E+01    rms(broyden)= 0.47196E+02
  rms(prec ) = 0.11877E+01
  weight for this iteration     100.00
  WARNING: grid for Broyden might be to small

 Free energy of the ion-electron system (eV)
  ---------------------------------------------------
  alpha Z        PSCENC =       106.71514873
  Ewald energy   TEWEN  =     -4883.66502301
  -Hartree energ DENC   =     -3490.52861512
  -exchange      EXHF   =         0.00000000
  -V(xc)+E(xc)   XCENC  =      -232.04738967
  PAW double counting   =     27943.33998896   -27236.21157961
  entropy T*S    EENTRO =        -0.13011362
  eigenvalues    EBANDS =      -835.30098055
  atomic energy  EATOM  =      7767.32637530
  Solvation  Ediel_sol  =         0.00000000
  ---------------------------------------------------
  free energy    TOTEN  =      -860.50218859 eV

  energy without entropy =     -860.37207497  energy(sigma->0) =     -860.43713178


--------------------------------------------------------------------------------------------------------




--------------------------------------- Iteration      1(   2)  ---------------------------------------


    POTLOK:  cpu time      0.6589: real time      0.6762
    SETDIJ:  cpu time      1.3714: real time      1.3719
    EDDIAG:  cpu time     17.2214: real time     17.2346
     EDDAV:  cpu time     81.4118: real time     81.4824
       DOS:  cpu time      0.0041: real time      0.0041
    CHARGE:  cpu time      7.6060: real time      7.6115
    MIXING:  cpu time      0.0151: real time      0.0152
    --------------------------------------------
      LOOP:  cpu time    108.2886: real time    108.3960

 eigenvalue-minimisations  :  3536
 total energy-change (2. order) : 0.5683295E+02  (-0.8989198E+00)
 number of electron     319.9999999 magnetization 
 augmentation part      -15.0748931 magnetization 

 Broyden mixing:
  rms(total) = 0.72316E+00    rms(broyden)= 0.27016E+02
  rms(prec ) = 0.77529E+00
  weight for this iteration     100.00
  WARNING: grid for Broyden might be to small

 eigenvalues of (default mixing * dielectric matrix)
  average eigenvalue GAMMA=   0.6360
  0.6360

 Free energy of the ion-electron system (eV)
  ---------------------------------------------------
  alpha Z        PSCENC =       106.71514873
  Ewald energy   TEWEN  =     -4883.66502301
  -Hartree energ DENC   =     -3480.05713987
  -exchange      EXHF   =         0.00000000
  -V(xc)+E(xc)   XCENC  =      -225.94816525
  PAW double counting   =     33427.23696439   -32719.89509712
  entropy T*S    EENTRO =        -0.12757481
  eigenvalues    EBANDS =      -795.25473115
  atomic energy  EATOM  =      7767.32637530
  Solvation  Ediel_sol  =         0.00000000
  ---------------------------------------------------
  free energy    TOTEN  =      -803.66924279 eV

  energy without entropy =     -803.54166798  energy(sigma->0) =     -803.60545539


--------------------------------------------------------------------------------------------------------




--------------------------------------- Iteration      1(   3)  ---------------------------------------


    POTLOK:  cpu time      0.6596: real time      0.6773
    SETDIJ:  cpu time      1.3730: real time      1.3736
    EDDIAG:  cpu time     17.1113: real time     17.1271
     EDDAV:  cpu time     80.2640: real time     80.3324
       DOS:  cpu time      0.0054: real time      0.0054
    CHARGE:  cpu time      7.7068: real time      7.7129
    MIXING:  cpu time      0.0132: real time      0.0132
    --------------------------------------------
      LOOP:  cpu time    107.1333: real time    107.2419

 eigenvalue-minimisations  :  3456
 total energy-change (2. order) :-0.2113024E+01  (-0.6665373E+00)
 number of electron     319.9999999 magnetization 
 augmentation part      -15.0319115 magnetization 

 Broyden mixing:
  rms(total) = 0.43619E+00    rms(broyden)= 0.18187E+02
  rms(prec ) = 0.47683E+00
  weight for this iteration     100.00
  WARNING: grid for Broyden might be to small

 eigenvalues of (default mixing * dielectric matrix)
  average eigenvalue GAMMA=   0.6989
  0.7743  0.6234

 Free energy of the ion-electron system (eV)
  ---------------------------------------------------
  alpha Z        PSCENC =       106.71514873
  Ewald energy   TEWEN  =     -4883.66502301
  -Hartree energ DENC   =     -3483.36007169
  -exchange      EXHF   =         0.00000000
  -V(xc)+E(xc)   XCENC  =      -229.29209343
  PAW double counting   =     37702.03517789   -36994.76080628
  entropy T*S    EENTRO =        -0.13122708
  eigenvalues    EBANDS =      -790.64974765
  atomic energy  EATOM  =      7767.32637530
  Solvation  Ediel_sol  =         0.00000000
  ---------------------------------------------------
  free energy    TOTEN  =      -805.78226722 eV

  energy without entropy =     -805.65104014  energy(sigma->0) =     -805.71665368


--------------------------------------------------------------------------------------------------------




--------------------------------------- Iteration      1(   4)  ---------------------------------------


    POTLOK:  cpu time      0.6616: real time      0.6768
    SETDIJ:  cpu time      1.3688: real time      1.3702
    EDDIAG:  cpu time     17.2259: real time     17.2404
     EDDAV:  cpu time     85.0708: real time     85.1451
       DOS:  cpu time      0.0040: real time      0.0040
    CHARGE:  cpu time      7.8956: real time      7.9015
    MIXING:  cpu time      0.0135: real time      0.0135
    --------------------------------------------
      LOOP:  cpu time    112.2401: real time    112.3514

 eigenvalue-minimisations  :  3824
 total energy-change (2. order) :-0.2071114E+00  (-0.6581247E-01)
 number of electron     319.9999999 magnetization 
 augmentation part      -15.0241665 magnetization 

 Broyden mixing:
  rms(total) = 0.48207E-01    rms(broyden)= 0.19629E+01
  rms(prec ) = 0.83889E-01
  weight for this iteration     100.00
  WARNING: grid for Broyden might be to small

 eigenvalues of (default mixing * dielectric matrix)
  average eigenvalue GAMMA=   1.0151
  1.7332  0.6909  0.6213

 Free energy of the ion-electron system (eV)
  ---------------------------------------------------
  alpha Z        PSCENC =       106.71514873
  Ewald energy   TEWEN  =     -4883.66502301
  -Hartree energ DENC   =     -3488.63488588
  -exchange      EXHF   =         0.00000000
  -V(xc)+E(xc)   XCENC  =      -229.18164171
  PAW double counting   =     44473.58806137   -43766.37086950
  entropy T*S    EENTRO =        -0.12476024
  eigenvalues    EBANDS =      -785.64178369
  atomic energy  EATOM  =      7767.32637530
  Solvation  Ediel_sol  =         0.00000000
  ---------------------------------------------------
  free energy    TOTEN  =      -805.98937863 eV

  energy without entropy =     -805.86461839  energy(sigma->0) =     -805.92699851


--------------------------------------------------------------------------------------------------------




--------------------------------------- Iteration      1(   5)  ---------------------------------------


    POTLOK:  cpu time      0.6610: real time      0.6788
    SETDIJ:  cpu time      1.3750: real time      1.3755
    EDDIAG:  cpu time     17.1357: real time     17.1503
     EDDAV:  cpu time     90.3189: real time     90.3946
       DOS:  cpu time      0.0048: real time      0.0048
    CHARGE:  cpu time      7.6386: real time      7.6446
    MIXING:  cpu time      0.0135: real time      0.0136
    --------------------------------------------
      LOOP:  cpu time    117.1475: real time    117.2621

 eigenvalue-minimisations  :  4232
 total energy-change (2. order) :-0.3016757E-01  (-0.5815118E-02)
 number of electron     319.9999999 magnetization 
 augmentation part      -15.0270613 magnetization 

 Broyden mixing:
  rms(total) = 0.48238E-01    rms(broyden)= 0.64498E+00
  rms(prec ) = 0.86599E-01
  weight for this iteration     100.00
  WARNING: grid for Broyden might be to small

 eigenvalues of (default mixing * dielectric matrix)
  average eigenvalue GAMMA=   1.1415
  2.4566  0.8682  0.6206  0.6206

 Free energy of the ion-electron system (eV)
  ---------------------------------------------------
  alpha Z        PSCENC =       106.71514873
  Ewald energy   TEWEN  =     -4883.66502301
  -Hartree energ DENC   =     -3489.16779415
  -exchange      EXHF   =         0.00000000
  -V(xc)+E(xc)   XCENC  =      -230.06212052
  PAW double counting   =     44361.27314384   -43654.03965795
  entropy T*S    EENTRO =        -0.13549888
  eigenvalues    EBANDS =      -784.26411956
  atomic energy  EATOM  =      7767.32637530
  Solvation  Ediel_sol  =         0.00000000
  ---------------------------------------------------
  free energy    TOTEN  =      -806.01954620 eV

  energy without entropy =     -805.88404732  energy(sigma->0) =     -805.95179676


--------------------------------------------------------------------------------------------------------




--------------------------------------- Iteration      1(   6)  ---------------------------------------


    POTLOK:  cpu time      0.6608: real time      0.6811
    SETDIJ:  cpu time      1.3723: real time      1.3727
    EDDIAG:  cpu time     17.1549: real time     17.1682
     EDDAV:  cpu time     85.5495: real time     85.6252
       DOS:  cpu time      0.0042: real time      0.0042
    CHARGE:  cpu time      7.6501: real time      7.6565
    MIXING:  cpu time      0.0138: real time      0.0138
    --------------------------------------------
      LOOP:  cpu time    112.4056: real time    112.5217

 eigenvalue-minimisations  :  3880
 total energy-change (2. order) : 0.3784892E-02  (-0.2070731E-02)
 number of electron     319.9999999 magnetization 
 augmentation part      -15.0269381 magnetization 

 Broyden mixing:
  rms(total) = 0.18890E-01    rms(broyden)= 0.20765E+00
  rms(prec ) = 0.21853E-01
  weight for this iteration     100.00
  WARNING: grid for Broyden might be to small

 eigenvalues of (default mixing * dielectric matrix)
  average eigenvalue GAMMA=   1.0535
  2.5828  0.9734  0.6463  0.6274  0.4374

 Free energy of the ion-electron system (eV)
  ---------------------------------------------------
  alpha Z        PSCENC =       106.71514873
  Ewald energy   TEWEN  =     -4883.66502301
  -Hartree energ DENC   =     -3489.18134997
  -exchange      EXHF   =         0.00000000
  -V(xc)+E(xc)   XCENC  =      -230.32471193
  PAW double counting   =     44263.28979283   -43556.04897924
  entropy T*S    EENTRO =        -0.13051714
  eigenvalues    EBANDS =      -783.99649689
  atomic energy  EATOM  =      7767.32637530
  Solvation  Ediel_sol  =         0.00000000
  ---------------------------------------------------
  free energy    TOTEN  =      -806.01576131 eV

  energy without entropy =     -805.88524417  energy(sigma->0) =     -805.95050274


--------------------------------------------------------------------------------------------------------




--------------------------------------- Iteration      1(   7)  ---------------------------------------


    POTLOK:  cpu time      0.6583: real time      0.6763
    SETDIJ:  cpu time      1.3759: real time      1.3769
    EDDIAG:  cpu time     17.1295: real time     17.1439
     EDDAV:  cpu time     85.2062: real time     85.2779
       DOS:  cpu time      0.0054: real time      0.0054
    CHARGE:  cpu time      7.8099: real time      7.8165
    MIXING:  cpu time      0.0152: real time      0.0152
    --------------------------------------------
      LOOP:  cpu time    112.2004: real time    112.3121

 eigenvalue-minimisations  :  3824
 total energy-change (2. order) :-0.1093540E-02  (-0.6056069E-03)
 number of electron     319.9999999 magnetization 
 augmentation part      -15.0255529 magnetization 

 Broyden mixing:
  rms(total) = 0.10209E-01    rms(broyden)= 0.16604E+00
  rms(prec ) = 0.13093E-01
  weight for this iteration     100.00
  WARNING: grid for Broyden might be to small

 eigenvalues of (default mixing * dielectric matrix)
  average eigenvalue GAMMA=   1.0423
  2.5521  1.1475  0.8763  0.4156  0.6312  0.6312

 Free energy of the ion-electron system (eV)
  ---------------------------------------------------
  alpha Z        PSCENC =       106.71514873
  Ewald energy   TEWEN  =     -4883.66502301
  -Hartree energ DENC   =     -3489.55729233
  -exchange      EXHF   =         0.00000000
  -V(xc)+E(xc)   XCENC  =      -230.27197420
  PAW double counting   =     44228.42288863   -43521.17148506
  entropy T*S    EENTRO =        -0.13057161
  eigenvalues    EBANDS =      -783.68492130
  atomic energy  EATOM  =      7767.32637530
  Solvation  Ediel_sol  =         0.00000000
  ---------------------------------------------------
  free energy    TOTEN  =      -806.01685485 eV

  energy without entropy =     -805.88628324  energy(sigma->0) =     -805.95156904


--------------------------------------------------------------------------------------------------------




--------------------------------------- Iteration      1(   8)  ---------------------------------------


    POTLOK:  cpu time      0.7110: real time      0.7277
    SETDIJ:  cpu time      1.3756: real time      1.3760
    EDDIAG:  cpu time     17.2625: real time     17.2773
     EDDAV:  cpu time     87.9029: real time     87.9820
       DOS:  cpu time      0.0041: real time      0.0041
    CHARGE:  cpu time      7.7229: real time      7.7302
    MIXING:  cpu time      0.0144: real time      0.0144
    --------------------------------------------
      LOOP:  cpu time    114.9935: real time    115.1118

 eigenvalue-minimisations  :  4024
 total energy-change (2. order) :-0.5349653E-03  (-0.1439985E-03)
 number of electron     319.9999999 magnetization 
 augmentation part      -15.0244617 magnetization 

 Broyden mixing:
  rms(total) = 0.37372E-02    rms(broyden)= 0.45876E-01
  rms(prec ) = 0.58770E-02
  weight for this iteration     100.00
  WARNING: grid for Broyden might be to small

 eigenvalues of (default mixing * dielectric matrix)
  average eigenvalue GAMMA=   1.0368
  2.5540  1.4449  0.9368  0.4398  0.6482  0.6482  0.5856

 Free energy of the ion-electron system (eV)
  ---------------------------------------------------
  alpha Z        PSCENC =       106.71514873
  Ewald energy   TEWEN  =     -4883.66502301
  -Hartree energ DENC   =     -3489.93427417
  -exchange      EXHF   =         0.00000000
  -V(xc)+E(xc)   XCENC  =      -230.19865993
  PAW double counting   =     44238.28523068   -43531.02524039
  entropy T*S    EENTRO =        -0.13013285
  eigenvalues    EBANDS =      -783.39081416
  atomic energy  EATOM  =      7767.32637530
  Solvation  Ediel_sol  =         0.00000000
  ---------------------------------------------------
  free energy    TOTEN  =      -806.01738981 eV

  energy without entropy =     -805.88725696  energy(sigma->0) =     -805.95232339


--------------------------------------------------------------------------------------------------------




--------------------------------------- Iteration      1(   9)  ---------------------------------------


    POTLOK:  cpu time      0.6616: real time      0.6774
    SETDIJ:  cpu time      1.3730: real time      1.3735
    EDDIAG:  cpu time     17.2290: real time     17.2449
     EDDAV:  cpu time     88.1045: real time     88.1831
       DOS:  cpu time      0.0034: real time      0.0034
    CHARGE:  cpu time      7.6402: real time      7.6469
    MIXING:  cpu time      0.0144: real time      0.0144
    --------------------------------------------
      LOOP:  cpu time    115.0262: real time    115.1437

 eigenvalue-minimisations  :  4040
 total energy-change (2. order) :-0.3389161E-04  (-0.1935693E-04)
 number of electron     319.9999999 magnetization 
 augmentation part      -15.0247628 magnetization 

 Broyden mixing:
  rms(total) = 0.25871E-02    rms(broyden)= 0.27360E-01
  rms(prec ) = 0.41526E-02
  weight for this iteration     100.00
  WARNING: grid for Broyden might be to small

 eigenvalues of (default mixing * dielectric matrix)
  average eigenvalue GAMMA=   1.1253
  2.4836  2.4836  1.0035  0.8199  0.4173  0.6454  0.6277  0.5212

 Free energy of the ion-electron system (eV)
  ---------------------------------------------------
  alpha Z        PSCENC =       106.71514873
  Ewald energy   TEWEN  =     -4883.66502301
  -Hartree energ DENC   =     -3489.94525046
  -exchange      EXHF   =         0.00000000
  -V(xc)+E(xc)   XCENC  =      -230.22422819
  PAW double counting   =     44253.83800613   -43546.57640993
  entropy T*S    EENTRO =        -0.13055836
  eigenvalues    EBANDS =      -783.35548391
  atomic energy  EATOM  =      7767.32637530
  Solvation  Ediel_sol  =         0.00000000
  ---------------------------------------------------
  free energy    TOTEN  =      -806.01742370 eV

  energy without entropy =     -805.88686534  energy(sigma->0) =     -805.95214452


--------------------------------------------------------------------------------------------------------




--------------------------------------- Iteration      1(  10)  ---------------------------------------


    POTLOK:  cpu time      0.6585: real time      0.6770
    SETDIJ:  cpu time      1.3731: real time      1.3736
    EDDIAG:  cpu time     17.1478: real time     17.1628
     EDDAV:  cpu time     85.1063: real time     85.1759
       DOS:  cpu time      0.0034: real time      0.0034
    CHARGE:  cpu time      7.7300: real time      7.7363
    MIXING:  cpu time      0.0141: real time      0.0146
    --------------------------------------------
      LOOP:  cpu time    112.0331: real time    112.1434

 eigenvalue-minimisations  :  3816
 total energy-change (2. order) :-0.5734611E-05  (-0.8135519E-05)
 number of electron     319.9999999 magnetization 
 augmentation part      -15.0247658 magnetization 

 Broyden mixing:
  rms(total) = 0.13859E-02    rms(broyden)= 0.21518E-01
  rms(prec ) = 0.19483E-02
  weight for this iteration     100.00
  WARNING: grid for Broyden might be to small

 eigenvalues of (default mixing * dielectric matrix)
  average eigenvalue GAMMA=   1.1046
  2.6020  2.6020  0.9715  0.9715  0.6882  0.6253  0.6253  0.4645  0.3910

 Free energy of the ion-electron system (eV)
  ---------------------------------------------------
  alpha Z        PSCENC =       106.71514873
  Ewald energy   TEWEN  =     -4883.66502301
  -Hartree energ DENC   =     -3489.95486439
  -exchange      EXHF   =         0.00000000
  -V(xc)+E(xc)   XCENC  =      -230.22759907
  PAW double counting   =     44259.41414852   -43552.15119979
  entropy T*S    EENTRO =        -0.13052766
  eigenvalues    EBANDS =      -783.34388807
  atomic energy  EATOM  =      7767.32637530
  Solvation  Ediel_sol  =         0.00000000
  ---------------------------------------------------
  free energy    TOTEN  =      -806.01742944 eV

  energy without entropy =     -805.88690177  energy(sigma->0) =     -805.95216561


--------------------------------------------------------------------------------------------------------




--------------------------------------- Iteration      1(  11)  ---------------------------------------


    POTLOK:  cpu time      0.6610: real time      0.6787
    SETDIJ:  cpu time      1.3729: real time      1.3740
    EDDIAG:  cpu time     17.1575: real time     17.1730
     EDDAV:  cpu time     85.0678: real time     85.1415
       DOS:  cpu time      0.0032: real time      0.0032
    CHARGE:  cpu time      7.7389: real time      7.7457
    MIXING:  cpu time      0.0148: real time      0.0148
    --------------------------------------------
      LOOP:  cpu time    112.0160: real time    112.1309

 eigenvalue-minimisations  :  3824
 total energy-change (2. order) :-0.9969568E-05  (-0.2646066E-05)
 number of electron     319.9999999 magnetization 
 augmentation part      -15.0247467 magnetization 

 Broyden mixing:
  rms(total) = 0.71286E-03    rms(broyden)= 0.55821E-02
  rms(prec ) = 0.94837E-03
  weight for this iteration     100.00
  WARNING: grid for Broyden might be to small

 eigenvalues of (default mixing * dielectric matrix)
  average eigenvalue GAMMA=   1.1119
  2.6831  2.6831  1.0900  1.0900  0.8724  0.6488  0.6290  0.5623  0.4001  0.4597

 Free energy of the ion-electron system (eV)
  ---------------------------------------------------
  alpha Z        PSCENC =       106.71514873
  Ewald energy   TEWEN  =     -4883.66502301
  -Hartree energ DENC   =     -3489.96280922
  -exchange      EXHF   =         0.00000000
  -V(xc)+E(xc)   XCENC  =      -230.22778698
  PAW double counting   =     44255.58726320   -43548.32319171
  entropy T*S    EENTRO =        -0.13045662
  eigenvalues    EBANDS =      -783.33695911
  atomic energy  EATOM  =      7767.32637530
  Solvation  Ediel_sol  =         0.00000000
  ---------------------------------------------------
  free energy    TOTEN  =      -806.01743941 eV

  energy without entropy =     -805.88698279  energy(sigma->0) =     -805.95221110


--------------------------------------------------------------------------------------------------------




--------------------------------------- Iteration      1(  12)  ---------------------------------------


    POTLOK:  cpu time      0.6608: real time      0.6779
    SETDIJ:  cpu time      1.3733: real time      1.3745
    EDDIAG:  cpu time     17.2054: real time     17.2202
     EDDAV:  cpu time     88.2994: real time     88.3770
       DOS:  cpu time      0.0043: real time      0.0043
    CHARGE:  cpu time      7.8226: real time      7.8287
    MIXING:  cpu time      0.0151: real time      0.0151
    --------------------------------------------
      LOOP:  cpu time    115.3809: real time    115.4977

 eigenvalue-minimisations  :  4064
 total energy-change (2. order) :-0.6002701E-05  (-0.7935024E-06)
 number of electron     319.9999999 magnetization 
 augmentation part      -15.0247880 magnetization 

 Broyden mixing:
  rms(total) = 0.31921E-03    rms(broyden)= 0.26161E-02
  rms(prec ) = 0.40123E-03
  weight for this iteration     100.00
  WARNING: grid for Broyden might be to small

 eigenvalues of (default mixing * dielectric matrix)
  average eigenvalue GAMMA=   1.1290
  2.9457  2.6546  1.5687  1.0483  0.9298  0.6968  0.6284  0.6111  0.5251  0.4219
  0.3883

 Free energy of the ion-electron system (eV)
  ---------------------------------------------------
  alpha Z        PSCENC =       106.71514873
  Ewald energy   TEWEN  =     -4883.66502301
  -Hartree energ DENC   =     -3489.95491273
  -exchange      EXHF   =         0.00000000
  -V(xc)+E(xc)   XCENC  =      -230.23183172
  PAW double counting   =     44252.69446993   -43545.42966971
  entropy T*S    EENTRO =        -0.13045696
  eigenvalues    EBANDS =      -783.34154525
  atomic energy  EATOM  =      7767.32637530
  Solvation  Ediel_sol  =         0.00000000
  ---------------------------------------------------
  free energy    TOTEN  =      -806.01744541 eV

  energy without entropy =     -805.88698845  energy(sigma->0) =     -805.95221693


--------------------------------------------------------------------------------------------------------




--------------------------------------- Iteration      1(  13)  ---------------------------------------


    POTLOK:  cpu time      0.6784: real time      0.6793
    SETDIJ:  cpu time      1.3742: real time      1.3748
    EDDIAG:  cpu time     17.1497: real time     17.1639
     EDDAV:  cpu time     70.9522: real time     71.0131
       DOS:  cpu time      0.0029: real time      0.0030
    CHARGE:  cpu time      7.9308: real time      7.9372
    MIXING:  cpu time      0.0152: real time      0.0152
    --------------------------------------------
      LOOP:  cpu time     98.1035: real time     98.1865

 eigenvalue-minimisations  :  2752
 total energy-change (2. order) :-0.2041430E-05  (-0.2563649E-06)
 number of electron     319.9999999 magnetization 
 augmentation part      -15.0248119 magnetization 

 Broyden mixing:
  rms(total) = 0.14634E-03    rms(broyden)= 0.14882E-02
  rms(prec ) = 0.18759E-03
  weight for this iteration     100.00
  WARNING: grid for Broyden might be to small

 eigenvalues of (default mixing * dielectric matrix)
  average eigenvalue GAMMA=   1.1478
  3.1337  2.6462  1.8210  1.0990  1.0039  0.8548  0.6594  0.6292  0.6210  0.5057
  0.4179  0.3814

 Free energy of the ion-electron system (eV)
  ---------------------------------------------------
  alpha Z        PSCENC =       106.71514873
  Ewald energy   TEWEN  =     -4883.66502301
  -Hartree energ DENC   =     -3489.94803974
  -exchange      EXHF   =         0.00000000
  -V(xc)+E(xc)   XCENC  =      -230.23496477
  PAW double counting   =     44251.96011850   -43544.69512718
  entropy T*S    EENTRO =        -0.13045427
  eigenvalues    EBANDS =      -783.34548102
  atomic energy  EATOM  =      7767.32637530
  Solvation  Ediel_sol  =         0.00000000
  ---------------------------------------------------
  free energy    TOTEN  =      -806.01744745 eV

  energy without entropy =     -805.88699318  energy(sigma->0) =     -805.95222032


--------------------------------------------------------------------------------------------------------




--------------------------------------- Iteration      1(  14)  ---------------------------------------


    POTLOK:  cpu time      0.6771: real time      0.6779
    SETDIJ:  cpu time      1.3748: real time      1.3754
    EDDIAG:  cpu time     17.2655: real time     17.2805
     EDDAV:  cpu time     62.7284: real time     62.7852
       DOS:  cpu time      0.0035: real time      0.0035
    --------------------------------------------
      LOOP:  cpu time     82.0497: real time     82.1230

 eigenvalue-minimisations  :  2136
 total energy-change (2. order) :-0.2826710E-06  (-0.6170210E-07)
 number of electron     319.9999999 magnetization 
 augmentation part      -15.0248119 magnetization 

 Free energy of the ion-electron system (eV)
  ---------------------------------------------------
  alpha Z        PSCENC =       106.71514873
  Ewald energy   TEWEN  =     -4883.66502301
[...]
   0.481E+02 0.573E+02 0.151E+02   -.478E+02 -.566E+02 -.150E+02   -.482E-01 -.160E+01 0.754E+00   0.341E-04 -.944E-04 -.643E-04
   0.898E+02 0.366E+02 0.208E+02   -.891E+02 -.352E+02 -.204E+02   -.236E+00 -.923E+00 -.169E+01   -.337E-04 -.110E-03 -.127E-03
   0.889E+01 -.820E+02 -.110E+02   -.120E+02 0.802E+02 0.127E+02   0.314E+01 0.181E+01 -.966E+00   -.240E-03 0.349E-03 -.226E-05
   0.161E+01 0.745E+02 -.315E+02   -.225E+01 -.746E+02 0.310E+02   0.500E+00 -.106E+01 0.118E+01   0.230E-03 0.289E-03 0.535E-03
   0.207E+02 0.654E+02 0.218E+02   -.205E+02 -.641E+02 -.205E+02   0.239E+00 -.104E+01 -.145E+01   0.180E-03 0.628E-03 -.202E-03
   -.245E+02 0.108E+03 0.298E+02   0.241E+02 -.107E+03 -.280E+02   0.145E+01 0.312E-01 -.221E+01   -.708E-04 0.360E-03 0.111E-03
   -.874E+02 0.352E+02 -.203E+01   0.879E+02 -.337E+02 0.362E+01   -.374E+00 -.472E+00 -.853E+00   -.342E-03 -.176E-03 -.180E-03
   -.270E+02 0.340E+02 -.263E+02   0.256E+02 -.339E+02 0.256E+02   0.148E+01 -.202E+00 0.518E+00   -.141E-03 -.928E-04 -.633E-04
   -.108E+03 0.495E+02 0.278E+02   0.108E+03 -.486E+02 -.280E+02   0.457E+00 -.899E+00 0.116E+00   -.106E-03 0.778E-04 0.163E-03
   0.592E+02 0.306E+02 0.231E+02   -.596E+02 -.280E+02 -.244E+02   0.267E-03 -.389E+01 0.879E+00   0.646E-04 -.821E-04 0.672E-04
   -.560E+02 0.114E+01 -.469E+01   0.531E+02 -.744E+00 0.400E+01   0.367E+01 -.128E+01 0.285E+00   0.748E-04 0.356E-03 0.770E-04
   0.305E+02 0.497E+02 -.133E+01   -.292E+02 -.487E+02 0.104E+01   -.113E+01 -.985E+00 -.323E+00   -.937E-04 0.388E-03 -.162E-03
   0.118E+03 0.427E+02 -.259E+02   -.116E+03 -.413E+02 0.250E+02   -.172E+01 -.251E+01 0.177E+01   0.184E-03 -.888E-04 -.576E-04
   -.750E+02 0.388E+02 0.450E+01   0.736E+02 -.375E+02 -.615E+01   0.153E+01 -.264E+01 0.161E+01   -.101E-03 0.284E-04 -.812E-04
   0.921E+02 -.359E+02 -.260E+02   -.918E+02 0.360E+02 0.267E+02   -.185E+01 0.559E+00 -.284E+00   0.101E-03 -.491E-04 -.678E-04
   0.918E+01 -.376E+02 0.337E+01   -.828E+01 0.372E+02 -.339E+01   -.814E+00 -.476E+00 0.180E+00   0.101E-04 0.233E-03 0.138E-03
   -.779E+02 -.330E+02 -.211E+02   0.774E+02 0.330E+02 0.188E+02   -.443E+00 -.142E+00 0.218E+01   0.263E-03 -.770E-04 -.111E-03
   0.969E+01 -.545E+00 -.177E+02   -.963E+01 0.108E+01 0.166E+02   -.201E+00 0.321E+00 0.124E+01   0.182E-03 -.475E-04 0.425E-04
   -.420E+02 0.822E+02 -.216E+02   0.429E+02 -.809E+02 0.215E+02   -.189E+01 -.125E+01 0.141E+00   -.571E-03 0.712E-04 -.986E-04
   -.534E+02 -.160E+02 0.349E+01   0.538E+02 0.140E+02 -.348E+01   -.125E+00 0.246E+01 0.223E+00   0.112E-03 0.406E-03 0.148E-03
   0.105E+02 -.310E+02 0.612E+00   -.107E+02 0.294E+02 0.154E+00   0.177E+01 0.238E+01 -.214E+01   0.307E-04 0.154E-03 0.170E-04
   0.299E+02 -.965E+02 0.189E+02   -.274E+02 0.959E+02 -.198E+02   -.261E+01 0.326E-01 0.136E+01   -.118E-03 0.307E-03 0.250E-04
   -.387E+01 -.168E+02 -.427E+01   0.553E+01 0.153E+02 0.389E+01   -.199E+01 0.177E+01 -.372E+00   -.169E-04 0.630E-03 0.437E-04
   0.156E+02 -.645E+02 0.168E+02   -.165E+02 0.647E+02 -.156E+02   0.111E+01 -.337E+00 -.170E+01   -.281E-04 0.199E-03 0.305E-04
   0.364E+01 -.863E+02 0.733E+01   -.421E+01 0.882E+02 -.788E+01   0.166E+01 -.794E+00 -.253E+00   -.190E-03 0.453E-03 0.482E-04
   -.520E+02 -.506E+02 -.534E+01   0.538E+02 0.496E+02 0.578E+01   -.936E+00 0.403E+00 -.772E+00   0.302E-04 0.247E-03 0.365E-04
   -.357E+02 -.309E+02 0.636E+01   0.350E+02 0.321E+02 -.655E+01   0.278E+00 -.199E+01 0.667E+00   0.143E-03 0.266E-03 0.116E-03
   0.419E+02 -.694E+02 -.804E+01   -.399E+02 0.665E+02 0.865E+01   -.200E+01 0.157E+01 -.912E+00   0.852E-05 0.210E-03 -.737E-04
 -----------------------------------------------------------------------------------------------
   -.154E+00 0.241E+01 -.348E+01   -.163E-12 -.171E-12 -.728E-13   0.158E+00 -.243E+01 0.348E+01   0.108E-02 0.412E-02 0.220E-03


 POSITION                                       TOTAL-FORCE (eV/Angst)
 -----------------------------------------------------------------------------------
      5.19239      5.06580      1.08332         0.450969     -0.623551      0.659090
      4.54574      6.45020      8.96651         0.572838     -0.012526     -0.745003
      5.51778      4.57401      1.57985        -0.413020      0.600242     -0.598387
      3.07305      5.27065      4.66816        -0.248924     -0.981400      1.117237
      2.09630      5.06247      0.15335        -0.210180     -0.059123     -0.028172
      7.70128      4.20568      9.44248         0.031678     -0.136876      0.390251
      7.19737      0.81988      6.85428         0.493827      0.388390     -0.666117
      5.13355      1.81285      1.18775        -0.245534     -0.005623     -0.007190
      4.07529      1.67432      8.81256         0.090598     -0.001197     -0.306765
      0.72556      9.30891      2.15000         0.446601      0.454922     -0.219183
      2.73818      4.48363      6.33536         0.330528     -0.106678      0.630366
      3.22700      4.44856      6.91621        -0.470326     -0.001845     -0.461200
      6.88858      6.63593      9.57604         0.137836      1.070626     -0.451963
      5.17556      3.25205      3.97915         0.149213     -1.310982      0.292794
      2.32889      3.35989      2.98655        -0.242198     -0.375466     -0.269928
      1.82322      2.92129      2.63363         0.499427      0.255581      0.262971
      1.00131      5.24953      2.50613         0.612601      0.382774     -1.085360
      4.47895      0.99594      4.97622         0.033103     -0.603978     -0.676301
      1.00023      2.65054      4.75512         0.074145      0.021660      0.349556
      1.40171      5.42421      1.85542        -0.779007     -0.196401      1.210335
      3.19212      5.71066      4.13368         0.264694      1.036961     -1.324039
      5.80813     14.32900      8.90496         0.000060      0.210445      0.204750
      5.58010      4.51148      6.21688         0.014182     -0.031708      0.048002
      2.35480      7.70888      0.12444         0.232298      0.958420     -0.304457
      1.63204      2.83801      8.00288        -0.009755     -0.387815     -0.184304
      4.13689      6.36678      9.55242        -0.420163     -0.150638      0.669175
      1.59054      2.15142      7.69110         0.033028      0.402207      0.188793
      5.10005      3.90774      3.72430        -0.152969      1.202196     -0.612272
      5.86570      1.87087      1.23005         0.225252      0.027551     -0.008395
      0.77219      2.92455      0.87192        -0.056939      0.151017     -0.141357
      5.16747      4.09648      5.75737         0.183277      0.138893      0.267857
      4.48751      1.51112      5.47806         0.068512      0.808011      0.673783
      6.68329      1.30584      3.16983         0.489731     -0.221020      0.662540
      2.94644      0.27593      1.30754         0.138245     -0.512162      0.151720
      4.39473      1.56414      8.14344        -0.149279      0.075408      0.230593
      2.78095      4.98840      9.57437         0.113845     -0.118283     -0.111401
     14.38290      9.98242      7.31950         0.553979      0.119231      1.487175
     12.09000      3.93798      0.77909         0.739056      0.551425     -0.501554
     10.90070      2.82153      3.38875         0.324689     -0.551641      0.450032
      6.99280      9.09859      3.37290        -0.147290     -0.868179      0.303830
     11.75350      5.81094      2.08701        -0.616248      0.024527      0.828651
     13.93260      2.49141      0.73035        -0.459030     -0.613359      0.632287
      8.84259      9.09373      0.31301        -0.030450      0.936783     -0.561038
     10.70600      8.81100      8.68345         0.744916      0.325243      0.782984
      7.50793      8.46632      6.77534         0.515503      0.217480      1.233698
     11.17780     10.92440      7.81290        -1.480680      0.941898     -0.968996
     13.72180     12.92600      0.22789         0.830463      1.826552     -0.424717
      8.95381      4.27402      0.58167        -0.180242      0.999629     -1.149655
     10.03840     14.48310      7.14620         0.494422     -1.181756      0.018045
      3.46799     11.35520      6.75302         0.684496     -0.168719      0.326372
     11.63800     14.47940      3.19959         0.339233      1.418338      0.462380
      6.79319     12.85280      3.71351        -0.850990     -0.117928     -0.523829
      5.09260      9.43950      9.39579         0.620238     -0.449859      0.468548
     10.78550      4.84927      8.70351        -0.521435      0.276480      0.392201
     13.12070      1.86131      3.02291        -0.717197     -0.400389      0.206702
      9.59084      0.96402      2.47587         1.841055     -0.213747     -0.558601
     12.92620      4.24941      5.92087        -0.006292     -0.446006     -0.328056
      7.79294      0.42346      3.75287        -1.348362     -0.262577     -0.029053
     13.55610      0.71095      8.78843        -0.488315     -1.127076      0.317804
      9.41817      7.30020      6.05733        -0.423822     -0.195727     -0.547102
     14.16580      2.35536      5.13565        -0.024360      0.134457     -0.830157
      8.75398     11.52290      0.58493         0.347968     -0.070997      0.313787
      5.49809     10.08320      2.00098        -1.100728      0.230184     -1.206181
      5.46936     11.34320      8.10097        -0.332847      0.005967     -0.614508
      7.03070      8.10339      9.02657        -1.216022     -1.090873     -0.003505
     13.35780     10.29310      5.26766         0.872235      0.740038     -0.624710
     10.24800      8.49701      4.18686         0.102893     -0.253871      0.312963
     11.75780     14.02990      5.53435         0.549994     -0.205077      0.504291
      9.46954      2.92436      5.32652         0.774109      1.355319      0.918599
     11.59420     11.66490      5.60299        -0.405061      0.068225      0.997438
     11.41240      4.95856      4.23825        -0.165326      0.097118     -0.387919
      5.94200      8.09050      5.19181        -1.411378      0.231703     -0.110291
      1.49384     10.64680      2.24106        -0.808945     -0.410424      1.120332
     11.13330      3.27205      7.06354        -0.534568     -0.359017     -0.071305
      3.17718     13.28650      5.45167        -1.286318     -0.350119      0.170797
      7.68746     10.87170      4.69907        -1.090030      1.646308     -0.446591
      1.40030     12.19460      0.52333         0.072781     -0.468487     -0.250747
      7.59734     10.93410      6.96094        -0.147890      0.062483      1.126175
     11.89100      9.52324      1.06169        -0.164695      0.392380     -1.041176
      8.84349      8.08492      2.34020         0.290866     -0.920284      0.897342
      9.25428      5.72277      2.44991         0.448172      0.476700     -1.346377
      4.23699     12.68080      3.44161         0.148930      0.076400      0.707520
      2.92626      8.76640      8.82141        -0.138175     -1.269244      0.802154
      3.75355      9.26596      5.49963         0.538018      0.218997     -0.203613
      2.48364      7.67364      6.78506         1.021177      0.479837     -0.400396
     13.07280      6.58870      6.02427         0.020233      0.939661      0.740969
     11.17570      6.86151      7.54021         0.111052     -0.143291     -0.135877
     12.99760      7.79085      2.08410         0.245734      0.037030      0.051505
     10.30000      2.45135      0.79195        -0.356935     -1.414987     -0.382286
     12.94470     10.94720      9.15386         0.840871     -0.910361     -0.423226
      3.57992     10.41160      3.40218         0.123398     -0.026526     -0.651659
      9.07864      5.35606      4.72333         0.515184     -1.226485      0.872147
     12.58130      8.36584      4.30306         0.113529     -1.533461      0.079028
      8.43680      0.93023      5.92961        -1.689484      0.706004      0.428871
     10.67550     11.40670      2.08915         0.085471     -0.988953      0.147562
     13.95600      0.34256      6.37281        -0.920151     -0.196141     -0.025282
     11.26820      1.32125      8.48727        -0.172516      0.905037      0.120698
      0.28069      7.67608      7.18889        -1.006895      0.083672     -0.124705
     14.41360     11.69040      3.68938         0.251356      0.632206      0.270927
      9.88303     10.74170      4.38606         1.646916      0.877286     -1.505171
      5.29235     13.13660      9.61203        -0.181011     -0.579572      0.497868
      1.86876     10.76270      8.37692        -0.433047      0.357020     -0.774942
      6.66294     12.12340      1.55358         0.304392     -0.174993     -0.554759
      3.24597     13.34450      1.36718         1.186407      1.162476     -0.821524
      0.75605     13.29470      5.36218         0.812355     -0.513651     -0.411001
     12.69680     12.70320      2.26799        -0.396892     -0.812661      0.504567
      9.30520     12.39400      8.13082        -0.146658     -1.385688     -0.363756
 -----------------------------------------------------------------------------------
    total drift:                                0.005369     -0.013420      0.003447


--------------------------------------------------------------------------------------------------------



  FREE ENERGIE OF THE ION-ELECTRON SYSTEM (eV)
  ---------------------------------------------------
  free  energy   TOTEN  =      -806.01744773 eV

  energy  without entropy=     -805.88698569  energy(sigma->0) =     -805.95221671



--------------------------------------------------------------------------------------------------------


    POTLOK:  cpu time      2.0283: real time      2.0299


--------------------------------------------------------------------------------------------------------


     LOOP+:  cpu time   1713.6590: real time   1715.3188
    4ORBIT:  cpu time      0.0000: real time      0.0000



 total charge

# of ion       s       p       d       tot
------------------------------------------
    1        0.593   0.029   0.000   0.622
    2        0.633   0.038   0.000   0.670
    3        0.595   0.028   0.000   0.623
    4        0.645   0.040   0.000   0.685
    5        0.621   0.034   0.000   0.654
    6        0.558   0.015   0.000   0.573
    7        0.539   0.013   0.000   0.551
    8        0.618   0.034   0.000   0.651
    9        0.609   0.031   0.000   0.640
   10        0.538   0.014   0.000   0.552
   11        0.605   0.030   0.000   0.635
   12        0.600   0.030   0.000   0.630
   13        0.534   0.012   0.000   0.546
   14        0.643   0.039   0.000   0.682
   15        0.604   0.031   0.000   0.635
   16        0.606   0.031   0.000   0.637
   17        0.587   0.026   0.000   0.613
   18        0.629   0.037   0.000   0.667
   19        0.569   0.016   0.000   0.585
   20        0.585   0.027   0.000   0.612
   21        0.644   0.040   0.000   0.684
   22        0.568   0.016   0.000   0.584
   23        0.617   0.032   0.000   0.649
   24        0.542   0.013   0.000   0.554
   25        0.603   0.031   0.000   0.634
   26        0.634   0.038   0.000   0.672
   27        0.606   0.031   0.000   0.636
   28        0.642   0.039   0.000   0.681
   29        0.619   0.034   0.000   0.653
   30        0.568   0.016   0.000   0.584
   31        0.613   0.033   0.000   0.646
   32        0.630   0.036   0.000   0.666
   33        0.545   0.014   0.000   0.559
   34        0.551   0.013   0.000   0.564
   35        0.609   0.031   0.000   0.640
   36        0.618   0.034   0.000   0.652
   37        0.755   0.897   0.000   1.652
   38        0.759   0.937   0.000   1.696
   39        0.772   0.878   0.000   1.649
   40        0.754   0.978   0.000   1.732
   41        0.764   0.916   0.000   1.680
   42        0.740   0.920   0.000   1.660
   43        0.755   0.969   0.000   1.724
   44        0.752   0.950   0.000   1.702
   45        0.755   0.945   0.000   1.699
   46        0.758   0.966   0.000   1.724
   47        0.753   0.933   0.000   1.686
   48        0.740   0.949   0.000   1.689
   49        0.746   0.953   0.000   1.700
   50        0.763   0.902   0.000   1.665
   51        0.752   0.919   0.000   1.672
   52        0.753   0.927   0.000   1.680
   53        0.747   0.950   0.000   1.697
   54        0.757   0.930   0.000   1.687
   55        0.756   0.887   0.000   1.642
   56        0.756   0.933   0.000   1.689
   57        0.755   0.938   0.000   1.693
   58        0.737   0.973   0.000   1.710
   59        0.752   0.851   0.000   1.603
   60        0.756   0.926   0.000   1.682
   61        0.743   0.937   0.000   1.681
   62        0.753   0.888   0.000   1.641
   63        0.754   0.946   0.000   1.699
   64        0.748   0.934   0.000   1.683
   65        0.744   0.966   0.000   1.710
   66        0.752   0.982   0.000   1.734
   67        0.760   0.953   0.000   1.713
   68        0.751   0.902   0.000   1.653
   69        0.767   0.879   0.000   1.646
   70        0.754   0.979   0.000   1.733
   71        0.782   0.899   0.000   1.681
   72        0.795   0.865   0.000   1.659
   73        0.746   0.937   0.000   1.683
   74        0.754   0.928   0.000   1.682
   75        0.804   0.837   0.000   1.641
   76        0.759   0.976   0.000   1.735
   77        0.747   0.952   0.000   1.700
   78        0.755   0.892   0.000   1.647
   79        0.764   0.894   0.000   1.658
   80        0.754   0.949   0.000   1.703
   81        0.749   0.889   0.000   1.638
   82        0.754   0.892   0.000   1.646
   83        0.745   0.959   0.000   1.703
   84        0.765   0.848   0.000   1.613
   85        0.799   0.866   0.000   1.665
   86        0.754   0.877   0.000   1.631
   87        0.750   0.932   0.000   1.682
   88        0.796   0.870   0.000   1.665
   89        0.749   0.920   0.000   1.669
   90        0.771   0.948   0.000   1.719
   91        0.750   0.914   0.000   1.664
   92        0.767   0.881   0.000   1.648
   93        0.761   0.921   0.000   1.683
   94        0.738   0.994   0.000   1.733
   95        0.762   0.864   0.000   1.626
   96        0.747   0.879   0.000   1.627
   97        0.759   0.911   0.000   1.671
   98        0.796   0.869   0.000   1.665
   99        0.759   0.874   0.000   1.633
  100        0.760   0.976   0.000   1.736
  101        0.738   0.955   0.000   1.694
  102        0.754   0.931   0.000   1.684
  103        0.755   0.953   0.000   1.708
  104        0.737   0.929   0.000   1.665
  105        0.784   0.819   0.000   1.602
  106        0.754   0.946   0.000   1.701
  107        0.750   0.893   0.000   1.642
--------------------------------------------------
tot         75.294  66.337   0.000 141.631


 total amount of memory used by VASP MPI-rank0   173170. kBytes
=======================================================================

   base                                    :      30000. kBytes
   nonl-proj                               :      33247. kBytes
   fftplans                                :      38234. kBytes
   grid                                    :      29478. kBytes
   one-center                              :         21. kBytes
   wavefun                                 :      42190. kBytes

  
  
 General timing and accounting informations for this job:
 ========================================================
  
                  Total CPU time used (sec):     1776.030
                            User time (sec):     1769.172
                          System time (sec):        6.858
                         Elapsed time (sec):     1777.892
  
                   Maximum memory used (kb):      359960.
                   Average memory used (kb):          N/A
  
                          Minor page faults:       239539
                          Major page faults:         1146
                 Voluntary context switches:         2661
