 vasp.6.5.0 16Dec24 (build Jan 20 2025 08:32:48) complex                         
 executed on        HPECrayEX_GCC date 2025.07.29  01:31:41
 running  128 mpi-ranks, with    1 threads/rank, on    1 nodes
 distrk:  each k-point on  128 cores,    1 groups
 distr:  one band on NCORE=  16 cores,    8 groups


--------------------------------------------------------------------------------------------------------


 INCAR:
   SYSTEM = a-Si SPC
   NCORE = 16
   ISTART = 1
   ICHARG = 1
   ISPIN = 1
   ISYM = 1
   EDIFF = 1E-6
   NELM = 150
   EDIFFG = -0.01
   NSW = 0
   ISIF = 2
   IBRION = -1
   PREC = Accurate
   ENCUT = 1200
   KSPACING = 0.23
   KGAMMA = .TRUE.
   METAGGA = SCAN
   LASPH = .TRUE.
   LDIAG = .FALSE.
   LMIXTAU = .TRUE.
   ADDGRID = .TRUE.
   ALGO = Normal
   ISMEAR = 0
   SIGMA = 0.1
   LORBIT = 11
   NEDOS = 2000
   LWAVE = .FALSE.
   LCHARG = .FALSE.

 POTCAR:    PAW_PBE H 15Jun2001                   
 POTCAR:    PAW_PBE Si 05Jan2001                  
 POTCAR:    PAW_PBE H 15Jun2001                   
   SHA256 =  030f79b5d3ab3cf0e668861823c8fb652ff669f3e15e46930bd03bfd63a607b6 H/POTCAR              
   COPYR  = (c) Copyright 15Jun2001 Georg Kresse                                                    
   COPYR  = This file is part of the software VASP. Any use, copying, and all other rights are regul
   COPYR  = If you do not have a valid VASP license, you may not use, copy or distribute this file. 
   VRHFIN =H: ultrasoft test                                                                        
   LEXCH  = PE                                                                                      
   EATOM  =    12.4884 eV,    0.9179 Ry                                                             
                                                                                                    
   TITEL  = PAW_PBE H 15Jun2001                                                                     
   LULTRA =        F    use ultrasoft PP ?                                                          
   IUNSCR =        0    unscreen: 0-lin 1-nonlin 2-no                                               
   RPACOR =    0.000    partial core radius                                                         
   POMASS =    1.000; ZVAL   =    1.000    mass and valenz                                          
   RCORE  =    1.100    outmost cutoff radius                                                       
   RWIGS  =    0.700; RWIGS  =    0.370    wigner-seitz radius (au A)                               
   ENMAX  =  250.000; ENMIN  =  200.000 eV                                                          
   RCLOC  =    0.701    cutoff for local pot                                                        
   LCOR   =        T    correct aug charges                                                         
   LPAW   =        T    paw PP                                                                      
   EAUG   =  400.000                                                                                
   RMAX   =    1.123    core radius for proj-oper                                                   
   RAUG   =    1.200    factor for augmentation sphere                                              
   RDEP   =    1.112    radius for radial grids                                                     
   RDEPT  =    0.926    core radius for aug-charge                                                  
                                                                                                    
   Atomic configuration                                                                             
    2 entries                                                                                       
     n  l   j            E        occ.                                                              
     1  0  0.50        -6.4927   1.0000                                                             
     2  1  0.50        -3.4015   0.0000                                                             
   Description                                                                                      
     l       E           TYP  RCUT    TYP  RCUT                                                     
     0     -6.4927494     23  1.100                                                                 
     0      6.8029130     23  1.100                                                                 
     1     -4.0817478     23  1.100                                                                 
  local pseudopotential read in
  atomic valenz-charges read in
  non local Contribution for L=           0  read in
    real space projection operators read in
  non local Contribution for L=           0  read in
    real space projection operators read in
  non local Contribution for L=           1  read in
    real space projection operators read in
    PAW grid and wavefunctions read in

   number of l-projection  operators is LMAX  =           3
   number of lm-projection operators is LMMAX =           5

 POTCAR:    PAW_PBE Si 05Jan2001                  
   SHA256 =  79d9987ad8750f624c4d6acb2a16d13abf6a777132adc04dc6c8399be72b42bb Si/POTCAR             
   COPYR  = (c) Copyright 05Jan2001 Georg Kresse                                                    
   COPYR  = This file is part of the software VASP. Any use, copying, and all other rights are regul
   COPYR  = If you do not have a valid VASP license, you may not use, copy or distribute this file. 
   VRHFIN =Si: s2p2                                                                                 
   LEXCH  = PE                                                                                      
   EATOM  =   103.0669 eV,    7.5752 Ry                                                             
                                                                                                    
   TITEL  = PAW_PBE Si 05Jan2001                                                                    
   LULTRA =        F    use ultrasoft PP ?                                                          
   IUNSCR =        1    unscreen: 0-lin 1-nonlin 2-no                                               
   RPACOR =    1.500    partial core radius                                                         
   POMASS =   28.085; ZVAL   =    4.000    mass and valenz                                          
   RCORE  =    1.900    outmost cutoff radius                                                       
   RWIGS  =    2.480; RWIGS  =    1.312    wigner-seitz radius (au A)                               
   ENMAX  =  245.345; ENMIN  =  184.009 eV                                                          
   ICORE  =        2    local potential                                                             
   LCOR   =        T    correct aug charges                                                         
   LPAW   =        T    paw PP                                                                      
   EAUG   =  322.069                                                                                
   DEXC   =    0.000                                                                                
   RMAX   =    1.950    core radius for proj-oper                                                   
   RAUG   =    1.300    factor for augmentation sphere                                              
   RDEP   =    1.993    radius for radial grids                                                     
   RDEPT  =    1.837    core radius for aug-charge                                                  
                                                                                                    
   Atomic configuration                                                                             
    6 entries                                                                                       
     n  l   j            E        occ.                                                              
     1  0  0.50     -1785.8828   2.0000                                                             
     2  0  0.50      -139.4969   2.0000                                                             
     2  1  1.50       -95.5546   6.0000                                                             
     3  0  0.50       -10.8127   2.0000                                                             
     3  1  0.50        -4.0811   2.0000                                                             
     3  2  1.50        -4.0817   0.0000                                                             
   Description                                                                                      
     l       E           TYP  RCUT    TYP  RCUT                                                     
     0    -10.8127223     23  1.900                                                                 
     0     -7.6451159     23  1.900                                                                 
     1     -4.0811372     23  1.900                                                                 
     1      2.4879257     23  1.900                                                                 
     2     -4.0817478      7  1.900                                                                 
  local pseudopotential read in
  partial core-charges read in
  partial kinetic energy density read in
  atomic valenz-charges read in
  non local Contribution for L=           0  read in
    real space projection operators read in
  non local Contribution for L=           0  read in
    real space projection operators read in
  non local Contribution for L=           1  read in
    real space projection operators read in
  non local Contribution for L=           1  read in
    real space projection operators read in
    PAW grid and wavefunctions read in

   number of l-projection  operators is LMAX  =           4
   number of lm-projection operators is LMMAX =           8

 -----------------------------------------------------------------------------
|                                                                             |
|               ----> ADVICE to this user running VASP <----                  |
|                                                                             |
|     You have a (more or less) 'large supercell' and for larger cells it     |
|     might be more efficient to use real-space projection operators.         |
|     Therefore, try LREAL= Auto in the INCAR file.                           |
|     Mind: For very accurate calculation, you might also keep the            |
|     reciprocal projection scheme (i.e. LREAL=.FALSE.).                      |
|                                                                             |
 -----------------------------------------------------------------------------

 -----------------------------------------------------------------------------
|                                                                             |
|               ----> ADVICE to this user running VASP <----                  |
|                                                                             |
|     You enforced a specific xc type in the INCAR file but a different       |
|     type was found in the POTCAR file.                                      |
|     I HOPE YOU KNOW WHAT YOU ARE DOING!                                     |
|                                                                             |
 -----------------------------------------------------------------------------

  PAW_PBE H 15Jun2001                   :
 energy of atom  1       EATOM=  -12.4884
 kinetic energy error for atom=    0.0000 (will be added to EATOM!!)
  PAW_PBE Si 05Jan2001                  :
 energy of atom  2       EATOM= -103.0669
 kinetic energy error for atom=    0.0001 (will be added to EATOM!!)


 POSCAR:  H Si
  positions in cartesian coordinates
  No initial velocities read in


 exchange-correlation table for SCAN
   RHO(1)=    0.500       N(1)  =     2000
   RHO(2)=  100.500       N(2)  =     4000



--------------------------------------------------------------------------------------------------------


 ion  position               nearest neighbor table
   1  0.584  0.309  0.308-   2 0.81
   2  0.616  0.280  0.326-   1 0.81   5 1.90
   3  0.259  0.967  0.519-  53 1.50
   4  0.250  0.441  0.527-  89 1.52
   5  0.668  0.207  0.375-   2 1.90  82 2.33  56 2.34  63 2.34
   6  0.748  0.575  0.413-  64 2.31  41 2.34  91 2.36  72 2.53
   7  0.942  0.520  0.482-  94 2.27  64 2.28  68 2.33  73 2.36
   8  0.085  0.546  0.379-  94 2.27  14 2.28  26 2.29  57 3.09
   9  0.072  0.431  0.574-  89 2.30  80 2.30  68 2.32  21 2.35
  10  0.339  0.898  0.426-  78 2.30  11 2.39  53 2.41  40 2.44  13 2.82
  11  0.424  0.991  0.372-  13 2.28  60 2.32  10 2.39
  12  0.624  0.248  0.501-  48 2.33  95 2.35  61 2.37  56 2.37
  13  0.296  0.074  0.390-  11 2.28  50 2.32  40 2.35  10 2.82
  14  0.068  0.702  0.379-   8 2.28  62 2.34  58 2.39
  15  0.620  0.736  0.623-  28 2.33  88 2.33  87 2.36
  16  0.003  0.720  0.652-  46 2.38  71 2.41  34 2.42  65 2.58
  17  0.044  0.994  0.394-  40 2.35  43 2.37  69 2.41
  18  0.448  0.687  0.438-  78 2.31  47 2.32  49 2.36  83 2.37
  19  0.432  0.462  0.615-  45 2.28  38 2.29  24 2.30  32 2.54
  20  0.828  0.676  0.537-  64 2.31  70 2.34  46 2.35  30 2.36
  21  0.068  0.297  0.527-  79 2.30   9 2.35  59 2.38  66 2.41
  22  0.931  0.042  0.563-  29 2.32  23 2.33  81 2.36  84 2.38
  23  0.865  0.013  0.636-  22 2.33  54 2.33  37 2.39  34 2.44  87 3.15
  24  0.433  0.312  0.589-  19 2.30  61 2.35  32 2.37  97 2.42
  25  0.129  0.858  0.478-  69 2.29  62 2.33  67 2.36  40 2.41
  26  0.196  0.436  0.366-   8 2.29  57 2.40  51 2.56  59 2.96
  27  0.196  0.604  0.492-  62 2.32  68 2.36  33 2.39  57 2.39
  28  0.524  0.794  0.565-  15 2.33  44 2.34  55 2.35  83 2.37
  29  0.876  0.941  0.506-  69 2.32  22 2.32  39 2.38  70 2.40
  30  0.769  0.553  0.582-  88 2.24  90 2.32  20 2.36  73 3.02
  31  0.603  0.926  0.440-  55 2.33  47 2.34  74 2.36  60 2.41
  32  0.461  0.421  0.529-  98 2.34  24 2.37  75 2.39  19 2.54
  33  0.302  0.647  0.553-  45 2.39  27 2.39  36 2.39  83 2.40
  34  0.901  0.851  0.648-  87 2.36  65 2.41  16 2.42  23 2.44
  35  0.285  0.181  0.497-  50 2.35  86 2.40  97 2.40  99 2.42
  36  0.260  0.790  0.587-  71 2.32  44 2.35  33 2.39  67 2.42
  37  0.865  0.175  0.649-  52 2.32  23 2.39  85 2.42  84 2.57
  38  0.573  0.463  0.652-  19 2.29  88 2.31
  39  0.811  0.054  0.455-  95 2.32  74 2.35  29 2.38  77 2.39
  40  0.191  0.976  0.427-  17 2.35  13 2.35  99 2.39  25 2.41  10 2.44
  41  0.628  0.506  0.456-   6 2.34  49 2.36  48 2.38  98 2.39
  42  0.804  0.823  0.371-  91 2.27  58 2.35  74 2.39
  43  0.049  0.151  0.415-  77 2.36  17 2.37  99 2.41  51 2.42
  44  0.393  0.881  0.582-  53 2.34  28 2.34  36 2.35  76 2.36
  45  0.296  0.540  0.617-  19 2.28  89 2.33  33 2.39
  46  0.974  0.678  0.573-  65 2.31  68 2.33  20 2.35  16 2.38
  47  0.568  0.779  0.412-  91 2.27  18 2.32  31 2.34
  48  0.711  0.369  0.472-  12 2.33  73 2.36  41 2.38  63 2.40
  49  0.489  0.536  0.416-  75 2.32  18 2.36  41 2.36
  50  0.296  0.224  0.418-  93 2.27  13 2.32  51 2.33  35 2.35
  51  0.152  0.272  0.390-  59 2.29  50 2.33  43 2.42  26 2.56
  52  0.000  0.253  0.632-  80 2.29  37 2.32  66 2.37
  53  0.357  0.941  0.507-   3 1.50  86 2.30  44 2.34  10 2.41  76 3.11
  54  0.708  0.983  0.634-  87 2.31  92 2.32  23 2.33
  55  0.627  0.878  0.518-  70 2.32  92 2.33  31 2.33  28 2.35
  56  0.548  0.214  0.429-   5 2.34  93 2.34  60 2.35  12 2.37
  57  0.232  0.470  0.447-  59 2.38  27 2.39  26 2.40  75 2.40   8 3.09
  58  0.928  0.760  0.412-  69 2.33  42 2.35  64 2.36  14 2.39
  59  0.111  0.360  0.453-  51 2.29  57 2.38  21 2.38  94 2.42  26 2.96
  60  0.504  0.058  0.433-  11 2.32  56 2.35  86 2.38  31 2.41
  61  0.578  0.242  0.581-  24 2.35  12 2.37  96 2.37  85 2.63
  62  0.175  0.724  0.440-  27 2.32  78 2.33  25 2.33  14 2.34
  63  0.787  0.298  0.406-   5 2.34  72 2.34  48 2.40  77 2.40
  64  0.859  0.645  0.459-   7 2.28  20 2.31   6 2.31  58 2.36
  65  0.004  0.832  0.582-  46 2.31  67 2.34  34 2.41  71 2.56  16 2.58
  66  0.127  0.197  0.588-  81 2.36  52 2.37  21 2.41  97 2.44
  67  0.145  0.896  0.559-  65 2.34  25 2.36  36 2.42  81 2.42  71 2.59
  68  0.059  0.567  0.533-   9 2.32   7 2.33  46 2.33  27 2.36
  69  0.984  0.889  0.452-  25 2.29  29 2.32  58 2.33  17 2.41
  70  0.773  0.827  0.537-  55 2.32  20 2.34  87 2.34  29 2.40
  71  0.139  0.812  0.639-  36 2.32  16 2.41  65 2.56  67 2.59
  72  0.840  0.442  0.381-  63 2.34  94 2.37   6 2.53
  73  0.843  0.410  0.515-  79 2.33  90 2.34  48 2.36   7 2.36  30 3.02
  74  0.737  0.964  0.398-  39 2.35  31 2.36  82 2.36  42 2.39
  75  0.392  0.431  0.453-  49 2.32  93 2.33  32 2.39  57 2.40
  76  0.375  0.036  0.605-  96 2.33  44 2.36  86 3.02  53 3.11
  77  0.897  0.189  0.436-  79 2.33  43 2.36  39 2.39  63 2.40
  78  0.317  0.747  0.404-  10 2.30  18 2.31  62 2.33
  79  0.918  0.269  0.506-  84 2.29  21 2.30  77 2.33  73 2.33
  80  0.974  0.408  0.637-  52 2.29   9 2.30  90 2.36
  81  0.092  0.053  0.554-  99 2.36  66 2.36  22 2.36  67 2.42
  82  0.659  0.060  0.344-   5 2.33  74 2.36
  83  0.453  0.673  0.522-  98 2.37  28 2.37  18 2.37  33 2.40
  84  0.841  0.178  0.559-  79 2.29  95 2.35  22 2.38  85 2.45  37 2.57
  85  0.746  0.268  0.613-  37 2.42  90 2.44  84 2.45  61 2.63
  86  0.418  0.086  0.504-  53 2.30  96 2.36  60 2.38  35 2.40  76 3.02
  87  0.750  0.833  0.619-  54 2.31  70 2.34  15 2.36  34 2.36  23 3.15
  88  0.623  0.581  0.604-  30 2.24  38 2.31  15 2.33  98 2.37
  89  0.229  0.416  0.578-   4 1.52   9 2.30  45 2.33  97 2.37
  90  0.831  0.410  0.598-  30 2.32  73 2.34  80 2.36  85 2.44
  91  0.694  0.713  0.380-  47 2.27  42 2.27   6 2.36
  92  0.645  0.013  0.561-  96 2.31  54 2.32  55 2.33  95 2.35
  93  0.426  0.306  0.404-  50 2.27  75 2.33  56 2.34
  94  0.988  0.446  0.416-   7 2.27   8 2.27  72 2.37  59 2.42
  95  0.720  0.120  0.513-  39 2.32  12 2.35  92 2.35  84 2.35
  96  0.510  0.095  0.572-  92 2.31  76 2.33  86 2.36  61 2.37
  97  0.278  0.261  0.572-  89 2.37  35 2.40  24 2.42  66 2.44
  98  0.558  0.549  0.529-  32 2.34  83 2.37  88 2.37  41 2.39
  99  0.146  0.098  0.479-  81 2.36  40 2.39  43 2.41  35 2.42

  LATTYP: Found a simple tetragonal cell.
 ALAT       =    14.5549806953
 C/A-ratio  =     1.9473558498
  
  Lattice vectors:
  
 A1 = (  14.5549806953,   0.0000000000,   0.0000000000)
 A2 = (   0.0000000000,  14.5549806953,   0.0000000000)
 A3 = (   0.0000000000,   0.0000000000,  28.3437268000)


Analysis of symmetry for initial positions (statically):
=====================================================================
 Subroutine PRICEL returns:
 Original cell was already a primitive cell.
 

 Routine SETGRP: Setting up the symmetry group for a 
 simple tetragonal supercell.


 Subroutine GETGRP returns: Found  1 space group operations
 (whereof  1 operations were pure point group operations)
 out of a pool of 16 trial point group operations.


The static configuration has the point symmetry C_1 .


Analysis of symmetry for dynamics (positions and initial velocities):
=====================================================================
 Subroutine PRICEL returns:
 Original cell was already a primitive cell.
 

 Routine SETGRP: Setting up the symmetry group for a 
 simple tetragonal supercell.


 Subroutine GETGRP returns: Found  1 space group operations
 (whereof  1 operations were pure point group operations)
 out of a pool of 16 trial point group operations.


The dynamic configuration has the point symmetry C_1 .


 Subroutine INISYM returns: Found  1 space group operations
 (whereof  1 operations are pure point group operations),
 and found     1 'primitive' translations


----------------------------------------------------------------------------------------

                                     Primitive cell                                     

  volume of cell :    6004.5466

  direct lattice vectors                    reciprocal lattice vectors
    14.554980695  0.000000000  0.000000000     0.068705004  0.000000000  0.000000000
     0.000000000 14.554980695  0.000000000     0.000000000  0.068705004  0.000000000
     0.000000000  0.000000000 28.343726800     0.000000000  0.000000000  0.035281176

  length of vectors
    14.554980695 14.554980695 28.343726800     0.068705004  0.068705004  0.035281176

  position of ions in fractional coordinates (direct lattice)
     0.584286398  0.309369754  0.307985903
     0.615633190  0.280048736  0.326380239
     0.259371682  0.966706382  0.519194418
     0.250003839  0.440904473  0.527282499
     0.668260835  0.207335210  0.375010062
     0.747927386  0.574893164  0.412964250
     0.942337149  0.520192751  0.481957339
     0.085026405  0.545869060  0.379352786
     0.072018288  0.430577375  0.574050520
     0.338990543  0.898092200  0.425850011
     0.424232152  0.990909990  0.371755459
     0.623768803  0.247585277  0.501333373
     0.296398546  0.073891757  0.390091925
     0.067558883  0.701645541  0.379378052
     0.620379621  0.736459770  0.623431750
     0.002767638  0.720170559  0.652495655
     0.044271638  0.993621424  0.393504235
     0.448394563  0.686637122  0.438396143
     0.432472371  0.462244266  0.614842378
     0.827919484  0.675965338  0.537338008
     0.067550757  0.297091513  0.527185740
     0.930527172  0.041966447  0.562639143
     0.865041347  0.013134829  0.636010884
     0.433233207  0.311880587  0.589406780
     0.129116671  0.858003290  0.478127658
     0.195553141  0.436274195  0.366476265
     0.196245145  0.603832680  0.492278612
     0.523877037  0.793873775  0.564742369
     0.876019343  0.940861547  0.505826571
     0.768688835  0.553250392  0.582173763
     0.603005409  0.925892765  0.440464458
     0.461391606  0.420910108  0.529099549
     0.302376860  0.646575711  0.552686574
     0.901489591  0.851420189  0.647655562
     0.284600279  0.181332772  0.497457261
     0.260041174  0.790340329  0.587196677
     0.864838248  0.175126679  0.648895442
     0.572527879  0.463110908  0.651611580
     0.811213721  0.053685165  0.455040594
     0.190569657  0.975573636  0.427137068
     0.628322686  0.506152364  0.455648469
     0.803587513  0.823410147  0.370896772
     0.049359555  0.150897427  0.415084184
     0.392790979  0.881194006  0.581623572
     0.296107339  0.539899789  0.616597977
     0.973856158  0.677744912  0.572953796
     0.568128672  0.778754714  0.412197566
     0.711219404  0.368545305  0.471594066
     0.488908084  0.535983752  0.416233453
     0.295631715  0.224271188  0.417620673
     0.152470432  0.271864053  0.389730300
     0.000153739  0.253139478  0.632029712
     0.356579478  0.940923923  0.507330688
     0.708080981  0.982956183  0.634407565
     0.626960755  0.878246263  0.517952794
     0.547587147  0.213699608  0.429316647
     0.232178427  0.469792124  0.447275690
     0.928221524  0.760201745  0.412364510
     0.111267032  0.360474137  0.453122403
     0.504498783  0.058499487  0.433469466
     0.578302869  0.242010972  0.581428482
     0.175005107  0.724222295  0.439856404
     0.787106872  0.297698189  0.405698285
     0.858679903  0.644995130  0.458990911
     0.004181693  0.832281379  0.581819038
     0.126598345  0.196944197  0.587921855
     0.144759929  0.896099548  0.558565838
     0.059085542  0.567283691  0.532539555
     0.983534366  0.889350714  0.451563789
     0.773279083  0.827169065  0.537262524
     0.138533852  0.811536821  0.639099113
     0.840256673  0.441556546  0.380725819
     0.842850946  0.409826733  0.515364096
     0.737103381  0.963975501  0.397786910
     0.392330729  0.430667858  0.452783824
     0.375494311  0.036297696  0.604847272
     0.896779335  0.188914037  0.435693801
     0.317225334  0.747248402  0.404390463
     0.917579178  0.269210777  0.506087805
     0.973957765  0.407911390  0.636727003
     0.091593278  0.053301872  0.553689999
     0.659165286  0.059695266  0.343627809
     0.453366724  0.672876305  0.521821678
     0.841033095  0.178277683  0.559118342
     0.745675571  0.268279483  0.613211105
     0.418221284  0.085927500  0.503580086
     0.750127595  0.833051440  0.619058971
     0.622921591  0.580879219  0.603777077
     0.229092441  0.415570140  0.578033216
     0.830773302  0.409801808  0.597522203
     0.694490947  0.713317516  0.379712313
     0.644573397  0.013147642  0.561080508
     0.425607929  0.305982122  0.404000008
     0.988305894  0.445771034  0.415631129
     0.720085272  0.120331128  0.512867724
     0.510228134  0.095333513  0.572175488
     0.278479334  0.261057257  0.571641244
     0.558059598  0.548952967  0.528669026
     0.145569441  0.097552527  0.478703922

  ion indices of the primitive-cell ions
   primitive index   ion index
                 1           1
                 2           2
                 3           3
                 4           4
                 5           5
                 6           6
                 7           7
                 8           8
                 9           9
                10          10
                11          11
                12          12
                13          13
                14          14
                15          15
                16          16
                17          17
                18          18
                19          19
                20          20
                21          21
                22          22
                23          23
                24          24
                25          25
                26          26
                27          27
                28          28
                29          29
                30          30
                31          31
                32          32
                33          33
                34          34
                35          35
                36          36
                37          37
                38          38
                39          39
                40          40
                41          41
                42          42
                43          43
                44          44
                45          45
                46          46
                47          47
                48          48
                49          49
                50          50
                51          51
                52          52
                53          53
                54          54
                55          55
                56          56
                57          57
                58          58
                59          59
                60          60
                61          61
                62          62
                63          63
                64          64
                65          65
                66          66
                67          67
                68          68
                69          69
                70          70
                71          71
                72          72
                73          73
                74          74
                75          75
                76          76
                77          77
                78          78
                79          79
                80          80
                81          81
                82          82
                83          83
                84          84
                85          85
                86          86
                87          87
                88          88
                89          89
                90          90
                91          91
                92          92
                93          93
                94          94
                95          95
                96          96
                97          97
                98          98
                99          99

----------------------------------------------------------------------------------------


 -----------------------------------------------------------------------------
|                                                                             |
|           W    W    AA    RRRRR   N    N  II  N    N   GGGG   !!!           |
|           W    W   A  A   R    R  NN   N  II  NN   N  G    G  !!!           |
|           W    W  A    A  R    R  N N  N  II  N N  N  G       !!!           |
|           W WW W  AAAAAA  RRRRR   N  N N  II  N  N N  G  GGG   !            |
|           WW  WW  A    A  R   R   N   NN  II  N   NN  G    G                |
|           W    W  A    A  R    R  N    N  II  N    N   GGGG   !!!           |
|                                                                             |
|     The requested file  could not be found or opened for reading            |
|     k-point information. Automatic k-point generation is used as a          |
|     fallback, which may lead to unwanted results.                           |
|                                                                             |
 -----------------------------------------------------------------------------



Automatic generation of k-mesh.
 Grid dimensions derived from KSPACING:
 generate k-points for:    2    2    1

 Generating k-lattice:

  Cartesian coordinates                     Fractional coordinates (reciprocal lattice)
     0.034352502  0.000000000  0.000000000     0.500000000  0.000000000  0.000000000
     0.000000000  0.034352502  0.000000000     0.000000000  0.500000000  0.000000000
     0.000000000  0.000000000  0.035281176     0.000000000  0.000000000  1.000000000

  Length of vectors
     0.034352502  0.034352502  0.035281176

  Shift w.r.t. Gamma in fractional coordinates (k-lattice)
     0.000000000  0.000000000  0.000000000

 
 Subroutine IBZKPT returns following result:
 ===========================================
 
 Found      4 irreducible k-points:
 
 Following reciprocal coordinates:
            Coordinates               Weight
  0.000000  0.000000  0.000000      1.000000
  0.500000  0.000000  0.000000      1.000000
  0.000000  0.500000  0.000000      1.000000
  0.500000  0.500000  0.000000      1.000000
 
 Following cartesian coordinates:
            Coordinates               Weight
  0.000000  0.000000  0.000000      1.000000
  0.034353  0.000000  0.000000      1.000000
  0.000000  0.034353  0.000000      1.000000
  0.034353  0.034353  0.000000      1.000000
 


--------------------------------------------------------------------------------------------------------




 Dimension of arrays:
   k-points           NKPTS =      4   k-points in BZ     NKDIM =      4   number of bands    NBANDS=    248
   number of dos      NEDOS =   2000   number of ions     NIONS =     99
   non local maximal  LDIM  =      4   non local SUM 2l+1 LMDIM =      8
   total plane-waves  NPLWV = ******
   max r-space proj   IRMAX =      1   max aug-charges    IRDMAX= 402479
   dimension x,y,z NGX =   168 NGY =  168 NGZ =  320
   dimension x,y,z NGXF=   336 NGYF=  336 NGZF=  640
   support grid    NGXF=   672 NGYF=  672 NGZF= 1280
   ions per type =               4  95
   NGX,Y,Z   is equivalent  to a cutoff of  19.19, 19.19, 18.77 a.u.
   NGXF,Y,Z  is equivalent  to a cutoff of  38.38, 38.38, 37.54 a.u.

 SYSTEM =  a-Si SPC                                
 POSCAR =   H Si                                   

 Startparameter for this run:
   NWRITE =      2    write-flag & timer
   PREC   = accura    normal or accurate (medium, high low for compatibility)
   ISTART =      1    job   : 0-new  1-cont  2-samecut
   ICHARG =      1    charge: 1-file 2-atom 10-const
   ISPIN  =      1    spin polarized calculation?
   LNONCOLLINEAR =      F non collinear calculations
   LSORBIT =      F    spin-orbit coupling
   INIWAV =      1    electr: 0-lowe 1-rand  2-diag
   LASPH  =      T    aspherical Exc in radial PAW
 Electronic Relaxation 1
   ENCUT  = 1200.0 eV  88.20 Ry    9.39 a.u.  41.11 41.11 80.06*2*pi/ulx,y,z
   ENINI  = 1200.0     initial cutoff
   ENAUG  =  400.0 eV  augmentation charge cutoff
   NELM   =    150;   NELMIN=  2; NELMDL=  0     # of ELM steps 
   EDIFF  = 0.1E-05   stopping-criterion for ELM
   LREAL  =      F    real-space projection
   NLSPLINE    = F    spline interpolate recip. space projectors
   LCOMPAT=      F    compatible to vasp.4.4
   GGA_COMPAT  = T    GGA compatible to vasp.4.4-vasp.4.6
   LMAXPAW     = -100 max onsite density
   LMAXMIX     =    2 max onsite mixed and CHGCAR
   VOSKOWN=      0    Vosko Wilk Nusair interpolation
   ROPT   =    0.00000   0.00000
 Ionic relaxation
   EDIFFG = -.1E-01   stopping-criterion for IOM
   NSW    =      0    number of steps for IOM
   NBLOCK =      1;   KBLOCK =      1    inner block; outer block 
   IBRION =     -1    ionic relax: 0-MD 1-quasi-New 2-CG
   NFREE  =      0    steps in history (QN), initial steepest desc. (CG)
   ISIF   =      2    stress and relaxation
   IWAVPR =     10    prediction:  0-non 1-charg 2-wave 3-comb
   ISYM   =      1    0-nonsym 1-usesym 2-fastsym
   LCORR  =      T    Harris-Foulkes like correction to forces

   POTIM  = 0.5000    time-step for ionic-motion
   TEIN   =    0.0    initial temperature
   TEBEG  =    0.0;   TEEND  =   0.0 temperature during run
   SMASS  =  -3.00    Nose mass-parameter (am)
   estimated Nose-frequenzy (Omega)   =  0.10E-29 period in steps = 0.13E+47 mass=  -0.484E-26a.u.
   SCALEE = 1.0000    scale energy and forces
   NPACO  =    256;   APACO  = 10.0  distance and # of slots for P.C.
   PSTRESS=    0.0 pullay stress

  Mass of Ions in am
   POMASS =   1.00 28.09
  Ionic Valenz
   ZVAL   =   1.00  4.00
  Atomic Wigner-Seitz radii
   RWIGS  =  -1.00 -1.00
  virtual crystal weights 
   VCA    =   1.00  1.00
   NELECT =     384.0000    total number of electrons
   NUPDOWN=      -1.0000    fix difference up-down

 DOS related values:
   EMIN   =  10.00;   EMAX   =-10.00  energy-range for DOS
   EFERMI =   0.00;   METHOD = LEGACY      
   ISMEAR =     0;   SIGMA  =   0.10  broadening in eV -4-tet -1-fermi 0-gaus
   EFERMI_NEDOS =   21; number of points for ismear=-14 and -15

 Electronic relaxation 2 (details)
   IALGO  =     38    algorithm
   LDIAG  =      F    sub-space diagonalisation (order eigenvalues)
   LSUBROT=      F    optimize rotation matrix (better conditioning)
   TURBO    =      0    0=normal 1=particle mesh
   IRESTART =      0    0=no restart 2=restart with 2 vectors
   NREBOOT  =      0    no. of reboots
   NMIN     =      0    reboot dimension
   EREF     =   0.00    reference energy to select bands
   IMIX   =      4    mixing-type and parameters
     AMIX     =   0.40;   BMIX     =  1.00
     AMIX_MAG =   1.60;   BMIX_MAG =  1.00
     AMIN     =   0.10
     WC   =   100.;   INIMIX=   1;  MIXPRE=   1;  MAXMIX= -45

 Intra band minimization:
   WEIMIN = 0.0000     energy-eigenvalue tresh-hold
   EBREAK =  0.10E-08  absolut break condition
   DEPER  =   0.30     relativ break condition  

   TIME   =   0.40     timestep for ELM

  volume/ion in A,a.u.               =      60.65       409.30
  Fermi-wavevector in a.u.,A,eV,Ry     =   0.654674  1.237155  5.831432  0.428598
  Thomas-Fermi vector in A             =   1.725307

 Write flags
   LWAVE        =      F    write WAVECAR
   LDOWNSAMPLE  =      F    k-point downsampling of WAVECAR
   LCHARG       =      F    write CHGCAR
   LVTOT        =      F    write LOCPOT, total local potential
   LVHAR        =      F    write LOCPOT, Hartree potential only
   WRT_POTENTIAL= false  ! write potential to hdf5 file
   LELF         =      F    write electronic localiz. function (ELF)
   LORBIT       =     11    0 simple, 1 ext, 2 COOP (PROOUT), +10 PAW based schemes


 Python interface
   PLUGINS active      =      F    recompile with -DPLUGINS to activate

 Dipole corrections
   LMONO      =      F    monopole corrections only (constant potential shift)
   LDIPOL     =      F    correct potential (dipole corrections)
   IDIPOL     =      0    1-x, 2-y, 3-z, 4-all directions 
   EPSILON    =  1.0000000 bulk dielectric constant
   LVACPOTAV  =      F  vacuum potentials using an averaging scheme for the charge density
   VACPOTFLAT =  0.1000000 required flatness to determine vacuum potential

Coulomb truncation method
  LTRUNCATE          =      F  Coulomb kernel truncation to be used
  IDIMENSIONALITY    =      3  Dimensionality of cutoff (0 molecules / 2 surfaces)
  ISURFACE           =     -1  Direction of surface normal
  LCOARSEN           =      F  Coarsen the charge grid before padding, preferred


 Exchange correlation treatment:
   METAGGA = SCAN    functional components
   XC_C    = 1    coefficients multiplying the functional components
   LIBXC   =     F    Libxc                    
   VOSKOWN =     0    Vosko Wilk Nusair interpolation
   LHFCALC =     F    Hartree Fock is set to
   LHFONE  =     F    Hartree Fock one center treatment
   AEXX    =    0.0000 exact exchange contribution

 Parameters of functionals:
   SCAN:
     P1 =  0.000000E+00
     P2 =  0.000000E+00
     P3 =  0.000000E+00

 Accuracy and mixing parameters for tau-dependent meta-GGA functionals:
   LMAXTAU = 6
   LMIXTAU = T

 Van der Waals corrections
   IVDW    =     0    specifies the selected vdW correction

 Linear response parameters
   LEPSILON=     F    determine dielectric tensor
   LRPA    =     F    only Hartree local field effects (RPA)
   LNABLA  =     F    use nabla operator in PAW spheres
   LVEL    =     F    velocity operator in full k-point grid
   CSHIFT  =0.1000    complex shift for real part using Kramers Kronig
   OMEGAMAX=  -1.0    maximum frequency
   DEG_THRESHOLD= 0.2000000E-02 threshold for treating states as degnerate
   RTIME   =   -0.100 relaxation time in fs
  (WPLASMAI=    0.000 imaginary part of plasma frequency in eV, 0.658/RTIME)
   DFIELD  = 0.0000000 0.0000000 0.0000000 field for delta impulse in time

  Optional k-point grid parameters
   LKPOINTS_OPT  =     F    use optional k-point grid
   KPOINTS_OPT_MODE=     1    mode for optional k-point grid

 Orbital magnetization related:
   ORBITALMAG=     F  switch on orbital magnetization
   LCHIMAG   =     F  perturbation theory with respect to B field
   DQ        =  0.001000  dq finite difference perturbation B field
   LLRAUG    =     F  two centre corrections for induced B field
   LBONE     =     F  B-component reconstruction in AE one-centre
   LVGVCALC  =     T  calculate vGv susceptibility
   LVGVAPPL  =     F  apply vGv susceptibility instead of pGv for G=0

 Random number generation:
   RANDOM_GENERATOR = DEFAULT
   PCG_SEED         = not used


--------------------------------------------------------------------------------------------------------


 Static calculation
 charge density and potential will be updated during run
 non-spin polarized calculation
 Variant of blocked Davidson
 perform Loewdin sub-space diagonalisation
    ordering is kept fixed
    before iterative eigenvector-optimisation
 modified Broyden-mixing scheme, WC =      100.0
 initial mixing is a Kerker type mixing with AMIX =  0.4000 and BMIX =      1.0000
 Hartree-type preconditioning will be used
 using additional bands           56
 reciprocal scheme for non local part
 use partial core corrections
 calculate Harris-corrections to forces   (improved forces if not selfconsistent)
 use gradient corrections 
 use of overlap-Matrix (Vanderbilt PP)
 Gauss-broadening in eV      SIGMA  =   0.10


--------------------------------------------------------------------------------------------------------


  energy-cutoff  :     1200.00
  volume of cell :     6004.55
      direct lattice vectors                 reciprocal lattice vectors
    14.554980695  0.000000000  0.000000000     0.068705004  0.000000000  0.000000000
     0.000000000 14.554980695  0.000000000     0.000000000  0.068705004  0.000000000
     0.000000000  0.000000000 28.343726800     0.000000000  0.000000000  0.035281176

  length of vectors
    14.554980695 14.554980695 28.343726800     0.068705004  0.068705004  0.035281176



 old parameters found on file WAVECAR:
  energy-cutoff  :     1200.00
  volume of cell :     6004.55
      direct lattice vectors                 reciprocal lattice vectors
    14.554980695  0.000000000  0.000000000     0.068705004  0.000000000  0.000000000
     0.000000000 14.554980695  0.000000000     0.000000000  0.068705004  0.000000000
     0.000000000  0.000000000 28.343726800     0.000000000  0.000000000  0.035281176

  length of vectors


 k-points in units of 2pi/SCALE and weight: read from INCAR                         
   0.00000000  0.00000000  0.00000000       0.250
   0.03435250  0.00000000  0.00000000       0.250
   0.00000000  0.03435250  0.00000000       0.250
   0.03435250  0.03435250  0.00000000       0.250

 k-points in reciprocal lattice and weights: read from INCAR                         
   0.00000000  0.00000000  0.00000000       0.250
   0.50000000  0.00000000  0.00000000       0.250
   0.00000000  0.50000000  0.00000000       0.250
   0.50000000  0.50000000  0.00000000       0.250

 position of ions in fractional coordinates (direct lattice) 
   0.58428640  0.30936975  0.30798590
   0.61563319  0.28004874  0.32638024
   0.25937168  0.96670638  0.51919442
   0.25000384  0.44090447  0.52728250
   0.66826083  0.20733521  0.37501006
   0.74792739  0.57489316  0.41296425
   0.94233715  0.52019275  0.48195734
   0.08502641  0.54586906  0.37935279
   0.07201829  0.43057737  0.57405052
   0.33899054  0.89809220  0.42585001
   0.42423215  0.99090999  0.37175546
   0.62376880  0.24758528  0.50133337
   0.29639855  0.07389176  0.39009193
   0.06755888  0.70164554  0.37937805
   0.62037962  0.73645977  0.62343175
   0.00276764  0.72017056  0.65249565
   0.04427164  0.99362142  0.39350423
   0.44839456  0.68663712  0.43839614
   0.43247237  0.46224427  0.61484238
   0.82791948  0.67596534  0.53733801
   0.06755076  0.29709151  0.52718574
   0.93052717  0.04196645  0.56263914
   0.86504135  0.01313483  0.63601088
   0.43323321  0.31188059  0.58940678
   0.12911667  0.85800329  0.47812766
   0.19555314  0.43627420  0.36647626
   0.19624515  0.60383268  0.49227861
   0.52387704  0.79387378  0.56474237
   0.87601934  0.94086155  0.50582657
   0.76868884  0.55325039  0.58217376
   0.60300541  0.92589276  0.44046446
   0.46139161  0.42091011  0.52909955
   0.30237686  0.64657571  0.55268657
   0.90148959  0.85142019  0.64765556
   0.28460028  0.18133277  0.49745726
   0.26004117  0.79034033  0.58719668
   0.86483825  0.17512668  0.64889544
   0.57252788  0.46311091  0.65161158
   0.81121372  0.05368516  0.45504059
   0.19056966  0.97557364  0.42713707
   0.62832269  0.50615236  0.45564847
   0.80358751  0.82341015  0.37089677
   0.04935955  0.15089743  0.41508418
   0.39279098  0.88119401  0.58162357
   0.29610734  0.53989979  0.61659798
   0.97385616  0.67774491  0.57295380
   0.56812867  0.77875471  0.41219757
   0.71121940  0.36854531  0.47159407
   0.48890808  0.53598375  0.41623345
   0.29563172  0.22427119  0.41762067
   0.15247043  0.27186405  0.38973030
   0.00015374  0.25313948  0.63202971
   0.35657948  0.94092392  0.50733069
   0.70808098  0.98295618  0.63440757
   0.62696075  0.87824626  0.51795279
   0.54758715  0.21369961  0.42931665
   0.23217843  0.46979212  0.44727569
   0.92822152  0.76020174  0.41236451
   0.11126703  0.36047414  0.45312240
   0.50449878  0.05849949  0.43346947
   0.57830287  0.24201097  0.58142848
   0.17500511  0.72422230  0.43985640
   0.78710687  0.29769819  0.40569828
   0.85867990  0.64499513  0.45899091
   0.00418169  0.83228138  0.58181904
   0.12659835  0.19694420  0.58792186
   0.14475993  0.89609955  0.55856584
   0.05908554  0.56728369  0.53253956
   0.98353437  0.88935071  0.45156379
   0.77327908  0.82716907  0.53726252
   0.13853385  0.81153682  0.63909911
   0.84025667  0.44155655  0.38072582
   0.84285095  0.40982673  0.51536410
   0.73710338  0.96397550  0.39778691
   0.39233073  0.43066786  0.45278382
   0.37549431  0.03629770  0.60484727
   0.89677934  0.18891404  0.43569380
   0.31722533  0.74724840  0.40439046
   0.91757918  0.26921078  0.50608780
   0.97395777  0.40791139  0.63672700
   0.09159328  0.05330187  0.55369000
   0.65916529  0.05969527  0.34362781
   0.45336672  0.67287631  0.52182168
   0.84103309  0.17827768  0.55911834
   0.74567557  0.26827948  0.61321111
   0.41822128  0.08592750  0.50358009
   0.75012760  0.83305144  0.61905897
   0.62292159  0.58087922  0.60377708
   0.22909244  0.41557014  0.57803322
   0.83077330  0.40980181  0.59752220
   0.69449095  0.71331752  0.37971231
   0.64457340  0.01314764  0.56108051
   0.42560793  0.30598212  0.40400001
   0.98830589  0.44577103  0.41563113
   0.72008527  0.12033113  0.51286772
   0.51022813  0.09533351  0.57217549
   0.27847933  0.26105726  0.57164124
   0.55805960  0.54895297  0.52866903
   0.14556944  0.09755253  0.47870392

 position of ions in cartesian coordinates  (Angst):
   8.50427724  4.50287080  8.72946829
   8.96052919  4.07610394  9.25083233
   3.77514983 14.07039273 14.71590473
   3.63880105  6.41735610 14.94515109
   9.72652355  3.01775998 10.62918274
  10.88606866  8.36755890 11.70494587
  13.71569901  7.57139545 13.66046714
   1.23755769  7.94511363 10.75227172
   1.04822479  6.26704538 16.27073111
   4.93400081 13.07171463 12.07017636
   6.17469078 14.42267578 10.53693516
   9.07894288  3.60359893 14.20965615
   4.31407512  1.07549309 11.05665896
   0.98331824 10.21243730 10.75298787
   9.02961341 10.71915774 17.67037921
   0.04028292 10.48206858 18.49415857
   0.64437283 14.46214065 11.15337653
   6.52637421  9.99399005 12.42578050
   6.29462701  6.72795637 17.42692440
  12.05035210  9.83866245 15.23016170
   0.98319997  4.32416124 14.94240858
  13.54380503  0.61082082 15.94729015
  12.59066010  0.19117718 18.02691874
   6.30570096  4.53941593 16.70598475
   1.87929065 12.48822132 13.55191972
   2.84627219  6.34996249 10.38730313
   2.85634430  8.78877300 13.95301050
   7.62502016 11.55481747 16.00690343
  12.75044462 13.69422165 14.33701014
  11.18825116  8.05254878 16.50097409
   8.77673208 13.47635132 12.48440425
   6.71554592  6.12633850 14.99665306
   4.40108936  9.41089699 15.66519726
  13.12116360 12.39240441 18.35697232
   4.14235157  2.63929500 14.09979270
   3.78489427 11.50338823 16.64334220
  12.58770401  2.54896543 18.39211514
   8.33313222  6.74057032 18.46910060
  11.80720005  0.78138654 12.89754628
   2.77373768 14.19945544 12.10665636
   9.14522457  7.36703789 12.91477571
  11.69620074 11.98471879 10.51259677
   0.71842737  2.19630913 11.76503271
   5.71706512 12.82576174 16.48537962
   4.30983660  7.85823100 17.47668460
  14.17445758  9.86456411 16.23964586
   8.26910185 11.33475983 11.68321519
  10.35178469  5.36416980 13.36673338
   7.11604773  7.80123316 11.79760729
   4.30291391  3.26426281 11.83692627
   2.21920420  3.95697604 11.04640916
   0.00223767  3.68444021 17.91407749
   5.19000742 13.69512954 14.37964243
  10.30610501 14.30690827 17.98147471
   9.12540168 12.78285740 14.68071250
   7.97012036  3.11039367 12.16843375
   3.37935252  6.83781529 12.67745997
  13.51024637 11.06472172 11.68794700
   1.61948951  5.24669411 12.84317761
   7.34297005  0.85145890 12.28614011
   8.41718710  3.52246502 16.47985004
   2.54719595 10.54104153 12.46716974
  11.45632533  4.33299140 11.49900135
  12.49806941  9.38789167 13.00951299
   0.06086446 12.11383940 16.49091985
   1.84263647  2.86651899 16.66389645
   2.10697797 13.04271162 15.83183752
   0.85998892  8.25680317 15.09415567
  14.31532371 12.94448247 12.79900068
  11.25506212 12.03942978 15.22802219
   2.01635754 11.81190276 18.11445066
  12.22991965  6.42684701 10.79118861
  12.26767925  5.96502019 14.60733913
  10.72852548 14.03064481 11.27476350
   5.71036619  6.26836236 12.83358102
   5.46531245  0.52831226 17.14362582
  13.05260591  2.74964016 12.34918607
   4.61720861 10.87618607 11.46193280
  13.35534722  3.91835766 14.34441447
  14.17593647  5.93714241 18.04721622
   1.33313840  0.77580772 15.69363805
   9.59413801  0.86886345  9.73969273
   6.59874391  9.79370163 14.79037108
  12.24122046  2.59482823 15.84749753
  10.85329354  3.90480270 17.38068804
   6.08720272  1.25067310 14.27333638
  10.91809267 12.12504763 17.54643834
   9.06661173  8.45468582 17.11329253
   3.33443605  6.04861536 16.38361555
  12.09188937  5.96465740 16.93600608
  10.10830232 10.38232268 10.76246207
   9.38175335  0.19136368 15.90311264
   6.19471519  4.45356388 11.45086584
  14.38477321  6.48818879 11.78053517
  10.48082724  1.75141724 14.53658266
   7.42636064  1.38757744 16.21758571
   4.05326133  3.79968334 16.20244326
   8.12254667  7.98999984 14.98445044
   2.11876040  1.41987515 13.56825318



--------------------------------------------------------------------------------------------------------


 k-point     1 :   0.0000 0.0000 0.0000  plane waves:  566577
 k-point     2 :   0.5000 0.0000 0.0000  plane waves:  566746
 k-point     3 :   0.0000 0.5000 0.0000  plane waves:  566746
 k-point     4 :   0.5000 0.5000 0.0000  plane waves:  566828

 maximum and minimum number of plane-waves per node :     35465    35357

 maximum number of plane-waves:    566828
 maximum index in each direction: 
   IXMAX=   41   IYMAX=   41   IZMAX=   80
   IXMIN=  -41   IYMIN=  -41   IZMIN=  -80


 parallel 3D FFT for wavefunctions:
    minimum data exchange during FFTs selected (reduces bandwidth)
 parallel 3D FFT for charge:
    minimum data exchange during FFTs selected (reduces bandwidth)


 total amount of memory used by VASP MPI-rank0   367685. kBytes
=======================================================================

   base                                    :      30000. kBytes
   nonl-proj                               :      74332. kBytes
   fftplans                                :     108870. kBytes
   grid                                    :      83991. kBytes
   one-center                              :         21. kBytes
   wavefun                                 :      70471. kBytes

     INWAV:  cpu time     20.5112: real time     20.5260
 Broyden mixing: mesh for mixing (old mesh)
   NGX = 83   NGY = 83   NGZ =161
  (NGX  =336   NGY  =336   NGZ  =640)
  gives a total of ****** points

 initial charge density was supplied:
 number of electron     383.9999999 magnetization 
 keeping initial charge density in first step


--------------------------------------------------------------------------------------------------------


 Maximum index for augmentation-charges        11240 (set IRDMAX)


--------------------------------------------------------------------------------------------------------


 First call to EWALD:  gamma=   0.098
 Maximum number of real-space cells   3x   3x   2
 Maximum number of reciprocal cells   2x   2x   4

    FEWALD:  cpu time      0.0162: real time      0.0163


--------------------------------------- Ionic step        1  -------------------------------------------




--------------------------------------- Iteration      1(   1)  ---------------------------------------


    POTLOK:  cpu time      2.1743: real time      2.1756
    SETDIJ:  cpu time      1.7081: real time      1.7092
    EDDIAG:  cpu time     41.6737: real time     41.6990
     EDDAV:  cpu time    192.7707: real time    192.8684
       DOS:  cpu time      0.0077: real time      0.0080
    CHARGE:  cpu time     23.9722: real time     23.9938
    MIXING:  cpu time      0.0504: real time      0.0512
    --------------------------------------------
      LOOP:  cpu time    262.3572: real time    262.5052

 eigenvalue-minimisations  :  1984
 total energy-change (2. order) :-0.9729008E+03  (-0.1046105E+01)
 number of electron     383.9999999 magnetization 
 augmentation part      -21.5864100 magnetization 

 Broyden mixing:
  rms(total) = 0.11996E+01    rms(broyden)= 0.28351E+02
  rms(prec ) = 0.12338E+01
  weight for this iteration     100.00
  WARNING: grid for Broyden might be to small

 Free energy of the ion-electron system (eV)
  ---------------------------------------------------
  alpha Z        PSCENC =        51.75240132
  Ewald energy   TEWEN  =     62019.48133295
  -Hartree energ DENC   =    -70802.19189293
  -exchange      EXHF   =         0.00000000
  -V(xc)+E(xc)   XCENC  =      -454.38770342
  PAW double counting   =     35733.44356569   -34786.37700550
  entropy T*S    EENTRO =        -0.17110776
  eigenvalues    EBANDS =     -2575.75319575
  atomic energy  EATOM  =      9841.30284710
  Solvation  Ediel_sol  =         0.00000000
  ---------------------------------------------------
  free energy    TOTEN  =      -972.90075831 eV

  energy without entropy =     -972.72965054  energy(sigma->0) =     -972.81520442


--------------------------------------------------------------------------------------------------------




--------------------------------------- Iteration      1(   2)  ---------------------------------------


    POTLOK:  cpu time      2.1338: real time      2.1605
    SETDIJ:  cpu time      1.6715: real time      1.6723
    EDDIAG:  cpu time     41.8125: real time     41.8364
     EDDAV:  cpu time    194.7360: real time    194.8312
       DOS:  cpu time      0.0035: real time      0.0035
    CHARGE:  cpu time     23.8438: real time     23.8642
    MIXING:  cpu time      0.0438: real time      0.0439
    --------------------------------------------
      LOOP:  cpu time    264.2448: real time    264.4120

 eigenvalue-minimisations  :  2016
 total energy-change (2. order) : 0.6767100E+02  (-0.1019176E+01)
 number of electron     383.9999999 magnetization 
 augmentation part      -21.5024843 magnetization 

 Broyden mixing:
  rms(total) = 0.81410E+00    rms(broyden)= 0.16436E+02
  rms(prec ) = 0.83193E+00
  weight for this iteration     100.00
  WARNING: grid for Broyden might be to small

 eigenvalues of (default mixing * dielectric matrix)
  average eigenvalue GAMMA=   0.6331
  0.6331

 Free energy of the ion-electron system (eV)
  ---------------------------------------------------
  alpha Z        PSCENC =        51.75240132
  Ewald energy   TEWEN  =     62019.48133295
  -Hartree energ DENC   =    -70787.74636946
  -exchange      EXHF   =         0.00000000
  -V(xc)+E(xc)   XCENC  =      -444.25601279
  PAW double counting   =     42682.99412276   -41735.70609034
  entropy T*S    EENTRO =        -0.15219586
  eigenvalues    EBANDS =     -2532.89979756
  atomic energy  EATOM  =      9841.30284710
  Solvation  Ediel_sol  =         0.00000000
  ---------------------------------------------------
  free energy    TOTEN  =      -905.22976189 eV

  energy without entropy =     -905.07756602  energy(sigma->0) =     -905.15366396


--------------------------------------------------------------------------------------------------------




--------------------------------------- Iteration      1(   3)  ---------------------------------------


    POTLOK:  cpu time      2.1551: real time      2.1604
    SETDIJ:  cpu time      1.6742: real time      1.6756
    EDDIAG:  cpu time     41.8215: real time     41.8484
     EDDAV:  cpu time    194.4807: real time    194.5823
       DOS:  cpu time      0.0031: real time      0.0031
    CHARGE:  cpu time     23.8341: real time     23.8548
    MIXING:  cpu time      0.0429: real time      0.0429
    --------------------------------------------
      LOOP:  cpu time    264.0117: real time    264.1676

 eigenvalue-minimisations  :  2016
 total energy-change (2. order) :-0.3860448E+01  (-0.8368726E+00)
 number of electron     383.9999999 magnetization 
 augmentation part      -21.4323050 magnetization 

 Broyden mixing:
  rms(total) = 0.33105E+00    rms(broyden)= 0.24854E+02
  rms(prec ) = 0.41624E+00
  weight for this iteration     100.00
  WARNING: grid for Broyden might be to small

 eigenvalues of (default mixing * dielectric matrix)
  average eigenvalue GAMMA=   0.7783
  0.9309  0.6257

 Free energy of the ion-electron system (eV)
  ---------------------------------------------------
  alpha Z        PSCENC =        51.75240132
  Ewald energy   TEWEN  =     62019.48133295
  -Hartree energ DENC   =    -70789.44372070
  -exchange      EXHF   =         0.00000000
  -V(xc)+E(xc)   XCENC  =      -448.59758978
  PAW double counting   =     50984.35312258   -50037.22579000
  entropy T*S    EENTRO =        -0.16456485
  eigenvalues    EBANDS =     -2530.54824859
  atomic energy  EATOM  =      9841.30284710
  Solvation  Ediel_sol  =         0.00000000
  ---------------------------------------------------
  free energy    TOTEN  =      -909.09020998 eV

  energy without entropy =     -908.92564513  energy(sigma->0) =     -909.00792756


--------------------------------------------------------------------------------------------------------




--------------------------------------- Iteration      1(   4)  ---------------------------------------


    POTLOK:  cpu time      2.1355: real time      2.1646
    SETDIJ:  cpu time      1.6814: real time      1.6819
    EDDIAG:  cpu time     41.7055: real time     41.7321
     EDDAV:  cpu time    196.2160: real time    196.3172
       DOS:  cpu time      0.0021: real time      0.0021
    CHARGE:  cpu time     23.8260: real time     23.8481
    MIXING:  cpu time      0.0429: real time      0.0430
    --------------------------------------------
      LOOP:  cpu time    265.6095: real time    265.7891

 eigenvalue-minimisations  :  2048
 total energy-change (2. order) : 0.4306878E+00  (-0.8505297E-01)
 number of electron     383.9999999 magnetization 
 augmentation part      -21.4230392 magnetization 

 Broyden mixing:
  rms(total) = 0.57475E-01    rms(broyden)= 0.22904E+01
  rms(prec ) = 0.66704E-01
  weight for this iteration     100.00
  WARNING: grid for Broyden might be to small

 eigenvalues of (default mixing * dielectric matrix)
  average eigenvalue GAMMA=   1.1396
  2.0866  0.7114  0.6207

 Free energy of the ion-electron system (eV)
  ---------------------------------------------------
  alpha Z        PSCENC =        51.75240132
  Ewald energy   TEWEN  =     62019.48133295
  -Hartree energ DENC   =    -70791.25717153
  -exchange      EXHF   =         0.00000000
  -V(xc)+E(xc)   XCENC  =      -449.63337448
  PAW double counting   =     57271.29191481   -56324.22101286
  entropy T*S    EENTRO =        -0.15890892
  eigenvalues    EBANDS =     -2527.21755060
  atomic energy  EATOM  =      9841.30284710
  Solvation  Ediel_sol  =         0.00000000
  ---------------------------------------------------
  free energy    TOTEN  =      -908.65952220 eV

  energy without entropy =     -908.50061328  energy(sigma->0) =     -908.58006774


--------------------------------------------------------------------------------------------------------




--------------------------------------- Iteration      1(   5)  ---------------------------------------


    POTLOK:  cpu time      2.1375: real time      2.1614
    SETDIJ:  cpu time      1.7392: real time      1.7405
    EDDIAG:  cpu time     41.7723: real time     41.7972
     EDDAV:  cpu time    218.8722: real time    218.9876
       DOS:  cpu time      0.0025: real time      0.0025
    CHARGE:  cpu time     23.8437: real time     23.8654
    MIXING:  cpu time      0.0431: real time      0.0431
    --------------------------------------------
      LOOP:  cpu time    288.4105: real time    288.5976

 eigenvalue-minimisations  :  2456
 total energy-change (2. order) :-0.3961509E-01  (-0.8947796E-02)
 number of electron     383.9999999 magnetization 
 augmentation part      -21.4254494 magnetization 

 Broyden mixing:
  rms(total) = 0.39178E-01    rms(broyden)= 0.30070E+00
  rms(prec ) = 0.45305E-01
  weight for this iteration     100.00
  WARNING: grid for Broyden might be to small

 eigenvalues of (default mixing * dielectric matrix)
  average eigenvalue GAMMA=   1.1518
  2.4991  0.8617  0.6233  0.6233

 Free energy of the ion-electron system (eV)
  ---------------------------------------------------
  alpha Z        PSCENC =        51.75240132
  Ewald energy   TEWEN  =     62019.48133295
  -Hartree energ DENC   =    -70791.87739179
  -exchange      EXHF   =         0.00000000
  -V(xc)+E(xc)   XCENC  =      -450.82349339
  PAW double counting   =     56594.27545285   -55647.16271176
  entropy T*S    EENTRO =        -0.15770387
  eigenvalues    EBANDS =     -2525.48987070
  atomic energy  EATOM  =      9841.30284710
  Solvation  Ediel_sol  =         0.00000000
  ---------------------------------------------------
  free energy    TOTEN  =      -908.69913729 eV

  energy without entropy =     -908.54143342  energy(sigma->0) =     -908.62028535


--------------------------------------------------------------------------------------------------------




--------------------------------------- Iteration      1(   6)  ---------------------------------------


    POTLOK:  cpu time      2.1596: real time      2.1607
    SETDIJ:  cpu time      1.6718: real time      1.6727
    EDDIAG:  cpu time     41.7242: real time     41.7494
     EDDAV:  cpu time    210.1126: real time    210.2255
       DOS:  cpu time      0.0044: real time      0.0044
    CHARGE:  cpu time     23.8300: real time     23.8507
    MIXING:  cpu time      0.0446: real time      0.0446
    --------------------------------------------
      LOOP:  cpu time    279.5473: real time    279.7081

 eigenvalue-minimisations  :  2296
 total energy-change (2. order) :-0.3809248E-02  (-0.1911357E-02)
 number of electron     383.9999999 magnetization 
 augmentation part      -21.4250488 magnetization 

 Broyden mixing:
  rms(total) = 0.26160E-01    rms(broyden)= 0.15041E+00
  rms(prec ) = 0.28621E-01
  weight for this iteration     100.00
  WARNING: grid for Broyden might be to small

 eigenvalues of (default mixing * dielectric matrix)
  average eigenvalue GAMMA=   1.1127
  2.5426  1.0424  0.7808  0.6252  0.5726

 Free energy of the ion-electron system (eV)
  ---------------------------------------------------
  alpha Z        PSCENC =        51.75240132
  Ewald energy   TEWEN  =     62019.48133295
  -Hartree energ DENC   =    -70792.21040611
  -exchange      EXHF   =         0.00000000
  -V(xc)+E(xc)   XCENC  =      -451.05921444
  PAW double counting   =     56508.43223523   -55561.30464625
  entropy T*S    EENTRO =        -0.15750710
  eigenvalues    EBANDS =     -2524.93998923
  atomic energy  EATOM  =      9841.30284710
  Solvation  Ediel_sol  =         0.00000000
  ---------------------------------------------------
  free energy    TOTEN  =      -908.70294654 eV

  energy without entropy =     -908.54543943  energy(sigma->0) =     -908.62419298


--------------------------------------------------------------------------------------------------------




--------------------------------------- Iteration      1(   7)  ---------------------------------------


    POTLOK:  cpu time      2.1384: real time      2.1649
    SETDIJ:  cpu time      1.6740: real time      1.6747
    EDDIAG:  cpu time     41.7757: real time     41.7995
     EDDAV:  cpu time    203.8254: real time    203.9359
       DOS:  cpu time      0.0047: real time      0.0047
    CHARGE:  cpu time     23.8402: real time     23.8605
    MIXING:  cpu time      0.0453: real time      0.0453
    --------------------------------------------
      LOOP:  cpu time    273.3037: real time    273.4855

 eigenvalue-minimisations  :  2176
 total energy-change (2. order) :-0.1685527E-02  (-0.9136221E-03)
 number of electron     383.9999999 magnetization 
 augmentation part      -21.4229123 magnetization 

 Broyden mixing:
  rms(total) = 0.13407E-01    rms(broyden)= 0.77956E-01
  rms(prec ) = 0.16704E-01
  weight for this iteration     100.00
  WARNING: grid for Broyden might be to small

 eigenvalues of (default mixing * dielectric matrix)
  average eigenvalue GAMMA=   1.0285
  2.5627  1.1779  0.7727  0.6163  0.6163  0.4249

 Free energy of the ion-electron system (eV)
  ---------------------------------------------------
  alpha Z        PSCENC =        51.75240132
  Ewald energy   TEWEN  =     62019.48133295
  -Hartree energ DENC   =    -70792.34483155
  -exchange      EXHF   =         0.00000000
  -V(xc)+E(xc)   XCENC  =      -450.90333324
  PAW double counting   =     56494.63119418   -55547.48507417
  entropy T*S    EENTRO =        -0.15903265
  eigenvalues    EBANDS =     -2524.98013600
  atomic energy  EATOM  =      9841.30284710
  Solvation  Ediel_sol  =         0.00000000
  ---------------------------------------------------
  free energy    TOTEN  =      -908.70463206 eV

  energy without entropy =     -908.54559941  energy(sigma->0) =     -908.62511574


--------------------------------------------------------------------------------------------------------




--------------------------------------- Iteration      1(   8)  ---------------------------------------


    POTLOK:  cpu time      2.1543: real time      2.1751
    SETDIJ:  cpu time      1.6754: real time      1.6767
    EDDIAG:  cpu time     41.7422: real time     41.7669
     EDDAV:  cpu time    201.7561: real time    201.8662
       DOS:  cpu time      0.0035: real time      0.0035
    CHARGE:  cpu time     23.8522: real time     23.8729
    MIXING:  cpu time      0.0449: real time      0.0449
    --------------------------------------------
      LOOP:  cpu time    271.2286: real time    271.4063

 eigenvalue-minimisations  :  2144
 total energy-change (2. order) :-0.6500482E-03  (-0.3977100E-03)
 number of electron     383.9999999 magnetization 
 augmentation part      -21.4216718 magnetization 

 Broyden mixing:
  rms(total) = 0.53730E-02    rms(broyden)= 0.53856E-01
  rms(prec ) = 0.73942E-02
  weight for this iteration     100.00
  WARNING: grid for Broyden might be to small

 eigenvalues of (default mixing * dielectric matrix)
  average eigenvalue GAMMA=   1.0290
  2.5516  1.4277  0.8515  0.7694  0.6291  0.5591  0.4147

 Free energy of the ion-electron system (eV)
  ---------------------------------------------------
  alpha Z        PSCENC =        51.75240132
  Ewald energy   TEWEN  =     62019.48133295
  -Hartree energ DENC   =    -70792.28148289
  -exchange      EXHF   =         0.00000000
  -V(xc)+E(xc)   XCENC  =      -450.78773499
  PAW double counting   =     56525.54979855   -55578.39040258
  entropy T*S    EENTRO =        -0.15829357
  eigenvalues    EBANDS =     -2525.17374801
  atomic energy  EATOM  =      9841.30284710
  Solvation  Ediel_sol  =         0.00000000
  ---------------------------------------------------
  free energy    TOTEN  =      -908.70528211 eV

  energy without entropy =     -908.54698854  energy(sigma->0) =     -908.62613533


--------------------------------------------------------------------------------------------------------




--------------------------------------- Iteration      1(   9)  ---------------------------------------


    POTLOK:  cpu time      2.1322: real time      2.1625
    SETDIJ:  cpu time      1.6794: real time      1.6806
    EDDIAG:  cpu time     41.7185: real time     41.7439
     EDDAV:  cpu time    197.5460: real time    197.6531
       DOS:  cpu time      0.0028: real time      0.0028
    CHARGE:  cpu time     23.8574: real time     23.8778
    MIXING:  cpu time      0.0451: real time      0.0451
    --------------------------------------------
      LOOP:  cpu time    266.9815: real time    267.1659

 eigenvalue-minimisations  :  2064
 total energy-change (2. order) : 0.1111296E-03  (-0.1630358E-03)
 number of electron     383.9999999 magnetization 
 augmentation part      -21.4221056 magnetization 

 Broyden mixing:
  rms(total) = 0.24507E-02    rms(broyden)= 0.25219E-01
  rms(prec ) = 0.28308E-02
  weight for this iteration     100.00
  WARNING: grid for Broyden might be to small

 eigenvalues of (default mixing * dielectric matrix)
  average eigenvalue GAMMA=   1.0913
  2.5047  2.2484  0.9932  0.7685  0.6836  0.6273  0.4932  0.4111

 Free energy of the ion-electron system (eV)
  ---------------------------------------------------
  alpha Z        PSCENC =        51.75240132
  Ewald energy   TEWEN  =     62019.48133295
  -Hartree energ DENC   =    -70792.09779597
  -exchange      EXHF   =         0.00000000
  -V(xc)+E(xc)   XCENC  =      -450.83291560
  PAW double counting   =     56543.75075461   -55596.58992926
  entropy T*S    EENTRO =        -0.15824431
  eigenvalues    EBANDS =     -2525.31362183
  atomic energy  EATOM  =      9841.30284710
  Solvation  Ediel_sol  =         0.00000000
  ---------------------------------------------------
  free energy    TOTEN  =      -908.70517098 eV

  energy without entropy =     -908.54692667  energy(sigma->0) =     -908.62604883


--------------------------------------------------------------------------------------------------------




--------------------------------------- Iteration      1(  10)  ---------------------------------------


    POTLOK:  cpu time      2.1517: real time      2.1625
    SETDIJ:  cpu time      1.6815: real time      1.6825
    EDDIAG:  cpu time     41.7024: real time     41.7284
     EDDAV:  cpu time    199.1124: real time    199.2214
       DOS:  cpu time      0.0048: real time      0.0048
    CHARGE:  cpu time     23.8612: real time     23.8830
    MIXING:  cpu time      0.0472: real time      0.0472
    --------------------------------------------
      LOOP:  cpu time    268.5610: real time    268.7296

 eigenvalue-minimisations  :  2104
 total energy-change (2. order) :-0.5885374E-04  (-0.6121987E-04)
 number of electron     383.9999999 magnetization 
 augmentation part      -21.4221591 magnetization 

 Broyden mixing:
  rms(total) = 0.14822E-02    rms(broyden)= 0.12607E-01
  rms(prec ) = 0.16990E-02
  weight for this iteration     100.00
  WARNING: grid for Broyden might be to small

 eigenvalues of (default mixing * dielectric matrix)
  average eigenvalue GAMMA=   1.1232
  2.5995  2.5995  1.0679  0.9099  0.6926  0.6926  0.6176  0.5236  0.4060

 Free energy of the ion-electron system (eV)
  ---------------------------------------------------
  alpha Z        PSCENC =        51.75240132
  Ewald energy   TEWEN  =     62019.48133295
  -Hartree energ DENC   =    -70791.92106676
  -exchange      EXHF   =         0.00000000
  -V(xc)+E(xc)   XCENC  =      -450.84569259
  PAW double counting   =     56548.34834224   -55601.18633189
  entropy T*S    EENTRO =        -0.15836884
  eigenvalues    EBANDS =     -2525.47869336
  atomic energy  EATOM  =      9841.30284710
  Solvation  Ediel_sol  =         0.00000000
  ---------------------------------------------------
  free energy    TOTEN  =      -908.70522983 eV

  energy without entropy =     -908.54686099  energy(sigma->0) =     -908.62604541


--------------------------------------------------------------------------------------------------------




--------------------------------------- Iteration      1(  11)  ---------------------------------------


    POTLOK:  cpu time      2.1396: real time      2.1629
    SETDIJ:  cpu time      1.6763: real time      1.6777
    EDDIAG:  cpu time     41.7597: real time     41.7845
     EDDAV:  cpu time    201.1887: real time    201.2904
       DOS:  cpu time      0.0074: real time      0.0075
    CHARGE:  cpu time     23.8358: real time     23.8570
    MIXING:  cpu time      0.0622: real time      0.0626
    --------------------------------------------
      LOOP:  cpu time    270.6697: real time    270.8426

 eigenvalue-minimisations  :  2136
 total energy-change (2. order) :-0.1331204E-03  (-0.2497086E-04)
 number of electron     383.9999999 magnetization 
 augmentation part      -21.4222882 magnetization 

 Broyden mixing:
  rms(total) = 0.78996E-03    rms(broyden)= 0.45369E-02
  rms(prec ) = 0.95958E-03
  weight for this iteration     100.00
  WARNING: grid for Broyden might be to small

 eigenvalues of (default mixing * dielectric matrix)
  average eigenvalue GAMMA=   1.1346
  2.7034  2.7034  1.3110  0.9716  0.7496  0.7496  0.4089  0.6290  0.5599  0.5599

 Free energy of the ion-electron system (eV)
  ---------------------------------------------------
  alpha Z        PSCENC =        51.75240132
  Ewald energy   TEWEN  =     62019.48133295
  -Hartree energ DENC   =    -70791.72416122
  -exchange      EXHF   =         0.00000000
  -V(xc)+E(xc)   XCENC  =      -450.85911413
  PAW double counting   =     56543.55600482   -55596.39280281
  entropy T*S    EENTRO =        -0.15836946
  eigenvalues    EBANDS =     -2525.66350152
  atomic energy  EATOM  =      9841.30284710
  Solvation  Ediel_sol  =         0.00000000
  ---------------------------------------------------
  free energy    TOTEN  =      -908.70536296 eV

  energy without entropy =     -908.54699350  energy(sigma->0) =     -908.62617823


--------------------------------------------------------------------------------------------------------




--------------------------------------- Iteration      1(  12)  ---------------------------------------


    POTLOK:  cpu time      2.1376: real time      2.1605
    SETDIJ:  cpu time      1.7018: real time      1.7029
    EDDIAG:  cpu time     41.7359: real time     41.7612
     EDDAV:  cpu time    196.1687: real time    196.2622
       DOS:  cpu time      0.0030: real time      0.0030
    CHARGE:  cpu time     23.8610: real time     23.8823
    MIXING:  cpu time      0.0475: real time      0.0475
    --------------------------------------------
      LOOP:  cpu time    265.6555: real time    265.8196

 eigenvalue-minimisations  :  2048
 total energy-change (2. order) :-0.1170063E-03  (-0.2031847E-04)
 number of electron     383.9999999 magnetization 
 augmentation part      -21.4223353 magnetization 

 Broyden mixing:
  rms(total) = 0.42650E-03    rms(broyden)= 0.38803E-02
  rms(prec ) = 0.58606E-03
  weight for this iteration     100.00
  WARNING: grid for Broyden might be to small

 eigenvalues of (default mixing * dielectric matrix)
  average eigenvalue GAMMA=   1.1598
  2.7821  2.7821  1.6199  1.0767  0.8349  0.8349  0.4098  0.6738  0.6226  0.5603
  0.5603

 Free energy of the ion-electron system (eV)
  ---------------------------------------------------
  alpha Z        PSCENC =        51.75240132
  Ewald energy   TEWEN  =     62019.48133295
  -Hartree energ DENC   =    -70791.55990433
  -exchange      EXHF   =         0.00000000
  -V(xc)+E(xc)   XCENC  =      -450.86611045
  PAW double counting   =     56540.75678449   -55593.59317388
  entropy T*S    EENTRO =        -0.15834910
  eigenvalues    EBANDS =     -2525.82130805
  atomic energy  EATOM  =      9841.30284710
  Solvation  Ediel_sol  =         0.00000000
  ---------------------------------------------------
  free energy    TOTEN  =      -908.70547996 eV

  energy without entropy =     -908.54713086  energy(sigma->0) =     -908.62630541


--------------------------------------------------------------------------------------------------------




--------------------------------------- Iteration      1(  13)  ---------------------------------------


    POTLOK:  cpu time      2.1322: real time      2.1596
    SETDIJ:  cpu time      1.6836: real time      1.6846
    EDDIAG:  cpu time     41.7591: real time     41.7847
     EDDAV:  cpu time    196.3475: real time    196.4512
       DOS:  cpu time      0.0038: real time      0.0038
    CHARGE:  cpu time     23.8567: real time     23.8774
    MIXING:  cpu time      0.0480: real time      0.0480
    --------------------------------------------
      LOOP:  cpu time    265.8309: real time    266.0094

 eigenvalue-minimisations  :  2048
 total energy-change (2. order) :-0.1224866E-03  (-0.1400032E-04)
 number of electron     383.9999999 magnetization 
 augmentation part      -21.4223712 magnetization 

 Broyden mixing:
  rms(total) = 0.27914E-03    rms(broyden)= 0.17930E-02
  rms(prec ) = 0.40461E-03
  weight for this iteration     100.00
  WARNING: grid for Broyden might be to small

 eigenvalues of (default mixing * dielectric matrix)
  average eigenvalue GAMMA=   1.1847
  2.8466  2.8466  1.8591  1.2470  1.0026  0.7880  0.7880  0.4097  0.6517  0.6475
  0.5428  0.5863

 Free energy of the ion-electron system (eV)
  ---------------------------------------------------
  alpha Z        PSCENC =        51.75240132
  Ewald energy   TEWEN  =     62019.48133295
  -Hartree energ DENC   =    -70791.43974970
  -exchange      EXHF   =         0.00000000
  -V(xc)+E(xc)   XCENC  =      -450.87122028
  PAW double counting   =     56541.12175507   -55593.95820684
  entropy T*S    EENTRO =        -0.15836853
  eigenvalues    EBANDS =     -2525.93639354
  atomic energy  EATOM  =      9841.30284710
  Solvation  Ediel_sol  =         0.00000000
  ---------------------------------------------------
  free energy    TOTEN  =      -908.70560245 eV

  energy without entropy =     -908.54723392  energy(sigma->0) =     -908.62641818


--------------------------------------------------------------------------------------------------------




--------------------------------------- Iteration      1(  14)  ---------------------------------------


    POTLOK:  cpu time      2.1374: real time      2.1639
    SETDIJ:  cpu time      1.6817: real time      1.6825
    EDDIAG:  cpu time     41.7573: real time     41.7811
     EDDAV:  cpu time    196.2677: real time    196.3686
       DOS:  cpu time      0.0062: real time      0.0063
    CHARGE:  cpu time     23.8749: real time     23.8952
    MIXING:  cpu time      0.0495: real time      0.0495
    --------------------------------------------
      LOOP:  cpu time    265.7749: real time    265.9471

 eigenvalue-minimisations  :  2048
 total energy-change (2. order) :-0.1316572E-03  (-0.1609315E-04)
 number of electron     383.9999999 magnetization 
 augmentation part      -21.4224223 magnetization 

 Broyden mixing:
  rms(total) = 0.16565E-03    rms(broyden)= 0.13883E-02
  rms(prec ) = 0.26759E-03
  weight for this iteration     100.00
  WARNING: grid for Broyden might be to small

 eigenvalues of (default mixing * dielectric matrix)
  average eigenvalue GAMMA=   1.2061
  3.1075  2.7305  2.1597  1.4199  0.9873  0.8933  0.8933  0.4099  0.5312  0.6448
  0.6448  0.6371  0.6196

 Free energy of the ion-electron system (eV)
  ---------------------------------------------------
  alpha Z        PSCENC =        51.75240132
  Ewald energy   TEWEN  =     62019.48133295
  -Hartree energ DENC   =    -70791.31379266
  -exchange      EXHF   =         0.00000000
  -V(xc)+E(xc)   XCENC  =      -450.87685232
  PAW double counting   =     56541.68657859   -55594.52342323
  entropy T*S    EENTRO =        -0.15836844
  eigenvalues    EBANDS =     -2526.05645740
  atomic energy  EATOM  =      9841.30284710
  Solvation  Ediel_sol  =         0.00000000
  ---------------------------------------------------
  free energy    TOTEN  =      -908.70573411 eV

  energy without entropy =     -908.54736567  energy(sigma->0) =     -908.62654989


--------------------------------------------------------------------------------------------------------




--------------------------------------- Iteration      1(  15)  ---------------------------------------


    POTLOK:  cpu time      2.1344: real time      2.1616
    SETDIJ:  cpu time      1.6802: real time      1.6809
    EDDIAG:  cpu time     41.7476: real time     41.7712
     EDDAV:  cpu time    196.0802: real time    196.1877
       DOS:  cpu time      0.0118: real time      0.0122
    CHARGE:  cpu time     23.8539: real time     23.8991
    MIXING:  cpu time      0.0657: real time      0.0670
    --------------------------------------------
      LOOP:  cpu time    265.5741: real time    265.7802

 eigenvalue-minimisations  :  2048
 total energy-change (2. order) :-0.1146815E-03  (-0.1390324E-04)
 number of electron     383.9999999 magnetization 
 augmentation part      -21.4224420 magnetization 

 Broyden mixing:
[...]
   0.125E+02 -.206E+02 0.132E+03   -.120E+02 0.181E+02 -.132E+03   -.385E+00 0.242E+01 -.743E+00   0.126E-04 0.177E-04 -.242E-05
   -.100E+02 -.820E+01 -.188E+03   0.895E+01 0.711E+01 0.187E+03   0.477E+00 0.910E+00 0.848E+00   -.977E-05 0.358E-04 0.133E-04
   -.442E+02 0.220E+02 -.280E+03   0.434E+02 -.221E+02 0.278E+03   0.113E+01 -.923E-01 0.238E+01   0.439E-05 -.327E-04 0.455E-05
   -.282E+02 -.112E+02 -.171E+03   0.280E+02 0.102E+02 0.170E+03   0.477E+00 0.131E+01 0.149E+01   -.151E-04 0.186E-04 -.105E-05
   -.200E+02 -.246E+02 -.965E+02   0.192E+02 0.226E+02 0.957E+02   0.904E+00 0.178E+01 0.670E+00   -.746E-05 0.574E-05 0.177E-05
   0.112E+02 0.571E+01 0.158E+03   -.956E+01 -.685E+01 -.157E+03   -.173E+01 0.126E+01 -.107E+01   0.288E-04 0.641E-04 -.410E-04
   0.651E+01 0.227E+02 -.615E+02   -.826E+01 -.230E+02 0.638E+02   0.155E+01 0.185E+00 -.209E+01   -.238E-05 0.430E-04 0.478E-04
   -.464E+02 -.276E+01 -.376E+03   0.476E+02 0.639E+01 0.378E+03   -.115E+01 -.308E+01 -.145E+01   -.832E-05 0.269E-04 0.238E-04
   0.131E+02 -.116E+02 0.360E+03   -.122E+02 0.108E+02 -.363E+03   -.819E+00 0.918E+00 0.243E+01   0.154E-04 -.745E-05 -.238E-04
   0.211E+02 -.226E+02 -.332E+02   -.198E+02 0.208E+02 0.329E+02   -.125E+01 0.180E+01 -.162E+00   0.928E-05 -.507E-05 0.856E-06
   -.200E+02 0.104E+02 0.296E+03   0.183E+02 -.939E+01 -.294E+03   0.171E+01 -.730E+00 -.127E+01   0.307E-04 0.311E-04 0.365E-05
   0.659E+00 -.942E+01 0.146E+03   0.110E+01 0.974E+01 -.147E+03   -.185E+01 -.239E+00 0.176E+01   -.223E-04 -.212E-04 -.439E-06
   0.250E+02 -.135E+02 -.331E+03   -.283E+02 0.157E+02 0.333E+03   0.288E+01 -.182E+01 -.181E+01   0.213E-04 -.116E-04 0.178E-04
   -.571E+01 0.742E+01 0.231E+03   0.649E+01 -.724E+01 -.229E+03   -.727E+00 -.129E+00 -.227E+01   0.276E-04 -.428E-04 -.169E-04
   -.783E+01 0.272E+02 0.308E+03   0.743E+01 -.266E+02 -.309E+03   0.189E+00 -.674E+00 0.386E+00   -.266E-04 0.235E-04 -.849E-05
   -.589E+01 -.144E+01 0.770E+01   0.588E+01 0.135E+01 -.647E+01   0.976E-01 0.544E-01 -.966E+00   0.818E-05 -.417E-04 -.123E-04
   -.128E+02 -.445E+02 -.381E+03   0.133E+02 0.444E+02 0.382E+03   -.443E+00 0.172E+00 0.133E-02   -.612E-05 0.795E-05 0.312E-04
   -.270E+02 0.597E+01 -.173E+03   0.260E+02 -.497E+01 0.171E+03   0.825E+00 -.101E+01 0.166E+01   -.157E-04 -.126E-04 -.151E-04
   0.238E+01 0.123E+02 0.394E+03   -.298E+01 -.135E+02 -.399E+03   0.208E+00 0.101E+01 0.397E+01   0.266E-04 0.848E-05 -.757E-05
   0.656E+01 -.606E+01 -.521E+02   -.603E+01 0.599E+01 0.521E+02   -.661E+00 0.536E-01 -.783E-01   -.236E-05 0.247E-04 0.291E-04
   0.656E+01 -.602E+01 -.157E+03   -.632E+01 0.560E+01 0.152E+03   -.760E-01 0.360E+00 0.393E+01   -.142E-04 -.642E-04 0.384E-05
   0.542E+02 -.214E+02 -.318E+03   -.526E+02 0.214E+02 0.317E+03   -.192E+01 0.701E-01 0.521E+00   -.213E-04 -.416E-04 0.372E-04
   -.408E+01 -.192E+02 -.173E+02   0.377E+01 0.172E+02 0.164E+02   0.157E+00 0.244E+01 0.114E+01   0.144E-05 -.706E-05 0.872E-05
   0.237E+02 0.364E+02 -.321E+03   -.239E+02 -.330E+02 0.319E+03   0.230E+00 -.337E+01 0.238E+01   -.184E-04 0.841E-04 0.125E-04
   0.124E+02 -.841E+01 -.278E+03   -.106E+02 0.728E+01 0.278E+03   -.173E+01 0.142E+01 -.243E-01   0.122E-05 0.110E-04 0.390E-04
   -.122E+02 0.110E+01 -.244E+03   0.116E+02 0.640E+00 0.241E+03   0.664E+00 -.147E+01 0.228E+01   0.883E-06 -.142E-04 0.186E-04
   0.233E+02 -.196E+02 -.283E+03   -.212E+02 0.203E+02 0.280E+03   -.194E+01 -.828E+00 0.245E+01   -.681E-05 -.457E-05 0.295E-04
   0.228E+02 0.259E+02 0.341E+03   -.219E+02 -.228E+02 -.338E+03   -.117E+01 -.272E+01 -.271E+01   0.139E-04 -.110E-04 -.240E-04
   0.265E+02 0.305E+01 -.172E+03   -.268E+02 -.313E+01 0.172E+03   0.268E+00 0.290E+00 -.190E+00   0.429E-04 -.185E-04 0.825E-04
   -.152E+02 -.287E+02 0.301E+03   0.143E+02 0.288E+02 -.302E+03   0.101E+01 0.202E+00 0.357E+00   -.125E-04 -.276E-04 -.129E-04
   0.104E+02 0.153E+02 0.269E+03   -.103E+02 -.120E+02 -.267E+03   -.503E+00 -.365E+01 -.160E+01   0.103E-04 -.141E-04 -.219E-04
   0.209E+02 0.142E+01 -.145E+02   -.208E+02 -.159E+01 0.150E+02   -.400E+00 0.450E-01 -.361E+00   0.140E-04 -.375E-04 0.380E-04
   0.167E+02 -.534E+01 -.232E+03   -.164E+02 0.297E+01 0.232E+03   0.191E-01 0.197E+01 0.375E+00   0.333E-04 -.289E-04 0.379E-04
   -.198E+02 0.221E+02 -.229E+03   0.193E+02 -.197E+02 0.226E+03   0.259E+00 -.229E+01 0.207E+01   -.329E-05 -.233E-04 0.762E-05
   -.128E+02 -.102E+02 -.648E+02   0.113E+02 0.107E+02 0.654E+02   0.156E+01 -.449E+00 -.505E+00   0.115E-04 -.477E-05 0.321E-04
   0.334E+01 -.567E+01 0.567E+02   -.256E+01 0.492E+01 -.564E+02   -.656E+00 0.757E+00 -.230E+00   -.263E-04 -.318E-04 -.413E-04
 -----------------------------------------------------------------------------------------------
   -.291E+01 0.122E+02 -.792E+01   -.289E-13 -.755E-13 0.313E-12   0.291E+01 -.122E+02 0.792E+01   -.166E-03 0.182E-05 0.549E-03


 POSITION                                       TOTAL-FORCE (eV/Angst)
 -----------------------------------------------------------------------------------
      8.50428      4.50287      8.72947         0.489616     -0.450409      0.626145
      8.96053      4.07610      9.25083        -0.720823      0.795188     -0.986458
      3.77515     14.07039     14.71590        -0.045109     -0.082975     -0.010164
      3.63880      6.41736     14.94515        -0.219988     -0.064881     -0.002658
      9.72652      3.01776     10.62918         0.327219     -0.644963      0.841019
     10.88607      8.36756     11.70495         0.034882     -0.187208     -0.040463
     13.71570      7.57140     13.66047        -0.079941      0.313835      0.126766
      1.23756      7.94511     10.75227         0.269279      0.256847      0.070714
      1.04822      6.26705     16.27073         0.096110     -0.182136     -0.073429
      4.93400     13.07171     12.07018         0.375252     -0.075370     -0.186571
      6.17469     14.42268     10.53694         0.176532     -0.235694     -0.037477
      9.07894      3.60360     14.20966         0.259349      0.025958      0.021638
      4.31408      1.07549     11.05666         0.335389     -0.107854      0.064398
      0.98332     10.21244     10.75299        -0.137295      0.279572     -0.325541
      9.02961     10.71916     17.67038        -0.074410     -0.190504      0.025878
      0.04028     10.48207     18.49416         0.444775      0.326763      0.129827
      0.64437     14.46214     11.15338        -0.145572     -0.184402     -0.058157
      6.52637      9.99399     12.42578         0.171966      0.169559     -0.041282
      6.29463      6.72796     17.42692        -0.043238     -0.022777      0.251453
     12.05035      9.83866     15.23016        -0.074876     -0.060813     -0.006651
      0.98320      4.32416     14.94241         0.055040      0.272665      0.037121
     13.54381      0.61082     15.94729         0.255364     -0.229347      0.268681
     12.59066      0.19118     18.02692         0.015886     -0.278067      0.003862
      6.30570      4.53942     16.70598        -0.110337      0.128038      0.393482
      1.87929     12.48822     13.55192        -0.104554     -0.391718      0.017596
      2.84627      6.34996     10.38730         0.267857     -0.103477     -0.314786
      2.85634      8.78877     13.95301         0.000466     -0.002126      0.247844
      7.62502     11.55482     16.00690        -0.154985     -0.175581     -0.257157
     12.75044     13.69422     14.33701        -0.024591     -0.050783     -0.061874
     11.18825      8.05255     16.50097        -0.009984      0.262069     -0.197173
      8.77673     13.47635     12.48440        -0.240725      0.127424     -0.110115
      6.71555      6.12634     14.99665        -0.501330      0.033326     -0.132979
      4.40109      9.41090     15.66520         0.128061     -0.008757     -0.304938
     13.12116     12.39240     18.35697         0.081807     -0.051525     -0.223790
      4.14235      2.63930     14.09979         0.236324      0.012456     -0.040517
      3.78489     11.50339     16.64334        -0.215996     -0.304877      0.026073
     12.58770      2.54897     18.39212         0.088998     -0.063380     -0.338392
      8.33313      6.74057     18.46910         0.190052     -0.286397      0.042402
     11.80720      0.78139     12.89755         0.066300     -0.143482      0.028392
      2.77374     14.19946     12.10666        -0.170678      0.305325     -0.100064
      9.14522      7.36704     12.91478         0.108808     -0.108458     -0.182871
     11.69620     11.98472     10.51260         0.092648      0.020314      0.204602
      0.71843      2.19631     11.76503         0.060394      0.145982     -0.186952
      5.71707     12.82576     16.48538         0.138338     -0.115970      0.085795
      4.30984      7.85823     17.47668         0.142584      0.048808      0.131656
     14.17446      9.86456     16.23965        -0.098957      0.190216     -0.245606
      8.26910     11.33476     11.68322         0.118487     -0.086874     -0.138427
     10.35178      5.36417     13.36673        -0.053688      0.169444      0.009731
      7.11605      7.80123     11.79761         0.075896     -0.190376      0.162960
      4.30291      3.26426     11.83693        -0.337179     -0.042931      0.035548
      2.21920      3.95698     11.04641        -0.039546     -0.032245     -0.232786
      0.00224      3.68444     17.91408        -0.177586      0.338223     -0.133617
      5.19001     13.69513     14.37964        -0.387843     -0.097512      0.274465
     10.30611     14.30691     17.98147         0.018205      0.050388      0.303256
      9.12540     12.78286     14.68071         0.049047     -0.093323      0.029845
      7.97012      3.11039     12.16843         0.101929     -0.128888     -0.086349
      3.37935      6.83782     12.67746        -0.137305     -0.024061      0.233007
     13.51025     11.06472     11.68795         0.152685     -0.176542     -0.012855
      1.61949      5.24669     12.84318         0.202322     -0.125260      0.047896
      7.34297      0.85146     12.28614         0.000517      0.076777      0.085949
      8.41719      3.52247     16.47985         0.159670      0.215751     -0.094285
      2.54720     10.54104     12.46717         0.049316     -0.275801      0.212818
     11.45633      4.33299     11.49900        -0.024397      0.092131     -0.118981
     12.49807      9.38789     13.00951         0.035219      0.019508     -0.057399
      0.06086     12.11384     16.49092        -0.462755     -0.291131      0.102921
      1.84264      2.86652     16.66390         0.281826     -0.169859     -0.126643
      2.10698     13.04271     15.83184         0.223371      0.337519      0.211945
      0.85999      8.25680     15.09416         0.109811     -0.091628     -0.097915
     14.31532     12.94448     12.79900        -0.174634      0.181391     -0.105225
     11.25506     12.03943     15.22802        -0.122590     -0.014069      0.145162
      2.01636     11.81190     18.11445        -0.043396      0.276213      0.224201
     12.22992      6.42685     10.79119         0.005858      0.110899     -0.136313
     12.26768      5.96502     14.60734         0.017862      0.080435     -0.442971
     10.72853     14.03064     11.27476         0.094286      0.259821      0.133874
      5.71037      6.26836     12.83358        -0.155097      0.072563      0.395736
      5.46531      0.52831     17.14363        -0.049970      0.192157     -0.406201
     13.05261      2.74964     12.34919         0.005574      0.052600      0.045020
      4.61721     10.87619     11.46193        -0.178216      0.076817     -0.197270
     13.35535      3.91836     14.34441         0.083472     -0.041941      0.225067
     14.17594      5.93714     18.04722         0.028507     -0.123663      0.288586
      1.33314      0.77581     15.69364        -0.092293     -0.047352      0.020600
      9.59414      0.86886      9.73969        -0.298456      0.020871     -0.371032
      6.59874      9.79370     14.79037        -0.142192     -0.038515     -0.048827
     12.24122      2.59483     15.84750         0.166620     -0.026160     -0.107682
     10.85329      3.90480     17.38069        -0.279935     -0.001602      0.183043
      6.08720      1.25067     14.27334        -0.178644      0.478310      0.283591
     10.91809     12.12505     17.54644         0.051208     -0.081368      0.068682
      9.06661      8.45469     17.11329        -0.029696      0.340679      0.073399
      3.33444      6.04862     16.38362         0.135877      0.210346     -0.384668
     12.09189      5.96466     16.93601         0.026665     -0.201238      0.278633
     10.10830     10.38232     10.76246        -0.229613      0.228093      0.229760
      9.38175      0.19136     15.90311        -0.047508      0.240073     -0.325335
      6.19472      4.45356     11.45087         0.064848      0.282610     -0.286659
     14.38477      6.48819     11.78054        -0.392788     -0.497442      0.118871
     10.48083      1.75142     14.53658        -0.292105     -0.110834      0.103821
      7.42636      1.38758     16.21759         0.295250     -0.288305      0.257218
      4.05326      3.79968     16.20244        -0.201956      0.015490     -0.096520
      8.12255      7.99000     14.98445         0.122557     -0.064155      0.040385
      2.11876      1.41988     13.56825         0.116591      0.033546      0.002688
 -----------------------------------------------------------------------------------
    total drift:                               -0.005702     -0.002159      0.000307


--------------------------------------------------------------------------------------------------------



  FREE ENERGIE OF THE ION-ELECTRON SYSTEM (eV)
  ---------------------------------------------------
  free  energy   TOTEN  =      -908.70598271 eV

  energy  without entropy=     -908.54760675  energy(sigma->0) =     -908.62679473



--------------------------------------------------------------------------------------------------------


    POTLOK:  cpu time      3.8121: real time      3.8149


--------------------------------------------------------------------------------------------------------


     LOOP+:  cpu time   6044.7163: real time   6048.7247
    4ORBIT:  cpu time      0.0000: real time      0.0000



 total charge

# of ion       s       p       d       tot
------------------------------------------
    1        0.542   0.024   0.000   0.565
    2        0.590   0.026   0.000   0.616
    3        0.577   0.019   0.000   0.596
    4        0.567   0.017   0.000   0.584
    5        0.799   0.878   0.000   1.676
    6        0.758   0.910   0.000   1.667
    7        0.764   0.975   0.000   1.739
    8        0.792   0.891   0.000   1.684
    9        0.753   0.974   0.000   1.728
   10        0.775   0.876   0.000   1.651
   11        0.820   0.852   0.000   1.672
   12        0.756   0.936   0.000   1.692
   13        0.816   0.844   0.000   1.659
   14        0.796   0.869   0.000   1.666
   15        0.799   0.863   0.000   1.662
   16        0.834   0.789   0.000   1.623
   17        0.817   0.823   0.000   1.640
   18        0.753   0.934   0.000   1.687
   19        0.779   0.908   0.000   1.687
   20        0.751   0.946   0.000   1.697
   21        0.763   0.934   0.000   1.697
   22        0.765   0.926   0.000   1.691
   23        0.762   0.894   0.000   1.656
   24        0.781   0.892   0.000   1.672
   25        0.778   0.915   0.000   1.694
   26        0.838   0.775   0.000   1.613
   27        0.754   0.925   0.000   1.678
   28        0.752   0.938   0.000   1.690
   29        0.753   0.946   0.000   1.698
   30        0.794   0.876   0.000   1.670
   31        0.757   0.913   0.000   1.670
   32        0.786   0.857   0.000   1.644
   33        0.756   0.907   0.000   1.664
   34        0.777   0.859   0.000   1.636
   35        0.769   0.887   0.000   1.656
   36        0.763   0.902   0.000   1.664
   37        0.804   0.830   0.000   1.634
   38        0.870   0.758   0.000   1.628
   39        0.755   0.932   0.000   1.687
   40        0.751   0.962   0.000   1.713
   41        0.755   0.915   0.000   1.670
   42        0.780   0.880   0.000   1.660
   43        0.761   0.883   0.000   1.644
   44        0.759   0.938   0.000   1.697
   45        0.807   0.867   0.000   1.674
   46        0.767   0.927   0.000   1.694
   47        0.779   0.884   0.000   1.663
   48        0.755   0.919   0.000   1.674
   49        0.802   0.858   0.000   1.661
   50        0.760   0.957   0.000   1.716
   51        0.778   0.897   0.000   1.675
   52        0.789   0.863   0.000   1.651
   53        0.769   0.950   0.000   1.719
   54        0.805   0.892   0.000   1.696
   55        0.756   0.959   0.000   1.715
   56        0.758   0.929   0.000   1.686
   57        0.754   0.894   0.000   1.649
   58        0.753   0.925   0.000   1.677
   59        0.772   0.903   0.000   1.674
   60        0.760   0.905   0.000   1.665
   61        0.765   0.863   0.000   1.629
   62        0.752   0.951   0.000   1.703
   63        0.752   0.915   0.000   1.667
   64        0.761   0.972   0.000   1.733
   65        0.786   0.894   0.000   1.680
   66        0.767   0.876   0.000   1.642
   67        0.751   0.893   0.000   1.644
   68        0.749   0.968   0.000   1.717
   69        0.756   0.955   0.000   1.710
   70        0.762   0.924   0.000   1.686
   71        0.826   0.800   0.000   1.625
   72        0.808   0.808   0.000   1.616
   73        0.757   0.945   0.000   1.701
   74        0.754   0.917   0.000   1.672
   75        0.761   0.913   0.000   1.674
   76        0.865   0.737   0.000   1.602
   77        0.750   0.925   0.000   1.675
   78        0.802   0.888   0.000   1.690
   79        0.762   0.977   0.000   1.740
   80        0.803   0.879   0.000   1.682
   81        0.755   0.917   0.000   1.672
   82        0.864   0.737   0.000   1.602
   83        0.767   0.908   0.000   1.675
   84        0.754   0.960   0.000   1.714
   85        0.791   0.794   0.000   1.585
   86        0.759   0.944   0.000   1.703
   87        0.758   0.937   0.000   1.695
   88        0.758   0.970   0.000   1.728
   89        0.759   0.971   0.000   1.730
   90        0.756   0.906   0.000   1.662
   91        0.773   0.905   0.000   1.678
   92        0.759   0.960   0.000   1.719
   93        0.796   0.889   0.000   1.685
   94        0.760   0.954   0.000   1.714
   95        0.766   0.947   0.000   1.713
   96        0.759   0.942   0.000   1.701
   97        0.763   0.867   0.000   1.630
   98        0.776   0.888   0.000   1.664
   99        0.775   0.880   0.000   1.655
--------------------------------------------------
tot         75.922  85.602   0.000 161.524


 total amount of memory used by VASP MPI-rank0   367685. kBytes
=======================================================================

   base                                    :      30000. kBytes
   nonl-proj                               :      74332. kBytes
   fftplans                                :     108870. kBytes
   grid                                    :      83991. kBytes
   one-center                              :         21. kBytes
   wavefun                                 :      70471. kBytes

  
  
 General timing and accounting informations for this job:
 ========================================================
  
                  Total CPU time used (sec):     6195.367
                            User time (sec):     5513.711
                          System time (sec):      681.656
                         Elapsed time (sec):     6199.572
  
                   Maximum memory used (kb):      637204.
                   Average memory used (kb):          N/A
  
                          Minor page faults:     10032570
                          Major page faults:         1174
                 Voluntary context switches:         2771
