LAMMPS data file via write_data, version 2 Apr 2025, timestep = 1001000, units = metal

1000 atoms
2 atom types

0 22.31043679975832 xlo xhi
0 22.31043679975832 ylo yhi
0 22.31043679975832 zlo zhi

Atom Type Labels

1 H
2 Si

Masses

1 1.00784
2 28.0855

Atoms # atomic

736 2 4.108631220156417 1.1728593129858869 1.346162501707106 1 1 2
842 2 1.1858308857169313 5.8336337967460725 2.671368861408392 0 2 -1
920 2 4.222560980791974 4.211993348875189 3.5548870199868063 1 0 0
871 2 4.2239558339410355 4.0753941743630895 0.8335315338475685 0 0 -1
971 2 1.9131256142973891 0.8418272042612684 3.9197469207219977 2 2 0
42 1 3.5462461438401904 2.7723412949446824 5.711221260871991 0 3 -1
742 2 0.7356410774560609 3.592027883987229 3.4370779310427833 0 -2 0
440 2 1.456474014030463 2.0829251973920235 1.641995582379898 0 0 2
908 2 8.870352423436348 9.247408545522411 10.893280035563052 -1 -1 3
733 2 4.179948844085014 5.202534249680854 5.507319894940636 -1 2 1
291 1 0.22638541204583962 7.65939505606677 2.2982797820442187 5 -4 3
385 1 2.174861829101964 3.853862189824715 2.937996742010243 1 -1 2
363 1 4.034301235960744 1.9204763997845418 6.853740847440171 5 1 -1
728 2 6.910757611986769 2.5131918188033264 0.6613539625912667 0 1 -1
552 2 6.438804786609403 5.4033513046198784 1.8348310634007239 1 -2 0
390 1 8.753592568539007 0.18995529742527892 2.827464325854978 -3 3 4
675 2 6.376181601305369 1.9089736530065469 4.234698145135817 -1 0 1
613 2 8.24530682865199 2.986941359850365 3.3765978350822397 -1 0 0
369 1 7.896277326055084 3.927837618173873 4.747774527945642 -3 3 2
674 2 8.780540237838398 0.6631798789742229 1.3460946519396528 0 0 2
344 1 6.444088718579187 4.289387289547779 7.068495635838714 2 2 -3
664 2 2.5705677838661005 10.29047181485308 10.777117707896277 0 0 0
679 2 7.411591606274351 4.660903733801908 5.980808547750544 1 0 1
462 2 9.814336475196765 3.043294379405497 1.7095471653691663 2 0 1
659 2 9.481182403077675 6.02652138609351 1.1953502871912336 2 -1 0
271 1 7.004024138783418 3.9046827014516725 2.5543312167614753 -4 1 0
103 1 6.96096905769714 11.024827816299956 1.517066004357016 0 2 2
60 1 8.635472679044248 6.7984046588794635 2.110801203971674 0 2 1
154 1 4.554866358397915 2.7493582737004347 3.652982835540691 -1 2 0
575 2 10.734591634356066 2.756721710200984 4.334400418556786 -1 1 2
43 1 10.625637934038215 4.8055608060537205 5.1762514350760105 1 -1 1
894 2 10.847021049021729 0.544688553087715 5.360253897369061 0 2 -3
598 2 0.34820443351021524 8.699008059325116 9.957371455164463 2 1 0
256 1 9.913707512180052 7.071247680338436 7.747399768769209 -1 -2 -1
241 1 1.490342677756225 4.954538227018211 1.2415514792235327 -2 1 0
873 2 1.116988697647101 9.889695891147698 3.812861096362291 -1 0 0
106 1 1.4707970386302247 6.991985702349444 1.535387250536006 0 -1 0
944 2 0.03373493491100277 10.003569241193226 0.843990598226325 1 -1 0
451 2 5.834108412950612 6.740653210767869 5.292706941666565 1 1 1
481 2 4.968849558027926 10.302070082655563 2.784851019551307 -2 1 1
805 2 4.8974288344462344 9.783841308678728 0.33042400331843025 0 0 -1
322 1 10.193039786912037 0.48165833123347995 2.3151250315515317 -1 0 1
878 2 3.3231346848590646 8.082458744634069 2.2154470563660875 1 1 0
261 1 5.8462029247248894 4.168663850169502 4.343663093804856 3 -2 1
276 1 3.0069394456761596 8.613785965761524 0.989598350576361 1 -2 3
161 1 2.373476166946729 9.345193664142439 2.8907250723378555 1 0 2
921 2 2.3411288428926187 6.958688625153028 4.570088853173482 0 0 0
146 1 2.418683431396389 10.172679908997623 0.5377154212099332 4 0 1
78 1 8.967335383256962 5.451944788557809 3.311181238017356 -1 1 0
91 1 10.947720300107973 1.400118672730461 3.4961468901322537 4 -1 -1
975 2 5.004485929683502 6.798443078858469 2.816278190333316 0 0 0
533 2 10.601222349372328 8.171566118676814 0.94215910258266 -1 1 1
345 1 10.98744993991827 6.209257382880269 9.00401997801922 2 3 1
636 2 6.7160854565726344 8.272306477718098 0.8364984296333834 2 1 1
394 1 6.512141175373939 9.767828138255254 3.6077972932122107 2 1 0
8 1 7.973151576064047 4.9923354820048 2.499907517343727 1 0 -1
477 2 5.910632082801358 9.469350637245421 5.155831545960556 2 -1 0
796 2 7.946680481081616 7.8273028826798585 5.507884439806963 0 2 1
395 1 6.189331566604103 7.885946584086767 2.193155518109932 1 1 -1
790 2 8.837063595178607 9.200303650872087 3.9990451412967936 2 0 -1
974 2 8.487859751995192 9.140547043638776 1.7988237333888004 0 1 -1
399 1 8.574741155910603 10.592940074394853 2.2396677853069686 0 3 0
732 2 9.474341487840556 6.080075672208327 4.635382345736154 1 0 -1
126 1 9.13057097956316 8.594868462470771 6.054468147200313 1 -2 3
314 1 9.39192765240901 9.20307099955316 7.739272089720105 1 -2 -1
163 1 8.05031622836777 10.344012666266696 4.245308388452805 1 1 3
589 2 0.7048073995791542 1.9425705019274497 6.800658588065853 0 -1 2
546 2 5.143762055312129 0.7562097250154427 6.025864750770319 1 0 -1
118 1 1.9068448557964204 2.1662901265964303 11.142342295379303 5 1 1
937 2 3.6540246145505897 0.7836778247055578 9.194003414083333 0 1 1
508 2 10.931050103259548 10.47419918234059 6.531857207148968 1 2 1
311 1 4.099948024969123 4.185458235069945 6.857226168364234 2 2 0
90 1 7.263461530066122 0.25643985398519853 9.02453910030375 -2 -2 0
852 2 2.438797184278107 3.314951705863223 4.880223277051832 1 2 -1
915 2 5.362556095589065 5.355027868109372 8.306382369964263 0 -1 0
635 2 0.9918348512510621 2.0847725007353484 9.039142868870739 1 0 -1
705 2 0.598211654807237 0.06279133671590624 0.1378304907886836 2 0 0
692 2 2.5147225377143196 4.4504078657131 7.4506034970260036 -1 2 0
512 2 4.82430243080834 2.4136324363910147 8.457230352209143 1 -1 1
139 1 2.1763341034225263 2.7999127503884984 7.085746988597735 3 1 0
509 2 1.684049253390486 4.593372742442273 9.645105285112201 0 2 0
695 2 3.9342571531591366 3.971250101118026 10.189821280120396 -1 1 0
767 2 9.50987289196661 3.042432374518472 6.311881563041217 0 0 0
85 1 8.958886870861912 1.593173676230001 6.741791584960038 0 5 2
41 1 5.359975412558434 0.8027643084188909 10.844790545966996 -1 4 -1
96 1 7.602449539443606 5.229116655690183 8.060617568077515 4 3 0
735 2 10.520027521940966 2.317070185607177 10.907029281478941 0 0 1
447 2 6.653643334814339 7.4101540983416445 7.289991737040297 -1 -1 0
962 2 6.791266832932319 4.047011099512466 10.081629185619862 2 0 -1
946 2 7.178905743344442 0.5527548804134118 6.670410428600646 -1 -1 -1
370 1 5.5668559253302945 0.4927672720597968 9.370085814223453 0 1 -2
929 2 10.16751343853508 2.4490632427663486 8.606833441818006 1 -1 1
1000 2 9.13034933337841 4.298800603604311 9.935770004280252 2 1 -1
943 2 8.013156371240324 1.5547853753930463 8.997739354205205 1 0 1
632 2 8.21499977460955 0.20256278858594887 10.919056376910568 1 0 -1
300 1 6.842885265757623 2.967682485281773 5.868473451981731 -4 0 1
204 1 6.5254781944811935 2.260874309868025 8.532161248157113 2 2 -2
450 2 4.258589282618193 6.438805200678642 9.814595756840449 1 1 0
713 2 0.3836348019301909 9.392198820924154 7.238324554914584 0 1 2
277 1 2.3403026658132955 9.48715945626511 6.550836091655056 -6 1 0
826 2 11.068452000332252 8.400410201804595 9.76584678733617 0 1 0
237 1 1.6442049178622837 9.312621731473309 8.422709650121691 1 1 -4
135 1 4.0309198453766495 8.797823307033898 5.479963016603056 6 -6 -1
124 1 3.7393869573006593 6.879637447712341 6.524750357060197 -1 -1 -2
482 2 2.4013446687221327 7.2284429159819625 9.022297638815447 -2 0 1
249 1 4.407155663275699 7.105105722438129 7.376289527354844 -1 3 0
536 2 4.46307921043384 9.76346574238737 8.476981600968157 1 1 -1
120 1 1.2871282429676727 10.38671945946606 9.755461032177049 -1 -4 1
416 2 1.4070038570205985 6.550942316260618 6.572770844921101 1 -1 0
811 2 3.2528874037327764 8.478323559088556 7.240861277597285 1 -1 0
284 1 2.6720750062206875 10.516234278518114 3.9797381168488846 0 0 -2
70 1 2.889407343758702 4.801196372189547 0.32036364458074085 -4 -2 1
201 1 3.8199393003075515 8.078631591124404 4.821525390393158 2 1 0
57 1 6.250300803461634 9.734262117793453 10.634213392887608 -1 2 -1
221 1 9.603192834357865 7.287284892368661 5.6822844809802024 -3 -1 0
789 2 8.894291150821404 8.043372495301803 8.402888919896315 -1 -1 -1
398 1 9.891058769541159 0.28210188154925503 10.96868433901689 0 5 2
782 2 7.045807188196723 6.431192854167636 10.096014947096405 0 1 1
901 2 8.898535924139978 5.631173865324097 7.424891831016124 0 0 0
961 2 10.480206753209 10.376937031159336 8.942105849777313 1 1 1
459 2 6.4969829887505375 8.579597147628762 9.413778908939756 -1 0 0
932 2 7.253713415187956 10.268697787424351 7.402429655516919 -2 0 1
722 2 0.13877729138368683 6.209277259034586 9.068080922418194 -1 -1 1
282 1 0.22627639587934914 9.518421471695126 5.745714759423397 -1 -4 2
960 2 1.2420026720731796 4.014301619511104 0.11981010833874849 1 0 0
181 1 7.7040978732238 10.682181434096881 11.06159975624328 0 4 -1
93 1 4.490059464143109 5.387380964080611 0.2113228562807099 4 2 3
407 2 1.0503205850712056 1.3569484275472585 12.060851249183438 0 1 -1
851 2 5.283107879516137 0.8362607373076082 14.413878885903202 0 0 2
704 2 0.05112353752869055 4.852976188803604 13.458219022696328 0 1 1
191 1 2.909631919288187 9.15024536371765 14.172495567445917 1 2 1
755 2 0.7724569542725072 1.1916245405298627 16.270379070800963 1 0 -1
884 2 3.6756474835307946 2.2119350983439987 11.72149010683633 0 -1 2
621 2 4.010727931113758 2.7951331136506394 14.14704699770882 0 0 -3
777 2 2.3231192330515484 4.274405693095974 15.03609162836344 2 0 1
772 2 4.887665130998898 4.3163537388749145 12.440761561393957 2 0 0
414 2 1.5366873470574138 1.0002215040971214 14.11496196507102 0 0 -1
243 1 2.21623379278668 2.0300887320550847 20.60416256332081 1 0 0
476 2 8.175201413723151 7.097072093430463 17.160524595424956 1 -1 0
539 2 6.133561108533183 2.0669534246323717 11.89826732214448 -2 1 0
892 2 11.090705846507177 5.880321594143425 17.93219146970829 1 0 0
113 1 0.3408754444028978 6.0220004958528355 18.19496543290752 -3 -1 2
720 2 8.490324783891184 0.4821618016262361 14.56032496621056 1 -1 0
520 2 7.073741389980624 2.3652759505434933 14.516263644789268 1 -1 0
449 2 8.227425859300734 2.859309014395019 12.659242037789445 0 1 2
537 2 9.772505577347946 2.04837226477386 15.435909669183577 0 0 0
341 1 6.300227114678559 0.4598058541545959 12.507368091242222 -4 1 -4
643 2 10.469795302940643 4.155602510037421 14.102585508584985 1 2 0
896 2 5.965830843098516 5.0691441943751165 15.953291989261949 -1 1 -2
34 1 7.299020756173382 3.196047290204999 11.49279206325467 -1 -2 4
142 1 9.079828538082118 1.2286396551764747 13.136783918406103 0 -1 2
730 2 8.19177668823053 4.466188680124492 15.438928320358995 1 1 0
173 1 6.921968911255732 1.5316262228848012 17.12959735093775 2 5 -1
743 2 3.7126513752766885 6.35949475647504 14.849779805650284 -1 -1 -2
238 1 3.755852318940264 9.84160267567675 13.502947621411433 -3 -2 -2
454 2 5.390461125279146 6.6863754094236185 12.913959006985852 -1 -1 2
834 2 2.318343623288152 5.6444709305277465 11.80780320400565 2 0 1
690 2 3.6954646935883284 8.384073890816703 15.755948784305879 -1 2 1
525 2 4.226059211801999 8.698991633034474 12.490886542820036 0 2 2
444 2 1.676089326044593 10.468679426737564 15.0661892866154 2 1 -1
758 2 1.6298293114488498 6.782022521277688 13.733117925979062 1 1 1
405 2 2.229447036752468 7.988500545016248 11.614743720283412 1 0 -1
51 1 5.209179139942305 8.48391610540029 15.236430377998094 2 -1 -2
352 1 1.7706913377877946 9.46796111409036 13.092212415941693 0 -2 -1
326 1 7.552050670909304 0.43203280182743115 18.157843497299147 3 3 -1
197 1 1.3831229461577512 0.3822209656195422 20.246448216470707 0 4 1
372 1 9.259925627064046 5.694755407671982 14.86682403839008 3 4 3
280 1 7.851045427973924 8.203120013548187 14.008983565343735 1 2 0
97 1 2.7861786379249884 2.3894550748553507 18.74218365787078 0 3 0
330 1 10.424563038257201 6.264447508613296 20.962271485392524 -1 3 1
442 2 6.139374011442878 9.958132614031518 12.312302990607911 -1 -1 -1
519 2 7.231934133222048 6.417253693573219 22.103259326879993 -2 1 -1
235 1 8.264101846379129 8.21110925157419 14.884489931495752 0 3 2
315 1 7.999883449079992 6.808808491120401 15.753010744825225 -3 1 4
220 1 8.979660383913474 7.347971943408156 12.943105537051032 0 4 5
663 2 8.89297121870812 5.714899264356999 11.67097996210213 0 2 0
970 2 7.124308716580737 9.774078876316725 14.710848508634935 0 1 1
626 2 8.566490201772433 10.335572070689421 16.201828767080748 -2 0 0
752 2 10.167822554701008 7.624824854612235 14.029494034261953 0 -3 0
555 2 7.156551345423343 5.344699529603406 13.213843360072595 0 2 -1
198 1 5.5574240703208755 10.780346950905944 15.579392977136365 -3 -2 -2
562 2 7.403971700849293 7.956713160713042 12.171960032770533 0 0 1
586 2 10.356724829454153 9.781085744431126 14.603444222419418 -1 0 -2
361 1 9.679786443038749 5.186751155166547 13.024197069294383 1 1 -1
582 2 8.843132696587464 6.437977749659452 20.633241455361098 0 0 -3
461 2 4.516919832776715 2.17138652474992 16.461378978362653 -1 0 0
177 1 4.467164219928134 1.2792467522882591 19.025644919790693 -1 1 0
157 1 1.3536321702425942 0.9499566137910279 21.34811949425495 -3 2 1
194 1 1.4485970138828261 7.227731350530906 21.800953899454125 2 1 -2
902 2 3.6761673104078194 4.223988867437187 17.188904896241954 3 0 -2
918 2 3.190507401538045 2.397029364958247 21.9134270464189 1 -3 1
425 2 1.6709913056098757 3.5462232968849965 18.857404149494094 0 0 0
3 1 10.690154112926358 10.530574438483564 17.342261354250624 0 -3 2
661 2 2.901008921641479 1.0025023200001049 17.13714759822196 -1 2 2
580 2 4.487527254429914 0.9464653348530729 20.604221380473305 0 0 0
950 2 4.440638824693273 4.026968354993294 19.61972011401589 0 1 1
192 1 0.8075662606027255 4.5489575853674555 17.413549532730322 1 2 1
534 2 0.22145588891377024 9.823487721113384 11.891422164793955 0 1 1
224 1 5.263697426607986 11.033222327915828 21.55421727193108 2 2 0
167 1 6.9204613235879275 1.008258645049439 19.659396694513468 3 -2 -2
968 2 9.9114199862661 3.159465197043194 21.38160791606059 0 2 0
785 2 7.193545144830149 7.896714593882636 20.034132175672127 1 1 -2
205 1 5.052342023087464 2.8930020395268476 18.658754693218285 2 0 0
160 1 5.113613704684815 3.674706904298758 21.381094774030977 -1 3 1
869 2 6.922187185276002 2.5726700287882025 20.76985664134749 0 0 1
997 2 8.096322986629465 2.3391944189062133 17.100696516997715 1 0 0
417 2 8.848282611972646 5.103190166726843 17.923696411450674 0 1 -3
130 1 2.1944044032180794 2.447115456682563 15.531604780630298 4 2 0
641 2 6.3125560251755495 5.464245731778727 19.848658252107906 1 0 -1
336 1 10.938760416849176 4.151645696018698 15.57539963762956 -1 3 2
550 2 10.033577991854962 2.333894749603222 18.922322548380624 1 0 -2
804 2 8.015774507789416 4.513667462478672 21.55267592782376 0 -1 -1
731 2 7.693883614823626 3.5322693234835545 19.014200897695645 -2 1 0
207 1 8.953721196752422 0.9628900485745313 17.058607555749425 1 3 -1
631 2 8.43594468401989 9.502434649862487 18.300986851533207 -2 1 0
254 1 2.9562432471531395 4.012161040190591 20.52136176851247 -1 -1 0
115 1 5.5150421421095706 7.283732071623052 18.638989135360166 -2 0 0
691 2 1.4482081527204984 8.25949289072294 17.19051920483263 1 2 1
671 2 5.823548214499895 7.520332209230983 17.03447537780624 1 1 2
101 1 4.59476751300372 7.197745808024546 20.978254206161417 -1 1 0
992 2 1.8610249068285074 9.327869674332616 21.840982420625764 -1 0 0
382 1 2.9532477656322484 7.105470720458658 18.332234668025944 -1 4 -1
65 1 6.174298663228559 5.215877618846868 21.552945942767092 0 -4 1
815 2 0.9224752199425396 10.519364697137622 18.193972160308743 2 -1 -2
836 2 3.784972871489327 8.601032296458895 20.97940286104566 0 0 0
721 2 1.2347230199013395 6.515759599634666 20.694770798302596 0 2 -1
485 2 3.4300203877083977 10.53204680071021 17.031052809552964 1 1 -1
771 2 5.174479863556494 10.508782745660785 19.213633003809576 -1 0 0
652 2 2.865467081818752 5.911413024306918 19.045283095892977 4 1 0
432 2 0.6740819947690786 8.57721097513993 19.556525696345922 0 2 0
748 2 1.1651644068355576 10.942670108150804 20.362223428806 1 0 -1
726 2 1.0703409956400767 6.146485706589074 16.836313122160902 1 -2 1
72 1 4.026936421141486 8.91274555163716 19.330536334858103 1 0 0
316 1 5.394449221916967 3.506198735471506 16.495119847475287 -1 2 3
556 2 9.903877467211414 9.95234407225046 22.14146892051438 2 1 0
162 1 9.65095854047448 8.777865595154319 16.697425188810122 2 2 -3
798 2 7.95267565834337 9.796450522550828 21.330693373369556 0 1 0
607 2 10.088811296564918 7.763163508817018 19.130403839800163 -1 0 2
49 1 10.483355258393951 8.398933643213429 20.379488951795064 1 2 -2
877 2 6.164560430721753 10.972798451799447 17.287145675772948 1 0 1
193 1 9.56269247408686 10.851733213369526 20.545025408075258 -2 2 -2
827 2 11.153541387767115 8.083418859246105 16.521648312234383 1 0 -1
348 1 7.246543141306593 11.016553740549321 22.167905466976112 1 -1 1
602 2 2.699573392639054 15.07645330418354 1.777547508370013 2 0 0
983 2 4.743141924399614 13.594006000547523 4.452975913083677 1 2 1
186 1 3.519359406605665 15.099411889748978 3.49179668059673 -2 3 2
466 2 4.467159418527211 13.686156837883779 2.061702971123579 0 1 0
387 1 5.78517215979244 17.69148021036943 3.890811709116291 1 0 4
909 2 5.470733975035827 15.333770709026115 0.7955524554997421 3 -1 0
343 1 0.5958178347915243 21.71931963823683 2.772928987578632 2 -2 0
516 2 1.001900386123266 12.860105620558194 2.3715156330508815 0 -2 -1
381 1 1.2622624369154065 14.096483600715118 2.985142091307053 2 0 -2
599 2 2.603413126288132 12.029509469138496 0.9313765493661128 2 2 1
19 1 4.644833546088088 20.97212264496128 9.281768562697945 0 -2 1
305 1 4.032682961695672 13.673741870358691 0.18739129403302054 4 -1 2
746 2 1.1738061421751533 16.45367623273572 3.0169863171180618 1 0 1
355 1 1.8689011428308013 13.54848013341477 4.568443743326403 0 1 1
645 2 1.0335025508637696 13.531544292811635 5.661147793921843 0 0 -1
460 2 8.74062921005102 22.243783462698474 4.647155740388569 1 0 0
588 2 8.03766294927034 19.362447101376592 5.292313465106834 0 -1 -1
180 1 5.376033131790477 15.373750164201518 10.466275524197028 0 -3 2
689 2 6.248185778359846 12.348401019684667 1.742792948799696 2 0 3
870 2 6.992451519400954 15.377163164233629 2.5387732453597947 1 0 0
657 2 5.92190120997026 11.709282410906912 6.0685719756179575 -1 -1 0
888 2 8.940799144071082 13.021900040102066 5.760380885080258 2 -2 -2
14 1 7.240494866953684 13.364984858973372 3.799563266389986 4 -1 4
111 1 7.115992206809444 17.271064842803156 4.854234393001572 2 1 2
116 1 6.660248294527266 19.811331253403996 8.104716360751551 0 1 2
719 2 6.594138798178383 15.759866891578262 4.948015979455872 0 1 1
479 2 10.371940902527095 15.317960728024724 1.3222741433874143 -3 1 -2
543 2 8.825438638052553 13.344688957664957 1.626102121921447 1 2 1
233 1 7.5164607710405065 12.285351336924194 5.77157624101554 3 0 0
138 1 6.451938844186111 13.360849978604524 3.8011566295428008 -1 3 -1
464 2 9.479814829492 12.228432696516517 3.455564901602646 -1 0 0
822 2 10.380747924897753 16.306694717958486 3.546707715115939 0 -1 2
917 2 6.904922916423858 16.42012047666283 7.754934107219824 1 0 0
208 1 10.949299261248607 12.958807570437495 7.68077531662437 -1 2 0
9 1 10.407825170797206 13.008723092724834 4.377141316293861 4 1 -3
25 1 9.528125665270805 15.117548831409621 4.55842827787954 2 -2 3
275 1 6.043020758032701 16.771878097739368 2.164304247936259 -2 -1 1
176 1 9.96811631362889 12.527326998862783 0.33106695923027907 0 -1 1
724 2 4.290919622273096 16.953952086309993 3.2971483501789214 0 0 0
82 1 4.450190929774913 16.171586076796675 7.232467937401532 3 0 -1
358 1 3.6332221969635183 17.084180612633553 4.685831818245289 0 -6 2
571 2 2.129367800221039 21.788899505545395 2.1899807398907467 0 0 1
133 1 3.7538725565584468 20.384608879447622 2.9202931242893055 1 -5 -2
835 2 0.3450727310696508 18.04756012134988 5.0894512772184575 2 -2 2
958 2 2.7880203663815886 16.87785738854803 0.08076107475382473 3 -2 -1
791 2 0.5788105430729883 20.019614709657475 0.012847757969493737 -1 0 1
942 2 2.0142931591151267 18.98926181528223 2.2136398343903623 -1 1 0
310 1 2.85749585630234 18.827288367395372 3.473599892533935 2 1 0
419 2 1.305613079517534 20.47601821942046 4.743227288436556 0 0 0
33 1 5.770854566256997 18.643420255888728 1.1802382404442786 -3 -2 2
646 2 4.292328502864978 21.80673757143267 3.7514374142974574 1 -2 0
7 1 4.7419098472337815 16.087324503547933 4.59974611926084 -1 2 -1
457 2 4.728155107333978 19.1835056656634 3.0283154722137047 0 -3 0
10 1 6.009226101615821 21.453922385568642 7.492494828867676 1 -4 -3
797 2 9.530876665182598 18.039081143257004 6.811051667055123 0 2 1
218 1 3.4661383500292686 19.50654668547748 8.472137918196296 -4 -1 0
304 1 10.036799353070158 11.263289448568885 5.5764360849953585 -2 -3 -1
386 1 7.589384531884948 21.57890103519414 3.342696347389457 0 2 3
583 2 1.1082125456691372 14.025770480220825 0.12699929541840407 -1 -1 1
375 1 7.972657488761213 17.615137807263448 7.051852053626859 3 3 0
418 2 10.87348905153458 18.484683024555963 2.1700230557523033 0 1 0
26 1 3.8828450467107882 20.274093147047086 1.087250961719494 1 3 -1
850 2 6.369148420637077 20.92929754259203 4.767605274488711 -1 1 0
404 2 7.107912143661329 19.980750758013517 2.554083430585314 1 2 -1
670 2 10.955758877357535 19.061779627368267 4.824290746627081 -1 -1 -1
441 2 8.371624475397788 17.314054415213405 2.599654603788221 -2 1 0
619 2 9.908143202369875 20.359463850621054 3.102013252371531 0 0 0
504 2 5.6412891170612545 18.88783736974502 5.597557970922056 0 -1 1
931 2 6.237389323810201 22.20253564279948 1.581076998631202 -1 0 0
427 2 9.192608896743744 18.456337775206503 0.615704305583911 1 -1 -1
829 2 10.14716406059459 18.207411568795894 9.097051471534208 1 0 1
61 1 7.532587458021221 18.310518718458372 3.7636347536170294 1 -1 -1
694 2 4.8907656781424205 20.247495393559554 7.792502370128181 1 -2 2
697 2 0.4044315814857447 15.821169646288284 5.171751759881014 0 -1 0
574 2 1.1684074524028156 13.892457794490896 8.130977340873905 1 -2 3
706 2 9.211142940337231 21.9306310470542 7.344384489539283 1 0 1
172 1 4.566070064684962 16.201698418843808 8.967788644059826 4 0 0
145 1 2.897349521609414 15.169643211841938 5.2984319846665775 -4 -1 2
686 2 3.567384293762111 11.467114159440206 6.970940949424186 2 0 0
640 2 4.810591602144017 11.835375340141335 9.931729371066458 0 0 1
429 2 3.0363426565485434 12.857594211721391 8.726092303453084 1 1 -1
839 2 1.3405251394195679 15.962193193852034 7.512021399786598 1 0 3
576 2 3.483428150398943 14.280806744757232 6.617703541266202 -2 -2 0
677 2 3.2329125349281425 14.021275511545964 10.773295211460285 1 0 -1
592 2 5.260962569111232 14.83792892853177 7.795061339473934 0 -1 -1
99 1 5.0261652434970925 14.872857121552322 10.205574155601669 1 1 2
538 2 1.8935696743182984 16.464150378098505 10.901059637273741 -1 -1 -1
855 2 3.156221177269379 21.903677412732662 5.848843148544584 -1 -1 -1
168 1 7.901754993513312 11.347597985668484 9.680119083820857 -2 1 -2
428 2 8.534183267354013 15.042934553505955 5.723908109006193 1 -2 0
141 1 7.034613512876223 14.100737576289408 10.124249870468926 2 2 0
104 1 0.40665155189534785 17.071710915619466 0.9141500456975457 2 2 -1
957 2 6.470278576184586 12.582479866458979 8.087524329544385 1 -1 -1
468 2 10.27241040464324 15.827729653714087 7.084747152948858 -1 -1 -1
801 2 3.737159189875528 11.575748622943017 4.608831822489839 1 -2 1
240 1 9.268762723393431 17.414449094807274 9.79755242680104 0 0 1
648 2 8.69131014749639 12.360254980298938 10.698910735764883 -1 1 1
751 2 10.471622658254205 14.502873832036935 10.903340657056338 1 0 2
786 2 8.817892950456239 11.818860797096255 7.928535436255484 0 0 0
597 2 8.910251790753664 14.0192833640132 7.901595261423987 -2 -1 1
342 1 10.107618914864485 16.117057622416684 8.559195833088442 -3 -2 -1
285 1 8.59523000608552 13.664715001637504 9.609699189160057 0 2 2
147 1 8.556205533057023 20.916203194800033 2.0007583564442077 -1 -1 -1
63 1 9.242650238646837 20.49446307818363 5.050757810317508 -2 1 5
863 2 8.07858991629156 15.616000476372642 10.34438306973562 1 0 2
74 1 3.240332098608269 13.054333874674464 3.931507842970173 2 1 2
152 1 7.358381201012345 18.426155273134107 8.60442399640503 -2 -1 0
693 2 0.12095565686219364 20.255305531049025 7.0970051202511595 2 0 0
605 2 3.522196321774207 19.930808033091893 5.822878416331916 1 0 0
436 2 3.9836671164939603 17.78129696107614 7.214529090096563 2 -2 -1
847 2 1.4283748795603128 22.24109421709761 8.20668302685773 0 0 0
452 2 7.515116701543523 19.751725935452686 9.407609352760916 1 0 0
981 2 0.43540627955503564 19.867628384548503 9.847355854795577 2 0 -2
472 2 1.914562260841444 19.17999414379781 7.498211896519288 -1 0 0
793 2 2.680218309974873 18.90168086677097 9.728060084983648 0 -1 -3
357 1 9.923863847624213 19.557286488007026 6.994753294536912 -3 0 -4
45 1 8.115442925465635 20.28413027743575 6.817064735925589 0 1 0
879 2 9.798335128573127 20.547724598830246 9.441259712864602 -1 1 0
740 2 5.2643843414330656 17.386773163371494 9.169634574058568 0 -1 1
837 2 0.39316779888131587 21.63825247377357 11.114114197869828 0 0 -2
36 1 1.7259918402613617 11.435559495129223 2.378397987574609 1 3 -1
360 1 11.104249603789704 14.117219731703285 8.719284691564958 -1 1 2
354 1 10.553439300367305 11.186565204433233 3.6391153143246444 0 -1 0
114 1 1.532550514069728 11.191247621842203 7.917547586945918 0 -3 0
568 2 4.574886832702119 20.002638821089608 11.134535593544767 -1 -1 0
684 2 1.2449373270595039 12.788308169860159 11.153741462293524 -1 1 -1
654 2 1.83849974846845 16.34629977113938 16.286565129880735 -2 -1 1
875 2 0.4369661433032591 14.959566967241562 14.745001212623995 -1 -1 1
858 2 2.6371843651734554 13.956024615980859 13.786037319876488 -1 1 -1
422 2 0.30733473573214404 17.003531809496163 13.75464519444588 0 -2 -1
778 2 5.081132063512974 13.639498271214984 12.273582333114529 0 1 -1
566 2 5.0788325672485755 15.909442836074168 17.174031980822974 1 -1 -1
927 2 3.7422341926462703 15.701958432891654 12.794591322572487 0 1 0
819 2 3.5175314778869664 12.446379201328284 15.610124366073144 -1 0 0
89 1 4.880379531766291 12.476278024314176 12.908261915081857 -2 0 1
747 2 5.250815059832693 16.041809629420968 14.833218469281329 2 0 1
665 2 2.6943585736298314 11.511169337582844 13.30379330707842 1 0 -1
58 1 10.672375198644328 20.218485489749007 22.174304167696512 0 1 -1
183 1 5.290553970528874 20.071700412363544 22.162826796335544 -2 1 -2
175 1 0.49935390834021604 17.36153902508756 11.551940203798539 1 -4 1
423 2 0.146605047018638 14.938143652836876 12.378443594899178 0 0 0
71 1 5.957431720709612 16.0980344767528 18.592588906530008 -2 1 -1
784 2 9.88210966538677 14.844286371193165 13.3467724052931 0 2 -1
649 2 7.346022678888139 14.346937913510743 14.103674378861117 1 -1 -2
638 2 6.197823794083902 12.246031657845819 13.970373900225077 0 0 1
505 2 9.229848403173893 11.72344133132244 13.761213447630263 1 -1 2
739 2 8.590354162160155 13.509311653624334 16.021518000607845 -1 1 0
52 1 10.133955811499801 11.98397967864415 15.13054178540251 0 1 2
54 1 0.5422395872791312 12.768275396585711 14.092635103879198 -3 0 1
67 1 8.355374073007646 12.535102234246356 17.840108098463727 0 -2 3
606 2 7.245808653182404 13.823394788058614 11.77564718406815 1 -1 1
153 1 11.026895120288252 12.170259997594643 16.712238682753057 0 -2 -1
64 1 7.726525193909472 15.225221836597362 12.013628906321463 3 2 -3
380 1 4.766122976633637 13.778792170345433 15.539577034134371 -4 2 -3
56 1 8.825211544039682 17.530397887232997 12.077035872944194 -5 1 -2
222 1 0.901039661286979 19.340393362634064 20.11890197982249 2 -1 -2
816 2 0.4443920992771144 18.145374359008144 15.936460099644888 1 0 0
526 2 4.448828801084953 19.172930191315157 17.083566200181515 -3 1 0
421 2 4.784725159652455 21.3411973651591 13.364980747169888 0 -1 0
658 2 4.673185503132206 18.006327877658872 12.913141590529946 1 1 -1
531 2 2.225024297644192 18.008491279429254 13.509995251789489 -1 0 1
507 2 1.5936546748217164 19.978786132786837 14.602590767903992 0 0 -2
150 1 2.9998604690878485 18.653590267871266 16.815366438979094 2 -1 -3
122 1 11.133670855833458 15.201359578162055 14.27473139875175 3 0 0
199 1 0.05258399057960075 18.056060088392915 20.34238373369787 1 1 -1
203 1 4.093119307144761 17.015104583776758 15.82639782220223 0 -1 1
20 1 8.765935277872195 20.945033304018374 14.452534243439597 -2 3 -1
608 2 3.7889446237620654 20.733422023452587 15.286273813404822 2 -2 0
95 1 2.055495033618457 21.299380500927434 12.15468337584332 2 -2 4
471 2 10.38567797300599 20.003381455251255 14.344461813163333 -2 -1 -1
623 2 10.898834252604056 17.482422459580956 14.30107368505968 1 1 0
779 2 6.119337308194863 21.084774726176672 15.634433081494969 0 0 1
999 2 8.242581278023367 20.652744298126652 16.561654330699046 -1 -1 1
861 2 7.834274755256818 17.383260333040653 14.090733556999433 0 -2 -2
324 1 5.964217581914495 19.029087770202306 13.629047728822831 -1 -1 -2
857 2 6.256291551956566 21.238697136584456 11.415905371766328 0 -1 0
55 1 8.22088174529706 20.130471825232192 13.823196535426058 0 1 -1
989 2 5.961078392464043 18.437996126325583 14.99610670308331 0 0 0
47 1 7.53156613032173 21.261307124424018 22.115526039934508 0 -1 0
682 2 7.362649744591083 19.48767244207722 12.527927296609812 0 -1 0
615 2 6.82198687578605 17.419240738368472 11.282167524877718 -1 0 -1
993 2 9.56111993982767 21.07242277271656 22.257003115351317 2 0 0
911 2 10.727288002912893 16.893579461024284 16.541505288849073 0 3 1
13 1 8.23942581227787 16.127184450871265 15.224498230121522 2 2 -3
716 2 10.7236953489449 16.61577033434455 12.129259678062295 0 1 1
781 2 9.18508156125094 18.635313632384925 15.830453043224681 -1 1 -1
919 2 2.514976904500203 13.291646217687765 17.521358875158953 -1 1 -1
433 2 5.513610610261544 13.57917614055412 16.923473595285127 0 0 2
890 2 3.1185622184095236 11.594971130752558 19.361022518425617 -1 -2 -1
584 2 4.09212725738174 13.211519604465444 20.678385330157354 0 0 -1
445 2 3.5118557707216564 15.330320759155253 20.45677878675551 -1 1 -2
565 2 2.761159876215 15.415986577761869 18.33181321115051 2 -2 2
762 2 1.3502140535179277 13.77219910087293 19.53654933164988 1 1 0