 vasp.6.5.0 16Dec24 (build Jan 20 2025 08:32:48) complex                         
 executed on        HPECrayEX_GCC date 2025.07.21  20:13:15
 running  128 mpi-ranks, with    1 threads/rank, on    1 nodes
 distrk:  each k-point on  128 cores,    1 groups
 distr:  one band on NCORE=  16 cores,    8 groups


--------------------------------------------------------------------------------------------------------


 INCAR:
   SYSTEM = a-Si SPC
   NCORE = 16
   ISTART = 1
   ICHARG = 1
   ISPIN = 1
   ISYM = 1
   EDIFF = 1E-6
   NELM = 150
   EDIFFG = -0.01
   NSW = 0
   ISIF = 2
   IBRION = -1
   PREC = Accurate
   ENCUT = 1200
   KSPACING = 0.23
   KGAMMA = .TRUE.
   METAGGA = SCAN
   LASPH = .TRUE.
   LDIAG = .FALSE.
   LMIXTAU = .TRUE.
   ADDGRID = .TRUE.
   ALGO = Normal
   ISMEAR = 0
   SIGMA = 0.1
   LORBIT = 11
   NEDOS = 2000
   LWAVE = .FALSE.
   LCHARG = .FALSE.

 POTCAR:    PAW_PBE H 15Jun2001                   
 POTCAR:    PAW_PBE Si 05Jan2001                  
 POTCAR:    PAW_PBE H 15Jun2001                   
   SHA256 =  030f79b5d3ab3cf0e668861823c8fb652ff669f3e15e46930bd03bfd63a607b6 H/POTCAR              
   COPYR  = (c) Copyright 15Jun2001 Georg Kresse                                                    
   COPYR  = This file is part of the software VASP. Any use, copying, and all other rights are regul
   COPYR  = If you do not have a valid VASP license, you may not use, copy or distribute this file. 
   VRHFIN =H: ultrasoft test                                                                        
   LEXCH  = PE                                                                                      
   EATOM  =    12.4884 eV,    0.9179 Ry                                                             
                                                                                                    
   TITEL  = PAW_PBE H 15Jun2001                                                                     
   LULTRA =        F    use ultrasoft PP ?                                                          
   IUNSCR =        0    unscreen: 0-lin 1-nonlin 2-no                                               
   RPACOR =    0.000    partial core radius                                                         
   POMASS =    1.000; ZVAL   =    1.000    mass and valenz                                          
   RCORE  =    1.100    outmost cutoff radius                                                       
   RWIGS  =    0.700; RWIGS  =    0.370    wigner-seitz radius (au A)                               
   ENMAX  =  250.000; ENMIN  =  200.000 eV                                                          
   RCLOC  =    0.701    cutoff for local pot                                                        
   LCOR   =        T    correct aug charges                                                         
   LPAW   =        T    paw PP                                                                      
   EAUG   =  400.000                                                                                
   RMAX   =    1.123    core radius for proj-oper                                                   
   RAUG   =    1.200    factor for augmentation sphere                                              
   RDEP   =    1.112    radius for radial grids                                                     
   RDEPT  =    0.926    core radius for aug-charge                                                  
                                                                                                    
   Atomic configuration                                                                             
    2 entries                                                                                       
     n  l   j            E        occ.                                                              
     1  0  0.50        -6.4927   1.0000                                                             
     2  1  0.50        -3.4015   0.0000                                                             
   Description                                                                                      
     l       E           TYP  RCUT    TYP  RCUT                                                     
     0     -6.4927494     23  1.100                                                                 
     0      6.8029130     23  1.100                                                                 
     1     -4.0817478     23  1.100                                                                 
  local pseudopotential read in
  atomic valenz-charges read in
  non local Contribution for L=           0  read in
    real space projection operators read in
  non local Contribution for L=           0  read in
    real space projection operators read in
  non local Contribution for L=           1  read in
    real space projection operators read in
    PAW grid and wavefunctions read in

   number of l-projection  operators is LMAX  =           3
   number of lm-projection operators is LMMAX =           5

 POTCAR:    PAW_PBE Si 05Jan2001                  
   SHA256 =  79d9987ad8750f624c4d6acb2a16d13abf6a777132adc04dc6c8399be72b42bb Si/POTCAR             
   COPYR  = (c) Copyright 05Jan2001 Georg Kresse                                                    
   COPYR  = This file is part of the software VASP. Any use, copying, and all other rights are regul
   COPYR  = If you do not have a valid VASP license, you may not use, copy or distribute this file. 
   VRHFIN =Si: s2p2                                                                                 
   LEXCH  = PE                                                                                      
   EATOM  =   103.0669 eV,    7.5752 Ry                                                             
                                                                                                    
   TITEL  = PAW_PBE Si 05Jan2001                                                                    
   LULTRA =        F    use ultrasoft PP ?                                                          
   IUNSCR =        1    unscreen: 0-lin 1-nonlin 2-no                                               
   RPACOR =    1.500    partial core radius                                                         
   POMASS =   28.085; ZVAL   =    4.000    mass and valenz                                          
   RCORE  =    1.900    outmost cutoff radius                                                       
   RWIGS  =    2.480; RWIGS  =    1.312    wigner-seitz radius (au A)                               
   ENMAX  =  245.345; ENMIN  =  184.009 eV                                                          
   ICORE  =        2    local potential                                                             
   LCOR   =        T    correct aug charges                                                         
   LPAW   =        T    paw PP                                                                      
   EAUG   =  322.069                                                                                
   DEXC   =    0.000                                                                                
   RMAX   =    1.950    core radius for proj-oper                                                   
   RAUG   =    1.300    factor for augmentation sphere                                              
   RDEP   =    1.993    radius for radial grids                                                     
   RDEPT  =    1.837    core radius for aug-charge                                                  
                                                                                                    
   Atomic configuration                                                                             
    6 entries                                                                                       
     n  l   j            E        occ.                                                              
     1  0  0.50     -1785.8828   2.0000                                                             
     2  0  0.50      -139.4969   2.0000                                                             
     2  1  1.50       -95.5546   6.0000                                                             
     3  0  0.50       -10.8127   2.0000                                                             
     3  1  0.50        -4.0811   2.0000                                                             
     3  2  1.50        -4.0817   0.0000                                                             
   Description                                                                                      
     l       E           TYP  RCUT    TYP  RCUT                                                     
     0    -10.8127223     23  1.900                                                                 
     0     -7.6451159     23  1.900                                                                 
     1     -4.0811372     23  1.900                                                                 
     1      2.4879257     23  1.900                                                                 
     2     -4.0817478      7  1.900                                                                 
  local pseudopotential read in
  partial core-charges read in
  partial kinetic energy density read in
  atomic valenz-charges read in
  non local Contribution for L=           0  read in
    real space projection operators read in
  non local Contribution for L=           0  read in
    real space projection operators read in
  non local Contribution for L=           1  read in
    real space projection operators read in
  non local Contribution for L=           1  read in
    real space projection operators read in
    PAW grid and wavefunctions read in

   number of l-projection  operators is LMAX  =           4
   number of lm-projection operators is LMMAX =           8

 -----------------------------------------------------------------------------
|                                                                             |
|               ----> ADVICE to this user running VASP <----                  |
|                                                                             |
|     You have a (more or less) 'large supercell' and for larger cells it     |
|     might be more efficient to use real-space projection operators.         |
|     Therefore, try LREAL= Auto in the INCAR file.                           |
|     Mind: For very accurate calculation, you might also keep the            |
|     reciprocal projection scheme (i.e. LREAL=.FALSE.).                      |
|                                                                             |
 -----------------------------------------------------------------------------

 -----------------------------------------------------------------------------
|                                                                             |
|               ----> ADVICE to this user running VASP <----                  |
|                                                                             |
|     You enforced a specific xc type in the INCAR file but a different       |
|     type was found in the POTCAR file.                                      |
|     I HOPE YOU KNOW WHAT YOU ARE DOING!                                     |
|                                                                             |
 -----------------------------------------------------------------------------

  PAW_PBE H 15Jun2001                   :
 energy of atom  1       EATOM=  -12.4884
 kinetic energy error for atom=    0.0000 (will be added to EATOM!!)
  PAW_PBE Si 05Jan2001                  :
 energy of atom  2       EATOM= -103.0669
 kinetic energy error for atom=    0.0001 (will be added to EATOM!!)


 POSCAR:  H Si
  positions in cartesian coordinates
  No initial velocities read in


 exchange-correlation table for SCAN
   RHO(1)=    0.500       N(1)  =     2000
   RHO(2)=  100.500       N(2)  =     4000



--------------------------------------------------------------------------------------------------------


 ion  position               nearest neighbor table
   1  0.993  0.655  0.576-
   2  0.996  0.429  0.519-  62 1.44
   3  0.046  0.107  0.570-  19 0.79
   4  0.301  0.930  0.451-  66 1.67  78 1.84
   5  0.801  0.341  0.490-  55 1.39
   6  0.899  0.139  0.527-  47 1.49
   7  0.985  0.847  0.579-  44 1.58
   8  0.679  0.698  0.497-  58 1.50
   9  0.902  0.532  0.572-  62 1.60
  10  0.069  0.526  0.577-  13 0.74
  11  0.046  0.343  0.566-  42 1.42
  12  0.823  0.877  0.612-  44 1.49
  13  0.065  0.520  0.606-  10 0.74
  14  0.034  0.975  0.501-  26 0.74
  15  0.782  0.268  0.523-  73 1.51
  16  0.758  0.423  0.559-  21 0.77
  17  0.928  0.313  0.487-  47 1.65
  18  0.858  0.282  0.591-  23 0.77
  19  0.031  0.057  0.578-   3 0.79
  20  0.795  0.515  0.610-
  21  0.785  0.395  0.579-  16 0.77
  22  0.071  0.968  0.607-  38 1.65
  23  0.877  0.274  0.563-  18 0.77
  24  0.904  0.992  0.564-  44 1.52
  25  0.082  0.493  0.413-
  26  0.986  0.978  0.492-  14 0.74
  27  0.583  0.867  0.558-  35 2.23  51 2.38  77 2.40
  28  0.625  0.025  0.467-  77 2.36  84 2.41  52 2.43  75 2.55  51 2.73  72 2.85
  29  0.407  0.631  0.459-  83 2.24  50 2.30  54 2.33
  30  0.481  0.877  0.405-  66 2.17  63 2.36  77 2.86
  31  0.813  0.171  0.421-  47 2.19  33 2.25  84 2.28
  32  0.423  0.267  0.535-  40 2.21  70 2.29  61 2.32
  33  0.829  0.018  0.415-  31 2.25  72 2.30
  34  0.138  0.788  0.568-  43 2.27  38 2.33  76 2.41
  35  0.453  0.798  0.582-  27 2.23  83 2.35
  36  0.231  0.073  0.561-  69 2.25  74 2.29  38 2.31  49 2.35
  37  0.570  0.560  0.568-  58 2.21  48 2.28  50 2.32
  38  0.177  0.936  0.594-  22 1.65  36 2.31  34 2.33
  39  0.949  0.627  0.396-  80 2.41  41 2.41
  40  0.361  0.406  0.537-  32 2.21  81 2.28  50 2.35
  41  0.030  0.607  0.477-  62 2.28  71 2.32  43 2.40  39 2.41
  42  0.120  0.293  0.544-  11 1.42  53 2.33  74 2.36  81 2.49
  43  0.022  0.760  0.511-  34 2.27  64 2.40  57 2.40  41 2.40
  44  0.917  0.917  0.605-  12 1.49  24 1.52   7 1.58
  45  0.584  0.417  0.466-  68 2.15  61 2.31  65 2.31  50 2.36
  46  0.791  0.707  0.574-  58 2.31  64 2.38
  47  0.913  0.202  0.482-   6 1.49  17 1.65  31 2.19  53 2.31
  48  0.586  0.417  0.602-  37 2.28  61 2.29
  49  0.387  0.054  0.581-  52 2.32  36 2.35  51 3.02
  50  0.470  0.510  0.504-  29 2.30  37 2.32  40 2.35  45 2.36
  51  0.592  0.029  0.572-  27 2.38  75 2.38  52 2.39  28 2.73  49 3.02
  52  0.475  0.032  0.507-  70 2.28  66 2.30  49 2.32  51 2.39  28 2.43
  53  0.070  0.205  0.473-  69 2.27  60 2.29  47 2.31  42 2.33
  54  0.274  0.602  0.412-  59 2.30  29 2.33  71 2.40
  55  0.828  0.424  0.469-   5 1.39  62 2.25  65 2.30  79 2.37
  56  0.330  0.609  0.605-  76 2.37
  57  0.091  0.820  0.434-  78 2.35  43 2.40  59 2.57
  58  0.694  0.612  0.528-   8 1.50  37 2.21  65 2.31  46 2.31
  59  0.234  0.750  0.391-  54 2.30  57 2.57
  60  0.116  0.281  0.400-  53 2.29  82 2.31
  61  0.575  0.316  0.535-  48 2.29  73 2.29  45 2.31  32 2.32
  62  0.933  0.505  0.515-   2 1.44   9 1.60  55 2.25  41 2.28
  63  0.591  0.758  0.408-  77 2.33  30 2.36
  64  0.861  0.795  0.507-  72 2.32  46 2.38  43 2.40  80 2.47
  65  0.704  0.519  0.456-  55 2.30  58 2.31  45 2.31
  66  0.404  0.902  0.475-   4 1.67  30 2.17  52 2.30  83 2.42
  67  0.528  0.217  0.400-  84 2.26  68 2.31  70 2.36
  68  0.533  0.374  0.391-  45 2.15  67 2.31
  69  0.179  0.095  0.480-  36 2.25  53 2.27  78 2.30  85 2.36
  70  0.432  0.166  0.467-  85 2.23  52 2.28  32 2.29  67 2.36
  71  0.180  0.557  0.484-  41 2.32  76 2.34  54 2.40  81 2.40
  72  0.795  0.935  0.488-  33 2.30  64 2.32  75 2.43  77 2.54  28 2.85
  73  0.693  0.215  0.525-  15 1.51  61 2.29  84 2.30  75 2.31
  74  0.180  0.196  0.608-  36 2.29  42 2.36
  75  0.740  0.065  0.538-  73 2.31  51 2.38  72 2.43  28 2.55
  76  0.243  0.673  0.536-  83 2.27  71 2.34  56 2.37  34 2.41
  77  0.638  0.864  0.471-  63 2.33  28 2.36  27 2.40  72 2.54  30 2.86
  78  0.179  0.954  0.439-   4 1.84  69 2.30  57 2.35
  79  0.900  0.396  0.388-  55 2.37
  80  0.850  0.755  0.414-  39 2.41  64 2.47
  81  0.223  0.399  0.496-  40 2.28  82 2.34  71 2.40  42 2.49
  82  0.264  0.332  0.416-  60 2.31  81 2.34  85 2.59
  83  0.369  0.752  0.509-  29 2.24  76 2.27  35 2.35  66 2.42
  84  0.661  0.179  0.440-  67 2.26  31 2.28  73 2.30  28 2.41
  85  0.296  0.158  0.428-  70 2.23  69 2.36  82 2.59

  LATTYP: Found a simple tetragonal cell.
 ALAT       =    14.5871822212
 C/A-ratio  =     1.7654816132
  
  Lattice vectors:
  
 A1 = (  14.5871822212,   0.0000000000,   0.0000000000)
 A2 = (   0.0000000000,  14.5871822212,   0.0000000000)
 A3 = (   0.0000000000,   0.0000000000,  25.7534020000)


Analysis of symmetry for initial positions (statically):
=====================================================================
 Subroutine PRICEL returns:
 Original cell was already a primitive cell.
 

 Routine SETGRP: Setting up the symmetry group for a 
 simple tetragonal supercell.


 Subroutine GETGRP returns: Found  1 space group operations
 (whereof  1 operations were pure point group operations)
 out of a pool of 16 trial point group operations.


The static configuration has the point symmetry C_1 .


Analysis of symmetry for dynamics (positions and initial velocities):
=====================================================================
 Subroutine PRICEL returns:
 Original cell was already a primitive cell.
 

 Routine SETGRP: Setting up the symmetry group for a 
 simple tetragonal supercell.


 Subroutine GETGRP returns: Found  1 space group operations
 (whereof  1 operations were pure point group operations)
 out of a pool of 16 trial point group operations.


The dynamic configuration has the point symmetry C_1 .


 Subroutine INISYM returns: Found  1 space group operations
 (whereof  1 operations are pure point group operations),
 and found     1 'primitive' translations


----------------------------------------------------------------------------------------

                                     Primitive cell                                     

  volume of cell :    5479.9604

  direct lattice vectors                    reciprocal lattice vectors
    14.587182221  0.000000000  0.000000000     0.068553336  0.000000000  0.000000000
     0.000000000 14.587182221  0.000000000     0.000000000  0.068553336  0.000000000
     0.000000000  0.000000000 25.753402000     0.000000000  0.000000000  0.038829821

  length of vectors
    14.587182221 14.587182221 25.753402000     0.068553336  0.068553336  0.038829821

  position of ions in fractional coordinates (direct lattice)
     0.992659157  0.655308877  0.576424505
     0.996066257  0.428808656  0.519008790
     0.045782180  0.106980908  0.570044765
     0.301280942  0.929686062  0.451219299
     0.801018307  0.340982921  0.490479355
     0.898658823  0.139445026  0.527219355
     0.985008604  0.846750237  0.579102209
     0.679127733  0.697790694  0.496927047
     0.902360703  0.532261124  0.571958687
     0.069280001  0.525745815  0.577166543
     0.046343837  0.343446042  0.565524586
     0.823291285  0.876893139  0.611701786
     0.065291020  0.519866681  0.605567451
     0.033786649  0.974849000  0.501150566
     0.781658845  0.268274567  0.522885947
     0.758330144  0.423374433  0.558564729
     0.928164178  0.313395687  0.487428496
     0.858205499  0.281900914  0.590607097
     0.030770782  0.056661731  0.577566878
     0.794560582  0.515294173  0.609645359
     0.784949405  0.395400559  0.578952715
     0.071498387  0.968007377  0.607103947
     0.877263327  0.273675199  0.563286435
     0.903910008  0.991671989  0.563961297
     0.082308563  0.493414690  0.413470888
     0.985659861  0.977810504  0.492235239
     0.582980995  0.866987181  0.558277388
     0.625389459  0.025181011  0.467156223
     0.406686494  0.631267222  0.459357641
     0.481331479  0.876591504  0.404687505
     0.812734072  0.171073478  0.420606489
     0.423076226  0.267339500  0.534843591
     0.829132030  0.018072236  0.414948324
     0.138045852  0.787698393  0.567777492
     0.452759135  0.798365292  0.582310718
     0.231269477  0.072856429  0.561170986
     0.570125188  0.560118457  0.567919998
     0.176965637  0.935732467  0.593577967
     0.949333448  0.627217091  0.395798349
     0.361498192  0.405732917  0.536925257
     0.030057827  0.607146731  0.476559641
     0.119808608  0.292837913  0.543502641
     0.021619871  0.759797186  0.511340676
     0.916551243  0.917490424  0.604643301
     0.583794723  0.417382871  0.465938520
     0.791084928  0.707052249  0.574370019
     0.912616282  0.201766178  0.481834672
     0.586497781  0.417248507  0.602300310
     0.386991807  0.053918501  0.581280562
     0.469730198  0.510139648  0.504075229
     0.591735256  0.028517091  0.571608054
     0.474524819  0.032128069  0.507032119
     0.070021063  0.205255542  0.473267648
     0.274131079  0.602080639  0.411872109
     0.828384798  0.424368456  0.469391267
     0.329525602  0.608861250  0.604593599
     0.091029918  0.819829342  0.433865087
     0.693951707  0.612219678  0.528232814
     0.233502944  0.749596449  0.390587465
     0.116451551  0.281268167  0.400004046
     0.574750481  0.316280412  0.534626920
     0.933401653  0.504737645  0.514538312
     0.591341074  0.758090208  0.408272934
     0.861023041  0.794615425  0.507179285
     0.704268984  0.518882940  0.456097878
     0.404060902  0.902422401  0.475383097
     0.528176716  0.217152288  0.399752079
     0.532747852  0.374428722  0.391430227
     0.178754879  0.094790754  0.479794165
     0.432084134  0.165515174  0.467368234
     0.180494763  0.556895079  0.484085248
     0.794773098  0.934992091  0.488376332
     0.693458123  0.214815305  0.525221949
     0.179807859  0.195694409  0.608255251
     0.739937284  0.065004467  0.538408168
     0.242807003  0.673446719  0.535845400
     0.638455039  0.864224482  0.470603923
     0.179380771  0.954091050  0.439097017
     0.899714544  0.396214287  0.388298214
     0.850116206  0.754977886  0.414296177
     0.223149334  0.399332092  0.495667019
     0.263641047  0.331842019  0.416353925
     0.368742909  0.751536509  0.509201153
     0.660583371  0.179439727  0.440320157
     0.296077058  0.158079193  0.427637949

  ion indices of the primitive-cell ions
   primitive index   ion index
                 1           1
                 2           2
                 3           3
                 4           4
                 5           5
                 6           6
                 7           7
                 8           8
                 9           9
                10          10
                11          11
                12          12
                13          13
                14          14
                15          15
                16          16
                17          17
                18          18
                19          19
                20          20
                21          21
                22          22
                23          23
                24          24
                25          25
                26          26
                27          27
                28          28
                29          29
                30          30
                31          31
                32          32
                33          33
                34          34
                35          35
                36          36
                37          37
                38          38
                39          39
                40          40
                41          41
                42          42
                43          43
                44          44
                45          45
                46          46
                47          47
                48          48
                49          49
                50          50
                51          51
                52          52
                53          53
                54          54
                55          55
                56          56
                57          57
                58          58
                59          59
                60          60
                61          61
                62          62
                63          63
                64          64
                65          65
                66          66
                67          67
                68          68
                69          69
                70          70
                71          71
                72          72
                73          73
                74          74
                75          75
                76          76
                77          77
                78          78
                79          79
                80          80
                81          81
                82          82
                83          83
                84          84
                85          85

----------------------------------------------------------------------------------------


 -----------------------------------------------------------------------------
|                                                                             |
|           W    W    AA    RRRRR   N    N  II  N    N   GGGG   !!!           |
|           W    W   A  A   R    R  NN   N  II  NN   N  G    G  !!!           |
|           W    W  A    A  R    R  N N  N  II  N N  N  G       !!!           |
|           W WW W  AAAAAA  RRRRR   N  N N  II  N  N N  G  GGG   !            |
|           WW  WW  A    A  R   R   N   NN  II  N   NN  G    G                |
|           W    W  A    A  R    R  N    N  II  N    N   GGGG   !!!           |
|                                                                             |
|     The requested file  could not be found or opened for reading            |
|     k-point information. Automatic k-point generation is used as a          |
|     fallback, which may lead to unwanted results.                           |
|                                                                             |
 -----------------------------------------------------------------------------



Automatic generation of k-mesh.
 Grid dimensions derived from KSPACING:
 generate k-points for:    2    2    2

 Generating k-lattice:

  Cartesian coordinates                     Fractional coordinates (reciprocal lattice)
     0.034276668  0.000000000  0.000000000     0.500000000  0.000000000  0.000000000
     0.000000000  0.034276668  0.000000000     0.000000000  0.500000000  0.000000000
     0.000000000  0.000000000  0.019414911     0.000000000  0.000000000  0.500000000

  Length of vectors
     0.034276668  0.034276668  0.019414911

  Shift w.r.t. Gamma in fractional coordinates (k-lattice)
     0.000000000  0.000000000  0.000000000

 
 Subroutine IBZKPT returns following result:
 ===========================================
 
 Found      8 irreducible k-points:
 
 Following reciprocal coordinates:
            Coordinates               Weight
  0.000000  0.000000  0.000000      1.000000
  0.500000  0.000000  0.000000      1.000000
  0.000000  0.500000  0.000000      1.000000
  0.500000  0.500000  0.000000      1.000000
  0.000000  0.000000  0.500000      1.000000
  0.500000  0.000000  0.500000      1.000000
  0.000000  0.500000  0.500000      1.000000
  0.500000  0.500000  0.500000      1.000000
 
 Following cartesian coordinates:
            Coordinates               Weight
  0.000000  0.000000  0.000000      1.000000
  0.034277  0.000000  0.000000      1.000000
  0.000000  0.034277  0.000000      1.000000
  0.034277  0.034277  0.000000      1.000000
  0.000000  0.000000  0.019415      1.000000
  0.034277  0.000000  0.019415      1.000000
  0.000000  0.034277  0.019415      1.000000
  0.034277  0.034277  0.019415      1.000000
 


--------------------------------------------------------------------------------------------------------




 Dimension of arrays:
   k-points           NKPTS =      8   k-points in BZ     NKDIM =      8   number of bands    NBANDS=    176
   number of dos      NEDOS =   2000   number of ions     NIONS =     85
   non local maximal  LDIM  =      4   non local SUM 2l+1 LMDIM =      8
   total plane-waves  NPLWV = ******
   max r-space proj   IRMAX =      1   max aug-charges    IRDMAX= 405174
   dimension x,y,z NGX =   168 NGY =  168 NGZ =  294
   dimension x,y,z NGXF=   336 NGYF=  336 NGZF=  588
   support grid    NGXF=   672 NGYF=  672 NGZF= 1176
   ions per type =              26  59
   NGX,Y,Z   is equivalent  to a cutoff of  19.15, 19.15, 18.98 a.u.
   NGXF,Y,Z  is equivalent  to a cutoff of  38.29, 38.29, 37.96 a.u.

 SYSTEM =  a-Si SPC                                
 POSCAR =   H Si                                   

 Startparameter for this run:
   NWRITE =      2    write-flag & timer
   PREC   = accura    normal or accurate (medium, high low for compatibility)
   ISTART =      1    job   : 0-new  1-cont  2-samecut
   ICHARG =      1    charge: 1-file 2-atom 10-const
   ISPIN  =      1    spin polarized calculation?
   LNONCOLLINEAR =      F non collinear calculations
   LSORBIT =      F    spin-orbit coupling
   INIWAV =      1    electr: 0-lowe 1-rand  2-diag
   LASPH  =      T    aspherical Exc in radial PAW
 Electronic Relaxation 1
   ENCUT  = 1200.0 eV  88.20 Ry    9.39 a.u.  41.20 41.20 72.74*2*pi/ulx,y,z
   ENINI  = 1200.0     initial cutoff
   ENAUG  =  400.0 eV  augmentation charge cutoff
   NELM   =    150;   NELMIN=  2; NELMDL=  0     # of ELM steps 
   EDIFF  = 0.1E-05   stopping-criterion for ELM
   LREAL  =      F    real-space projection
   NLSPLINE    = F    spline interpolate recip. space projectors
   LCOMPAT=      F    compatible to vasp.4.4
   GGA_COMPAT  = T    GGA compatible to vasp.4.4-vasp.4.6
   LMAXPAW     = -100 max onsite density
   LMAXMIX     =    2 max onsite mixed and CHGCAR
   VOSKOWN=      0    Vosko Wilk Nusair interpolation
   ROPT   =    0.00000   0.00000
 Ionic relaxation
   EDIFFG = -.1E-01   stopping-criterion for IOM
   NSW    =      0    number of steps for IOM
   NBLOCK =      1;   KBLOCK =      1    inner block; outer block 
   IBRION =     -1    ionic relax: 0-MD 1-quasi-New 2-CG
   NFREE  =      0    steps in history (QN), initial steepest desc. (CG)
   ISIF   =      2    stress and relaxation
   IWAVPR =     10    prediction:  0-non 1-charg 2-wave 3-comb
   ISYM   =      1    0-nonsym 1-usesym 2-fastsym
   LCORR  =      T    Harris-Foulkes like correction to forces

   POTIM  = 0.5000    time-step for ionic-motion
   TEIN   =    0.0    initial temperature
   TEBEG  =    0.0;   TEEND  =   0.0 temperature during run
   SMASS  =  -3.00    Nose mass-parameter (am)
   estimated Nose-frequenzy (Omega)   =  0.10E-29 period in steps = 0.13E+47 mass=  -0.486E-26a.u.
   SCALEE = 1.0000    scale energy and forces
   NPACO  =    256;   APACO  = 10.0  distance and # of slots for P.C.
   PSTRESS=    0.0 pullay stress

  Mass of Ions in am
   POMASS =   1.00 28.09
  Ionic Valenz
   ZVAL   =   1.00  4.00
  Atomic Wigner-Seitz radii
   RWIGS  =  -1.00 -1.00
  virtual crystal weights 
   VCA    =   1.00  1.00
   NELECT =     262.0000    total number of electrons
   NUPDOWN=      -1.0000    fix difference up-down

 DOS related values:
   EMIN   =  10.00;   EMAX   =-10.00  energy-range for DOS
   EFERMI =   0.00;   METHOD = LEGACY      
   ISMEAR =     0;   SIGMA  =   0.10  broadening in eV -4-tet -1-fermi 0-gaus
   EFERMI_NEDOS =   21; number of points for ismear=-14 and -15

 Electronic relaxation 2 (details)
   IALGO  =     38    algorithm
   LDIAG  =      F    sub-space diagonalisation (order eigenvalues)
   LSUBROT=      F    optimize rotation matrix (better conditioning)
   TURBO    =      0    0=normal 1=particle mesh
   IRESTART =      0    0=no restart 2=restart with 2 vectors
   NREBOOT  =      0    no. of reboots
   NMIN     =      0    reboot dimension
   EREF     =   0.00    reference energy to select bands
   IMIX   =      4    mixing-type and parameters
     AMIX     =   0.40;   BMIX     =  1.00
     AMIX_MAG =   1.60;   BMIX_MAG =  1.00
     AMIN     =   0.10
     WC   =   100.;   INIMIX=   1;  MIXPRE=   1;  MAXMIX= -45

 Intra band minimization:
   WEIMIN = 0.0000     energy-eigenvalue tresh-hold
   EBREAK =  0.14E-08  absolut break condition
   DEPER  =   0.30     relativ break condition  

   TIME   =   0.40     timestep for ELM

  volume/ion in A,a.u.               =      64.47       435.07
  Fermi-wavevector in a.u.,A,eV,Ry     =   0.594177  1.122832  4.803493  0.353047
  Thomas-Fermi vector in A             =   1.643660

 Write flags
   LWAVE        =      F    write WAVECAR
   LDOWNSAMPLE  =      F    k-point downsampling of WAVECAR
   LCHARG       =      F    write CHGCAR
   LVTOT        =      F    write LOCPOT, total local potential
   LVHAR        =      F    write LOCPOT, Hartree potential only
   WRT_POTENTIAL= false  ! write potential to hdf5 file
   LELF         =      F    write electronic localiz. function (ELF)
   LORBIT       =     11    0 simple, 1 ext, 2 COOP (PROOUT), +10 PAW based schemes


 Python interface
   PLUGINS active      =      F    recompile with -DPLUGINS to activate

 Dipole corrections
   LMONO      =      F    monopole corrections only (constant potential shift)
   LDIPOL     =      F    correct potential (dipole corrections)
   IDIPOL     =      0    1-x, 2-y, 3-z, 4-all directions 
   EPSILON    =  1.0000000 bulk dielectric constant
   LVACPOTAV  =      F  vacuum potentials using an averaging scheme for the charge density
   VACPOTFLAT =  0.1000000 required flatness to determine vacuum potential

Coulomb truncation method
  LTRUNCATE          =      F  Coulomb kernel truncation to be used
  IDIMENSIONALITY    =      3  Dimensionality of cutoff (0 molecules / 2 surfaces)
  ISURFACE           =     -1  Direction of surface normal
  LCOARSEN           =      F  Coarsen the charge grid before padding, preferred


 Exchange correlation treatment:
   METAGGA = SCAN    functional components
   XC_C    = 1    coefficients multiplying the functional components
   LIBXC   =     F    Libxc                    
   VOSKOWN =     0    Vosko Wilk Nusair interpolation
   LHFCALC =     F    Hartree Fock is set to
   LHFONE  =     F    Hartree Fock one center treatment
   AEXX    =    0.0000 exact exchange contribution

 Parameters of functionals:
   SCAN:
     P1 =  0.000000E+00
     P2 =  0.000000E+00
     P3 =  0.000000E+00

 Accuracy and mixing parameters for tau-dependent meta-GGA functionals:
   LMAXTAU = 6
   LMIXTAU = T

 Van der Waals corrections
   IVDW    =     0    specifies the selected vdW correction

 Linear response parameters
   LEPSILON=     F    determine dielectric tensor
   LRPA    =     F    only Hartree local field effects (RPA)
   LNABLA  =     F    use nabla operator in PAW spheres
   LVEL    =     F    velocity operator in full k-point grid
   CSHIFT  =0.1000    complex shift for real part using Kramers Kronig
   OMEGAMAX=  -1.0    maximum frequency
   DEG_THRESHOLD= 0.2000000E-02 threshold for treating states as degnerate
   RTIME   =   -0.100 relaxation time in fs
  (WPLASMAI=    0.000 imaginary part of plasma frequency in eV, 0.658/RTIME)
   DFIELD  = 0.0000000 0.0000000 0.0000000 field for delta impulse in time

  Optional k-point grid parameters
   LKPOINTS_OPT  =     F    use optional k-point grid
   KPOINTS_OPT_MODE=     1    mode for optional k-point grid

 Orbital magnetization related:
   ORBITALMAG=     F  switch on orbital magnetization
   LCHIMAG   =     F  perturbation theory with respect to B field
   DQ        =  0.001000  dq finite difference perturbation B field
   LLRAUG    =     F  two centre corrections for induced B field
   LBONE     =     F  B-component reconstruction in AE one-centre
   LVGVCALC  =     T  calculate vGv susceptibility
   LVGVAPPL  =     F  apply vGv susceptibility instead of pGv for G=0

 Random number generation:
   RANDOM_GENERATOR = DEFAULT
   PCG_SEED         = not used


--------------------------------------------------------------------------------------------------------


 Static calculation
 charge density and potential will be updated during run
 non-spin polarized calculation
 Variant of blocked Davidson
 perform Loewdin sub-space diagonalisation
    ordering is kept fixed
    before iterative eigenvector-optimisation
 modified Broyden-mixing scheme, WC =      100.0
 initial mixing is a Kerker type mixing with AMIX =  0.4000 and BMIX =      1.0000
 Hartree-type preconditioning will be used
 using additional bands           45
 reciprocal scheme for non local part
 use partial core corrections
 calculate Harris-corrections to forces   (improved forces if not selfconsistent)
 use gradient corrections 
 use of overlap-Matrix (Vanderbilt PP)
 Gauss-broadening in eV      SIGMA  =   0.10


--------------------------------------------------------------------------------------------------------


  energy-cutoff  :     1200.00
  volume of cell :     5479.96
      direct lattice vectors                 reciprocal lattice vectors
    14.587182221  0.000000000  0.000000000     0.068553336  0.000000000  0.000000000
     0.000000000 14.587182221  0.000000000     0.000000000  0.068553336  0.000000000
     0.000000000  0.000000000 25.753402000     0.000000000  0.000000000  0.038829821

  length of vectors
    14.587182221 14.587182221 25.753402000     0.068553336  0.068553336  0.038829821



 old parameters found on file WAVECAR:
  energy-cutoff  :     1200.00
  volume of cell :     5479.96
      direct lattice vectors                 reciprocal lattice vectors
    14.587182221  0.000000000  0.000000000     0.068553336  0.000000000  0.000000000
     0.000000000 14.587182221  0.000000000     0.000000000  0.068553336  0.000000000
     0.000000000  0.000000000 25.753402000     0.000000000  0.000000000  0.038829821

  length of vectors


 k-points in units of 2pi/SCALE and weight: read from INCAR                         
   0.00000000  0.00000000  0.00000000       0.125
   0.03427667  0.00000000  0.00000000       0.125
   0.00000000  0.03427667  0.00000000       0.125
   0.03427667  0.03427667  0.00000000       0.125
   0.00000000  0.00000000  0.01941491       0.125
   0.03427667  0.00000000  0.01941491       0.125
   0.00000000  0.03427667  0.01941491       0.125
   0.03427667  0.03427667  0.01941491       0.125

 k-points in reciprocal lattice and weights: read from INCAR                         
   0.00000000  0.00000000  0.00000000       0.125
   0.50000000  0.00000000  0.00000000       0.125
   0.00000000  0.50000000  0.00000000       0.125
   0.50000000  0.50000000  0.00000000       0.125
   0.00000000  0.00000000  0.50000000       0.125
   0.50000000  0.00000000  0.50000000       0.125
   0.00000000  0.50000000  0.50000000       0.125
   0.50000000  0.50000000  0.50000000       0.125

 position of ions in fractional coordinates (direct lattice) 
   0.99265916  0.65530888  0.57642451
   0.99606626  0.42880866  0.51900879
   0.04578218  0.10698091  0.57004477
   0.30128094  0.92968606  0.45121930
   0.80101831  0.34098292  0.49047935
   0.89865882  0.13944503  0.52721936
   0.98500860  0.84675024  0.57910221
   0.67912773  0.69779069  0.49692705
   0.90236070  0.53226112  0.57195869
   0.06928000  0.52574581  0.57716654
   0.04634384  0.34344604  0.56552459
   0.82329129  0.87689314  0.61170179
   0.06529102  0.51986668  0.60556745
   0.03378665  0.97484900  0.50115057
   0.78165884  0.26827457  0.52288595
   0.75833014  0.42337443  0.55856473
   0.92816418  0.31339569  0.48742850
   0.85820550  0.28190091  0.59060710
   0.03077078  0.05666173  0.57756688
   0.79456058  0.51529417  0.60964536
   0.78494940  0.39540056  0.57895271
   0.07149839  0.96800738  0.60710395
   0.87726333  0.27367520  0.56328643
   0.90391001  0.99167199  0.56396130
   0.08230856  0.49341469  0.41347089
   0.98565986  0.97781050  0.49223524
   0.58298099  0.86698718  0.55827739
   0.62538946  0.02518101  0.46715622
   0.40668649  0.63126722  0.45935764
   0.48133148  0.87659150  0.40468750
   0.81273407  0.17107348  0.42060649
   0.42307623  0.26733950  0.53484359
   0.82913203  0.01807224  0.41494832
   0.13804585  0.78769839  0.56777749
   0.45275913  0.79836529  0.58231072
   0.23126948  0.07285643  0.56117099
   0.57012519  0.56011846  0.56792000
   0.17696564  0.93573247  0.59357797
   0.94933345  0.62721709  0.39579835
   0.36149819  0.40573292  0.53692526
   0.03005783  0.60714673  0.47655964
   0.11980861  0.29283791  0.54350264
   0.02161987  0.75979719  0.51134068
   0.91655124  0.91749042  0.60464330
   0.58379472  0.41738287  0.46593852
   0.79108493  0.70705225  0.57437002
   0.91261628  0.20176618  0.48183467
   0.58649778  0.41724851  0.60230031
   0.38699181  0.05391850  0.58128056
   0.46973020  0.51013965  0.50407523
   0.59173526  0.02851709  0.57160805
   0.47452482  0.03212807  0.50703212
   0.07002106  0.20525554  0.47326765
   0.27413108  0.60208064  0.41187211
   0.82838480  0.42436846  0.46939127
   0.32952560  0.60886125  0.60459360
   0.09102992  0.81982934  0.43386509
   0.69395171  0.61221968  0.52823281
   0.23350294  0.74959645  0.39058746
   0.11645155  0.28126817  0.40000405
   0.57475048  0.31628041  0.53462692
   0.93340165  0.50473764  0.51453831
   0.59134107  0.75809021  0.40827293
   0.86102304  0.79461542  0.50717928
   0.70426898  0.51888294  0.45609788
   0.40406090  0.90242240  0.47538310
   0.52817672  0.21715229  0.39975208
   0.53274785  0.37442872  0.39143023
   0.17875488  0.09479075  0.47979416
   0.43208413  0.16551517  0.46736823
   0.18049476  0.55689508  0.48408525
   0.79477310  0.93499209  0.48837633
   0.69345812  0.21481531  0.52522195
   0.17980786  0.19569441  0.60825525
   0.73993728  0.06500447  0.53840817
   0.24280700  0.67344672  0.53584540
   0.63845504  0.86422448  0.47060392
   0.17938077  0.95409105  0.43909702
   0.89971454  0.39621429  0.38829821
   0.85011621  0.75497789  0.41429618
   0.22314933  0.39933209  0.49566702
   0.26364105  0.33184202  0.41635392
   0.36874291  0.75153651  0.50920115
   0.66058337  0.17943973  0.44032016
   0.29607706  0.15807919  0.42763795

 position of ions in cartesian coordinates  (Angst):
  14.48010000  9.55911000 14.84489200
  14.52980000  6.25511000 13.36624200
   0.66783300  1.56055000 14.68059200
   4.39484000 13.56150000 11.62043200
  11.68460000  4.97398000 12.63151200
  13.10890000  2.03411000 13.57769200
  14.36850000 12.35170000 14.91385200
   9.90656000 10.17880000 12.79756200
  13.16290000  7.76419000 14.72988200
   1.01060000  7.66915000 14.86400200
   0.67602600  5.00991000 14.56418200
  12.00950000 12.79140000 15.75340200
   0.95241200  7.58339000 15.59542200
   0.49285200 14.22030000 12.90633200
  11.40220000  3.91337000 13.46609200
  11.06190000  6.17584000 14.38494200
  13.53930000  4.57156000 12.55294200
  12.51880000  4.11214000 15.21014200
   0.44885900  0.82653500 14.87431200
  11.59040000  7.51669000 15.70044200
  11.45020000  5.76778000 14.91000200
   1.04296000 14.12050000 15.63499200
  12.79680000  3.99215000 14.50654200
  13.18550000 14.46570000 14.52392200
   1.20065000  7.19753000 10.64828200
  14.37800000 14.26350000 12.67673200
   8.50405000 12.64690000 14.37754200
   9.12267000  0.36732000 12.03086200
   5.93241000  9.20841000 11.83002200
   7.02127000 12.78700000 10.42208000
  11.85550000  2.49548000 10.83204800
   6.17149000  3.89973000 13.77404200
  12.09470000  0.26362300 10.68633100
   2.01370000 11.49030000 14.62220200
   6.60448000 11.64590000 14.99648200
   3.37357000  1.06277000 14.45206200
   8.31652000  8.17055000 14.62587200
   2.58143000 13.64970000 15.28665200
  13.84810000  9.14933000 10.19315400
   5.27324000  5.91850000 13.82765200
   0.43845900  8.85656000 12.27303200
   1.74767000  4.27168000 13.99704200
   0.31537300 11.08330000 13.16876200
  13.36990000 13.38360000 15.57162200
   8.51592000  6.08844000 11.99950200
  11.53970000 10.31390000 14.79198200
  13.31250000  2.94320000 12.40888200
   8.55535000  6.08648000 15.51128200
   5.64512000  0.78651900 14.96995200
   6.85204000  7.44150000 12.98165200
   8.63175000  0.41598400 14.72085200
   6.92198000  0.46865800 13.05780200
   1.02141000  2.99410000 12.18825200
   3.99880000  8.78266000 10.60710800
  12.08380000  6.19034000 12.08842200
   4.80685000  8.88157000 15.57034200
   1.32787000 11.95900000 11.17350200
  10.12280000  8.93056000 13.60379200
   3.40615000 10.93450000 10.05895600
   1.69870000  4.10291000 10.30146500
   8.38399000  4.61364000 13.76846200
  13.61570000  7.36270000 13.25111200
   8.62600000 11.05840000 10.51441700
  12.55990000 11.59120000 13.06159200
  10.27330000  7.56904000 11.74607200
   5.89411000 13.16380000 12.24273200
   7.70461000  3.16764000 10.29497600
   7.77129000  5.46186000 10.08066000
   2.60753000  1.38273000 12.35633200
   6.30289000  2.41440000 12.03632200
   2.63291000  8.12353000 12.46684200
  11.59350000 13.63890000 12.57735200
  10.11560000  3.13355000 13.52625200
   2.62289000  2.85463000 15.66464200
  10.79360000  0.94823200 13.86584200
   3.54187000  9.82369000 13.79984200
   9.31326000 12.60660000 12.11965200
   2.61666000 13.91750000 11.30824200
  13.12430000  5.77965000 10.00000000
  12.40080000 11.01300000 10.66953600
   3.25512000  5.82513000 12.76511200
   3.84578000  4.84064000 10.72253000
   5.37892000 10.96280000 13.11366200
   9.63605000  2.61752000 11.33974200
   4.31893000  2.30593000 11.01313200



--------------------------------------------------------------------------------------------------------


 k-point     1 :   0.0000 0.0000 0.0000  plane waves:  517337
 k-point     2 :   0.5000 0.0000 0.0000  plane waves:  517318
 k-point     3 :   0.0000 0.5000 0.0000  plane waves:  517318
 k-point     4 :   0.5000 0.5000 0.0000  plane waves:  517276
 k-point     5 :   0.0000 0.0000 0.5000  plane waves:  517114
 k-point     6 :   0.5000 0.0000 0.5000  plane waves:  517204
 k-point     7 :   0.0000 0.5000 0.5000  plane waves:  517204
 k-point     8 :   0.5000 0.5000 0.5000  plane waves:  517616

 maximum and minimum number of plane-waves per node :     32400    32256

 maximum number of plane-waves:    517616
 maximum index in each direction: 
   IXMAX=   41   IYMAX=   41   IZMAX=   72
   IXMIN=  -41   IYMIN=  -41   IZMIN=  -73


 parallel 3D FFT for wavefunctions:
    minimum data exchange during FFTs selected (reduces bandwidth)
 parallel 3D FFT for charge:
    minimum data exchange during FFTs selected (reduces bandwidth)


 total amount of memory used by VASP MPI-rank0   375628. kBytes
=======================================================================

   base                                    :      30000. kBytes
   nonl-proj                               :      77146. kBytes
   fftplans                                :     100027. kBytes
   grid                                    :      77177. kBytes
   one-center                              :         18. kBytes
   wavefun                                 :      91260. kBytes

     INWAV:  cpu time     26.9460: real time     26.9637
 Broyden mixing: mesh for mixing (old mesh)
   NGX = 83   NGY = 83   NGZ =145
  (NGX  =336   NGY  =336   NGZ  =588)
  gives a total of 998905 points

 initial charge density was supplied:
 number of electron     261.9999999 magnetization 
 keeping initial charge density in first step


--------------------------------------------------------------------------------------------------------


 Maximum index for augmentation-charges         9309 (set IRDMAX)


--------------------------------------------------------------------------------------------------------


 First call to EWALD:  gamma=   0.101
 Maximum number of real-space cells   3x   3x   2
 Maximum number of reciprocal cells   2x   2x   4

    FEWALD:  cpu time      0.0154: real time      0.0154


--------------------------------------- Ionic step        1  -------------------------------------------




--------------------------------------- Iteration      1(   1)  ---------------------------------------


    POTLOK:  cpu time      1.9353: real time      1.9363
    SETDIJ:  cpu time      1.4585: real time      1.4598
    EDDIAG:  cpu time     51.5413: real time     51.5705
     EDDAV:  cpu time    231.0945: real time    231.2290
       DOS:  cpu time      0.0062: real time      0.0062
    CHARGE:  cpu time     29.1380: real time     29.1652
    MIXING:  cpu time      0.0466: real time      0.0470
    --------------------------------------------
      LOOP:  cpu time    315.2204: real time    315.4140

 eigenvalue-minimisations  :  2848
 total energy-change (2. order) :-0.6536493E+03  (-0.7521700E+00)
 number of electron     261.9999999 magnetization 
 augmentation part      -13.3225905 magnetization 

 Broyden mixing:
  rms(total) = 0.88419E+00    rms(broyden)= 0.24662E+02
  rms(prec ) = 0.92197E+00
  weight for this iteration     100.00
  WARNING: grid for Broyden might be to small

 Free energy of the ion-electron system (eV)
  ---------------------------------------------------
  alpha Z        PSCENC =        26.76777389
  Ewald energy   TEWEN  =     30812.58016317
  -Hartree energ DENC   =    -36244.46148340
  -exchange      EXHF   =         0.00000000
  -V(xc)+E(xc)   XCENC  =      -220.88245463
  PAW double counting   =     20884.48646604   -20296.05646075
  entropy T*S    EENTRO =        -0.19684986
  eigenvalues    EBANDS =     -2021.52714676
  atomic energy  EATOM  =      6405.64072510
  Solvation  Ediel_sol  =         0.00000000
  ---------------------------------------------------
  free energy    TOTEN  =      -653.64926720 eV

  energy without entropy =     -653.45241735  energy(sigma->0) =     -653.55084227


--------------------------------------------------------------------------------------------------------




--------------------------------------- Iteration      1(   2)  ---------------------------------------


    POTLOK:  cpu time      1.9016: real time      1.9272
    SETDIJ:  cpu time      1.4564: real time      1.4571
    EDDIAG:  cpu time     51.4419: real time     51.4718
     EDDAV:  cpu time    229.5708: real time    229.7113
       DOS:  cpu time      0.0030: real time      0.0030
    CHARGE:  cpu time     29.0196: real time     29.0474
    MIXING:  cpu time      0.0393: real time      0.0393
    --------------------------------------------
      LOOP:  cpu time    313.4325: real time    313.6572

 eigenvalue-minimisations  :  2816
 total energy-change (2. order) : 0.4756424E+02  (-0.7767806E+00)
 number of electron     261.9999999 magnetization 
 augmentation part      -13.3297794 magnetization 

 Broyden mixing:
  rms(total) = 0.66163E+00    rms(broyden)= 0.14100E+02
  rms(prec ) = 0.70117E+00
  weight for this iteration     100.00
  WARNING: grid for Broyden might be to small

 eigenvalues of (default mixing * dielectric matrix)
  average eigenvalue GAMMA=   0.6363
  0.6363

 Free energy of the ion-electron system (eV)
  ---------------------------------------------------
  alpha Z        PSCENC =        26.76777389
  Ewald energy   TEWEN  =     30812.58016317
  -Hartree energ DENC   =    -36234.02078540
  -exchange      EXHF   =         0.00000000
  -V(xc)+E(xc)   XCENC  =      -215.06457145
  PAW double counting   =     24701.99464079   -24113.40120562
  entropy T*S    EENTRO =        -0.18734998
  eigenvalues    EBANDS =     -1990.39441559
  atomic energy  EATOM  =      6405.64072510
  Solvation  Ediel_sol  =         0.00000000
  ---------------------------------------------------
  free energy    TOTEN  =      -606.08502509 eV

  energy without entropy =     -605.89767511  energy(sigma->0) =     -605.99135010


--------------------------------------------------------------------------------------------------------




--------------------------------------- Iteration      1(   3)  ---------------------------------------


    POTLOK:  cpu time      1.9158: real time      1.9279
    SETDIJ:  cpu time      1.4543: real time      1.4552
    EDDIAG:  cpu time     51.4387: real time     51.4688
     EDDAV:  cpu time    232.8372: real time    232.9778
       DOS:  cpu time      0.0030: real time      0.0030
    CHARGE:  cpu time     29.0072: real time     29.0338
    MIXING:  cpu time      0.0366: real time      0.0366
    --------------------------------------------
      LOOP:  cpu time    316.6928: real time    316.9030

 eigenvalue-minimisations  :  2888
 total energy-change (2. order) :-0.1612329E+01  (-0.8273672E+00)
 number of electron     261.9999999 magnetization 
 augmentation part      -13.2392160 magnetization 

 Broyden mixing:
  rms(total) = 0.46588E+00    rms(broyden)= 0.64989E+01
  rms(prec ) = 0.50672E+00
  weight for this iteration     100.00
  WARNING: grid for Broyden might be to small

 eigenvalues of (default mixing * dielectric matrix)
  average eigenvalue GAMMA=   0.6831
  0.7372  0.6289

 Free energy of the ion-electron system (eV)
  ---------------------------------------------------
  alpha Z        PSCENC =        26.76777389
  Ewald energy   TEWEN  =     30812.58016317
  -Hartree energ DENC   =    -36235.44098844
  -exchange      EXHF   =         0.00000000
  -V(xc)+E(xc)   XCENC  =      -216.90453237
  PAW double counting   =     27392.20448879   -26803.72392897
  entropy T*S    EENTRO =        -0.17521553
  eigenvalues    EBANDS =     -1988.64583963
  atomic energy  EATOM  =      6405.64072510
  Solvation  Ediel_sol  =         0.00000000
  ---------------------------------------------------
  free energy    TOTEN  =      -607.69735398 eV

  energy without entropy =     -607.52213845  energy(sigma->0) =     -607.60974622


--------------------------------------------------------------------------------------------------------




--------------------------------------- Iteration      1(   4)  ---------------------------------------


    POTLOK:  cpu time      1.8981: real time      1.9249
    SETDIJ:  cpu time      1.4548: real time      1.4556
    EDDIAG:  cpu time     51.4482: real time     51.4792
     EDDAV:  cpu time    241.5348: real time    241.6828
       DOS:  cpu time      0.0036: real time      0.0036
    CHARGE:  cpu time     28.9788: real time     29.0088
    MIXING:  cpu time      0.0371: real time      0.0371
    --------------------------------------------
      LOOP:  cpu time    325.3553: real time    325.5921

 eigenvalue-minimisations  :  3080
 total energy-change (2. order) :-0.6628751E-01  (-0.9371979E-01)
 number of electron     261.9999999 magnetization 
 augmentation part      -13.2349464 magnetization 

 Broyden mixing:
  rms(total) = 0.27271E+00    rms(broyden)= 0.96884E+01
  rms(prec ) = 0.33046E+00
  weight for this iteration     100.00
  WARNING: grid for Broyden might be to small

 eigenvalues of (default mixing * dielectric matrix)
  average eigenvalue GAMMA=   0.7347
  1.0972  0.6288  0.4782

 Free energy of the ion-electron system (eV)
  ---------------------------------------------------
  alpha Z        PSCENC =        26.76777389
  Ewald energy   TEWEN  =     30812.58016317
  -Hartree energ DENC   =    -36234.79436196
  -exchange      EXHF   =         0.00000000
  -V(xc)+E(xc)   XCENC  =      -217.01839144
  PAW double counting   =     31633.37205441   -31044.96614317
  entropy T*S    EENTRO =        -0.18327361
  eigenvalues    EBANDS =     -1989.16218788
  atomic energy  EATOM  =      6405.64072510
  Solvation  Ediel_sol  =         0.00000000
  ---------------------------------------------------
  free energy    TOTEN  =      -607.76364150 eV

  energy without entropy =     -607.58036788  energy(sigma->0) =     -607.67200469


--------------------------------------------------------------------------------------------------------




--------------------------------------- Iteration      1(   5)  ---------------------------------------


    POTLOK:  cpu time      1.8937: real time      1.9210
    SETDIJ:  cpu time      1.4598: real time      1.4609
    EDDIAG:  cpu time     51.4547: real time     51.4821
     EDDAV:  cpu time    248.7417: real time    248.8883
       DOS:  cpu time      0.0030: real time      0.0030
    CHARGE:  cpu time     29.0055: real time     29.0329
    MIXING:  cpu time      0.0379: real time      0.0379
    --------------------------------------------
      LOOP:  cpu time    332.5962: real time    332.8262

 eigenvalue-minimisations  :  3240
 total energy-change (2. order) : 0.1449306E+00  (-0.3194692E-01)
 number of electron     261.9999999 magnetization 
 augmentation part      -13.2525182 magnetization 

 Broyden mixing:
  rms(total) = 0.92233E-01    rms(broyden)= 0.37715E+01
  rms(prec ) = 0.14742E+00
  weight for this iteration     100.00
  WARNING: grid for Broyden might be to small

 eigenvalues of (default mixing * dielectric matrix)
  average eigenvalue GAMMA=   0.9481
  2.0777  0.6808  0.6196  0.4141

 Free energy of the ion-electron system (eV)
  ---------------------------------------------------
  alpha Z        PSCENC =        26.76777389
  Ewald energy   TEWEN  =     30812.58016317
  -Hartree energ DENC   =    -36234.09394918
  -exchange      EXHF   =         0.00000000
  -V(xc)+E(xc)   XCENC  =      -217.46246156
  PAW double counting   =     32302.80674730   -31714.39916358
  entropy T*S    EENTRO =        -0.19119737
  eigenvalues    EBANDS =     -1989.26734866
  atomic energy  EATOM  =      6405.64072510
  Solvation  Ediel_sol  =         0.00000000
  ---------------------------------------------------
  free energy    TOTEN  =      -607.61871089 eV

  energy without entropy =     -607.42751352  energy(sigma->0) =     -607.52311220


--------------------------------------------------------------------------------------------------------




--------------------------------------- Iteration      1(   6)  ---------------------------------------


    POTLOK:  cpu time      1.9010: real time      1.9262
    SETDIJ:  cpu time      1.4667: real time      1.4674
    EDDIAG:  cpu time     51.4537: real time     51.4835
     EDDAV:  cpu time    242.7244: real time    242.8666
       DOS:  cpu time      0.0039: real time      0.0039
    CHARGE:  cpu time     29.0079: real time     29.0347
    MIXING:  cpu time      0.0395: real time      0.0396
    --------------------------------------------
      LOOP:  cpu time    326.5972: real time    326.8218

 eigenvalue-minimisations  :  3104
 total energy-change (2. order) :-0.1222734E-01  (-0.2008999E-01)
 number of electron     261.9999999 magnetization 
 augmentation part      -13.2574134 magnetization 

 Broyden mixing:
  rms(total) = 0.27558E-01    rms(broyden)= 0.50899E+00
  rms(prec ) = 0.32645E-01
  weight for this iteration     100.00
  WARNING: grid for Broyden might be to small

 eigenvalues of (default mixing * dielectric matrix)
  average eigenvalue GAMMA=   0.9601
  2.4748  0.7984  0.6272  0.4499  0.4499

 Free energy of the ion-electron system (eV)
  ---------------------------------------------------
  alpha Z        PSCENC =        26.76777389
  Ewald energy   TEWEN  =     30812.58016317
  -Hartree energ DENC   =    -36234.07715108
  -exchange      EXHF   =         0.00000000
  -V(xc)+E(xc)   XCENC  =      -217.50128086
  PAW double counting   =     32558.44044569   -31970.02857762
  entropy T*S    EENTRO =        -0.19147929
  eigenvalues    EBANDS =     -1989.26155722
  atomic energy  EATOM  =      6405.64072510
  Solvation  Ediel_sol  =         0.00000000
  ---------------------------------------------------
  free energy    TOTEN  =      -607.63093823 eV

  energy without entropy =     -607.43945894  energy(sigma->0) =     -607.53519858


--------------------------------------------------------------------------------------------------------




--------------------------------------- Iteration      1(   7)  ---------------------------------------


    POTLOK:  cpu time      1.9134: real time      1.9358
    SETDIJ:  cpu time      1.4545: real time      1.4552
    EDDIAG:  cpu time     51.4555: real time     51.4863
     EDDAV:  cpu time    236.2633: real time    236.4018
       DOS:  cpu time      0.0034: real time      0.0034
    CHARGE:  cpu time     29.0075: real time     29.0354
    MIXING:  cpu time      0.0382: real time      0.0382
    --------------------------------------------
      LOOP:  cpu time    320.1358: real time    320.3561

 eigenvalue-minimisations  :  2960
 total energy-change (2. order) :-0.3039467E-02  (-0.4911182E-02)
 number of electron     261.9999999 magnetization 
 augmentation part      -13.2600181 magnetization 

 Broyden mixing:
  rms(total) = 0.37140E-01    rms(broyden)= 0.25157E+00
  rms(prec ) = 0.42059E-01
  weight for this iteration     100.00
  WARNING: grid for Broyden might be to small

 eigenvalues of (default mixing * dielectric matrix)
  average eigenvalue GAMMA=   0.9758
  2.5648  0.7903  0.7903  0.6491  0.5904  0.4697

 Free energy of the ion-electron system (eV)
  ---------------------------------------------------
  alpha Z        PSCENC =        26.76777389
  Ewald energy   TEWEN  =     30812.58016317
  -Hartree energ DENC   =    -36233.97032742
  -exchange      EXHF   =         0.00000000
  -V(xc)+E(xc)   XCENC  =      -217.59135350
  PAW double counting   =     32524.62464927   -31936.20823072
  entropy T*S    EENTRO =        -0.19195440
  eigenvalues    EBANDS =     -1989.28542308
  atomic energy  EATOM  =      6405.64072510
  Solvation  Ediel_sol  =         0.00000000
  ---------------------------------------------------
  free energy    TOTEN  =      -607.63397770 eV

  energy without entropy =     -607.44202330  energy(sigma->0) =     -607.53800050


--------------------------------------------------------------------------------------------------------




--------------------------------------- Iteration      1(   8)  ---------------------------------------


    POTLOK:  cpu time      1.9030: real time      1.9276
    SETDIJ:  cpu time      1.4496: real time      1.4508
    EDDIAG:  cpu time     51.4842: real time     51.5138
     EDDAV:  cpu time    237.4030: real time    237.5537
       DOS:  cpu time      0.0028: real time      0.0028
    CHARGE:  cpu time     29.0297: real time     29.0578
    MIXING:  cpu time      0.0393: real time      0.0393
    --------------------------------------------
      LOOP:  cpu time    321.3117: real time    321.5459

 eigenvalue-minimisations  :  2984
 total energy-change (2. order) :-0.1937638E-02  (-0.7572858E-03)
 number of electron     261.9999999 magnetization 
 augmentation part      -13.2560930 magnetization 

 Broyden mixing:
  rms(total) = 0.15848E-01    rms(broyden)= 0.29822E+00
  rms(prec ) = 0.18759E-01
  weight for this iteration     100.00
  WARNING: grid for Broyden might be to small

 eigenvalues of (default mixing * dielectric matrix)
  average eigenvalue GAMMA=   0.9473
  2.5960  1.1216  0.6967  0.6967  0.6201  0.4500  0.4500

 Free energy of the ion-electron system (eV)
  ---------------------------------------------------
  alpha Z        PSCENC =        26.76777389
  Ewald energy   TEWEN  =     30812.58016317
  -Hartree energ DENC   =    -36233.82510224
  -exchange      EXHF   =         0.00000000
  -V(xc)+E(xc)   XCENC  =      -217.57004569
  PAW double counting   =     32530.11762540   -31941.69921518
  entropy T*S    EENTRO =        -0.19171382
  eigenvalues    EBANDS =     -1989.45612595
  atomic energy  EATOM  =      6405.64072510
  Solvation  Ediel_sol  =         0.00000000
  ---------------------------------------------------
  free energy    TOTEN  =      -607.63591534 eV

  energy without entropy =     -607.44420151  energy(sigma->0) =     -607.54005842


--------------------------------------------------------------------------------------------------------




--------------------------------------- Iteration      1(   9)  ---------------------------------------


    POTLOK:  cpu time      1.8984: real time      1.9261
    SETDIJ:  cpu time      1.4509: real time      1.4517
    EDDIAG:  cpu time     51.5055: real time     51.5347
     EDDAV:  cpu time    237.7692: real time    237.9003
       DOS:  cpu time      0.0029: real time      0.0029
    CHARGE:  cpu time     29.0051: real time     29.0337
    MIXING:  cpu time      0.0397: real time      0.0397
    --------------------------------------------
      LOOP:  cpu time    321.6719: real time    321.8892

 eigenvalue-minimisations  :  2992
 total energy-change (2. order) : 0.5376176E-03  (-0.4310862E-03)
 number of electron     261.9999999 magnetization 
 augmentation part      -13.2565782 magnetization 

 Broyden mixing:
  rms(total) = 0.69927E-02    rms(broyden)= 0.71147E-01
  rms(prec ) = 0.78760E-02
  weight for this iteration     100.00
  WARNING: grid for Broyden might be to small

 eigenvalues of (default mixing * dielectric matrix)
  average eigenvalue GAMMA=   0.9071
  2.5969  1.1529  0.7464  0.6629  0.6629  0.6080  0.4291  0.3981

 Free energy of the ion-electron system (eV)
  ---------------------------------------------------
  alpha Z        PSCENC =        26.76777389
  Ewald energy   TEWEN  =     30812.58016317
  -Hartree energ DENC   =    -36233.27533337
  -exchange      EXHF   =         0.00000000
  -V(xc)+E(xc)   XCENC  =      -217.49363356
  PAW double counting   =     32490.07067585   -31901.64475445
  entropy T*S    EENTRO =        -0.19214997
  eigenvalues    EBANDS =     -1990.08884438
  atomic energy  EATOM  =      6405.64072510
  Solvation  Ediel_sol  =         0.00000000
  ---------------------------------------------------
  free energy    TOTEN  =      -607.63537772 eV

  energy without entropy =     -607.44322775  energy(sigma->0) =     -607.53930273


--------------------------------------------------------------------------------------------------------




--------------------------------------- Iteration      1(  10)  ---------------------------------------


    POTLOK:  cpu time      1.9121: real time      1.9374
    SETDIJ:  cpu time      1.4590: real time      1.4597
    EDDIAG:  cpu time     51.4623: real time     51.4902
     EDDAV:  cpu time    244.8086: real time    244.9558
       DOS:  cpu time      0.0031: real time      0.0031
    CHARGE:  cpu time     28.9485: real time     28.9757
    MIXING:  cpu time      0.0396: real time      0.0397
    --------------------------------------------
      LOOP:  cpu time    328.6332: real time    328.8614

 eigenvalue-minimisations  :  3152
 total energy-change (2. order) :-0.3983820E-03  (-0.1186607E-03)
 number of electron     261.9999999 magnetization 
 augmentation part      -13.2563158 magnetization 

 Broyden mixing:
  rms(total) = 0.36155E-02    rms(broyden)= 0.30582E-01
  rms(prec ) = 0.41529E-02
  weight for this iteration     100.00
  WARNING: grid for Broyden might be to small

 eigenvalues of (default mixing * dielectric matrix)
  average eigenvalue GAMMA=   0.9620
  2.5691  1.6056  0.9972  0.7719  0.4281  0.4281  0.6159  0.6159  0.6265

 Free energy of the ion-electron system (eV)
  ---------------------------------------------------
  alpha Z        PSCENC =        26.76777389
  Ewald energy   TEWEN  =     30812.58016317
  -Hartree energ DENC   =    -36232.91416259
  -exchange      EXHF   =         0.00000000
  -V(xc)+E(xc)   XCENC  =      -217.45778246
  PAW double counting   =     32500.52620155   -31912.09701485
  entropy T*S    EENTRO =        -0.19206374
  eigenvalues    EBANDS =     -1990.48961616
  atomic energy  EATOM  =      6405.64072510
  Solvation  Ediel_sol  =         0.00000000
  ---------------------------------------------------
  free energy    TOTEN  =      -607.63577610 eV

  energy without entropy =     -607.44371236  energy(sigma->0) =     -607.53974423


--------------------------------------------------------------------------------------------------------




--------------------------------------- Iteration      1(  11)  ---------------------------------------


    POTLOK:  cpu time      1.9153: real time      1.9249
    SETDIJ:  cpu time      1.4633: real time      1.4642
    EDDIAG:  cpu time     51.4291: real time     51.4585
     EDDAV:  cpu time    239.7023: real time    239.8472
       DOS:  cpu time      0.0144: real time      0.0147
    CHARGE:  cpu time     28.9580: real time     28.9853
    MIXING:  cpu time      0.0580: real time      0.0585
    --------------------------------------------
      LOOP:  cpu time    323.5402: real time    323.7533

 eigenvalue-minimisations  :  3040
 total energy-change (2. order) :-0.1262491E-03  (-0.3942911E-04)
 number of electron     261.9999999 magnetization 
 augmentation part      -13.2561722 magnetization 

 Broyden mixing:
  rms(total) = 0.17563E-02    rms(broyden)= 0.20342E-01
  rms(prec ) = 0.23466E-02
  weight for this iteration     100.00
  WARNING: grid for Broyden might be to small

 eigenvalues of (default mixing * dielectric matrix)
  average eigenvalue GAMMA=   1.0402
  2.6004  2.6004  1.0228  0.6814  0.6814  0.4260  0.4260  0.6977  0.6331  0.6331

 Free energy of the ion-electron system (eV)
  ---------------------------------------------------
  alpha Z        PSCENC =        26.76777389
  Ewald energy   TEWEN  =     30812.58016317
  -Hartree energ DENC   =    -36232.63102202
  -exchange      EXHF   =         0.00000000
  -V(xc)+E(xc)   XCENC  =      -217.46321389
  PAW double counting   =     32501.15071153   -31912.72012493
  entropy T*S    EENTRO =        -0.19193136
  eigenvalues    EBANDS =     -1990.76898384
  atomic energy  EATOM  =      6405.64072510
  Solvation  Ediel_sol  =         0.00000000
  ---------------------------------------------------
  free energy    TOTEN  =      -607.63590235 eV

  energy without entropy =     -607.44397099  energy(sigma->0) =     -607.53993667


--------------------------------------------------------------------------------------------------------




--------------------------------------- Iteration      1(  12)  ---------------------------------------


    POTLOK:  cpu time      1.9099: real time      1.9314
    SETDIJ:  cpu time      1.4627: real time      1.4640
    EDDIAG:  cpu time     51.4477: real time     51.4739
     EDDAV:  cpu time    235.4059: real time    235.5446
       DOS:  cpu time      0.0032: real time      0.0032
    CHARGE:  cpu time     28.9375: real time     28.9808
    MIXING:  cpu time      0.0417: real time      0.0417
    --------------------------------------------
      LOOP:  cpu time    319.2086: real time    319.4395

 eigenvalue-minimisations  :  2944
 total energy-change (2. order) :-0.8144060E-04  (-0.1760696E-04)
 number of electron     261.9999999 magnetization 
 augmentation part      -13.2565554 magnetization 

 Broyden mixing:
  rms(total) = 0.20702E-02    rms(broyden)= 0.13307E-01
  rms(prec ) = 0.24579E-02
  weight for this iteration     100.00
  WARNING: grid for Broyden might be to small

 eigenvalues of (default mixing * dielectric matrix)
  average eigenvalue GAMMA=   1.0751
  2.9785  2.6672  1.1011  0.8599  0.8599  0.6687  0.6687  0.4276  0.4276  0.6231
  0.5437

 Free energy of the ion-electron system (eV)
  ---------------------------------------------------
  alpha Z        PSCENC =        26.76777389
  Ewald energy   TEWEN  =     30812.58016317
  -Hartree energ DENC   =    -36232.39912980
  -exchange      EXHF   =         0.00000000
  -V(xc)+E(xc)   XCENC  =      -217.47219961
  PAW double counting   =     32496.62407323   -31908.19278927
  entropy T*S    EENTRO =        -0.19200972
  eigenvalues    EBANDS =     -1990.99259076
  atomic energy  EATOM  =      6405.64072510
  Solvation  Ediel_sol  =         0.00000000
  ---------------------------------------------------
  free energy    TOTEN  =      -607.63598379 eV

  energy without entropy =     -607.44397407  energy(sigma->0) =     -607.53997893


--------------------------------------------------------------------------------------------------------




--------------------------------------- Iteration      1(  13)  ---------------------------------------


    POTLOK:  cpu time      1.8975: real time      1.9238
    SETDIJ:  cpu time      1.4531: real time      1.4536
    EDDIAG:  cpu time     51.4152: real time     51.4433
     EDDAV:  cpu time    238.3537: real time    238.4969
       DOS:  cpu time      0.0094: real time      0.0214
    CHARGE:  cpu time     28.9872: real time     29.0164
    MIXING:  cpu time      0.0586: real time      0.0589
    --------------------------------------------
      LOOP:  cpu time    322.1747: real time    322.4144

 eigenvalue-minimisations  :  3008
 total energy-change (2. order) :-0.1252823E-03  (-0.2350875E-04)
 number of electron     261.9999999 magnetization 
 augmentation part      -13.2563739 magnetization 

 Broyden mixing:
  rms(total) = 0.10033E-02    rms(broyden)= 0.84576E-02
  rms(prec ) = 0.13601E-02
  weight for this iteration     100.00
  WARNING: grid for Broyden might be to small

 eigenvalues of (default mixing * dielectric matrix)
  average eigenvalue GAMMA=   1.1756
  3.7735  2.6448  1.7967  1.0441  0.7206  0.7206  0.7120  0.7120  0.6215  0.4281
  0.4281  0.5047

 Free energy of the ion-electron system (eV)
  ---------------------------------------------------
  alpha Z        PSCENC =        26.76777389
  Ewald energy   TEWEN  =     30812.58016317
  -Hartree energ DENC   =    -36232.10321925
  -exchange      EXHF   =         0.00000000
  -V(xc)+E(xc)   XCENC  =      -217.47515290
  PAW double counting   =     32495.49017176   -31907.05845990
  entropy T*S    EENTRO =        -0.19192426
  eigenvalues    EBANDS =     -1991.28618668
  atomic energy  EATOM  =      6405.64072510
  Solvation  Ediel_sol  =         0.00000000
  ---------------------------------------------------
  free energy    TOTEN  =      -607.63610907 eV

  energy without entropy =     -607.44418482  energy(sigma->0) =     -607.54014694


--------------------------------------------------------------------------------------------------------




--------------------------------------- Iteration      1(  14)  ---------------------------------------


    POTLOK:  cpu time      1.9265: real time      1.9290
    SETDIJ:  cpu time      1.4702: real time      1.4721
    EDDIAG:  cpu time     51.4118: real time     51.4413
     EDDAV:  cpu time    235.2673: real time    235.4090
       DOS:  cpu time      0.0027: real time      0.0027
    CHARGE:  cpu time     28.9939: real time     29.0219
    MIXING:  cpu time      0.0430: real time      0.0430
    --------------------------------------------
      LOOP:  cpu time    319.1154: real time    319.3188

 eigenvalue-minimisations  :  2944
 total energy-change (2. order) :-0.1101782E-03  (-0.2010726E-04)
 number of electron     261.9999999 magnetization 
 augmentation part      -13.2565561 magnetization 

 Broyden mixing:
  rms(total) = 0.38297E-03    rms(broyden)= 0.63491E-02
  rms(prec ) = 0.63179E-03
  weight for this iteration     100.00
  WARNING: grid for Broyden might be to small

 eigenvalues of (default mixing * dielectric matrix)
  average eigenvalue GAMMA=   1.3400
  5.6606  2.5806  2.4617  1.0535  0.8604  0.7109  0.7109  0.4283  0.4283  0.7087
  0.7087  0.6084  0.4984

 Free energy of the ion-electron system (eV)
  ---------------------------------------------------
  alpha Z        PSCENC =        26.76777389
  Ewald energy   TEWEN  =     30812.58016317
  -Hartree energ DENC   =    -36231.87738988
  -exchange      EXHF   =         0.00000000
  -V(xc)+E(xc)   XCENC  =      -217.48216118
  PAW double counting   =     32495.30124767   -31906.86958036
  entropy T*S    EENTRO =        -0.19194742
  eigenvalues    EBANDS =     -1991.50505023
  atomic energy  EATOM  =      6405.64072510
  Solvation  Ediel_sol  =         0.00000000
  ---------------------------------------------------
  free energy    TOTEN  =      -607.63621925 eV

  energy without entropy =     -607.44427183  energy(sigma->0) =     -607.54024554


--------------------------------------------------------------------------------------------------------




--------------------------------------- Iteration      1(  15)  ---------------------------------------


    POTLOK:  cpu time      1.9092: real time      1.9222
    SETDIJ:  cpu time      1.4589: real time      1.4599
    EDDIAG:  cpu time     51.4224: real time     51.4482
     EDDAV:  cpu time    235.7817: real time    235.9176
       DOS:  cpu time      0.0032: real time      0.0032
    CHARGE:  cpu time     28.9891: real time     29.0176
    MIXING:  cpu time      0.0441: real time      0.0441
    --------------------------------------------
      LOOP:  cpu time    319.6087: real time    319.8128

 eigenvalue-minimisations  :  2952
 total energy-change (2. order) :-0.1430786E-03  (-0.2080441E-04)
 number of electron     261.9999999 magnetization 
 augmentation part      -13.2565821 magnetization 

 Broyden mixing:
  rms(total) = 0.34392E-03    rms(broyden)= 0.47044E-02
  rms(prec ) = 0.52059E-03
  weight for this iteration     100.00
  WARNING: grid for Broyden might be to small

 eigenvalues of (default mixing * dielectric matrix)
  average eigenvalue GAMMA=   1.4519
  7.3220  2.6140  2.6140  1.2418  1.0354  0.8322  0.7231  0.7231  0.4281  0.4281
  0.6320  0.6320  0.6068  0.4938

 Free energy of the ion-electron system (eV)
  ---------------------------------------------------
  alpha Z        PSCENC =        26.76777389
  Ewald energy   TEWEN  =     30812.58016317
  -Hartree energ DENC   =    -36231.68098094
  -exchange      EXHF   =         0.00000000
  -V(xc)+E(xc)   XCENC  =      -217.48507507
  PAW double counting   =     32495.55133683   -31907.11993937
  entropy T*S    EENTRO =        -0.19194628
  eigenvalues    EBANDS =     -1991.69841965
  atomic energy  EATOM  =      6405.64072510
  Solvation  Ediel_sol  =         0.00000000
  ---------------------------------------------------
  free energy    TOTEN  =      -607.63636233 eV

  energy without entropy =     -607.44441605  energy(sigma->0) =     -607.54038919


--------------------------------------------------------------------------------------------------------




--------------------------------------- Iteration      1(  16)  ---------------------------------------


    POTLOK:  cpu time      1.9203: real time      1.9220
    SETDIJ:  cpu time      1.4566: real time      1.4577
    EDDIAG:  cpu time     51.4200: real time     51.4496
     EDDAV:  cpu time    236.8712: real time    237.0143
       DOS:  cpu time      0.0028: real time      0.0028
    CHARGE:  cpu time     28.9735: real time     28.9988
    MIXING:  cpu time      0.0461: real time      0.0461
    --------------------------------------------
      LOOP:  cpu time    320.6905: real time    320.8913

 eigenvalue-minimisations  :  2976
 total energy-change (2. order) :-0.1297592E-03  (-0.2429183E-04)
 number of electron     261.9999999 magnetization 
 augmentation part      -13.2566883 magnetization 

 Broyden mixing:
  rms(total) = 0.29721E-03    rms(broyden)= 0.31239E-02
  rms(prec ) = 0.40405E-03
  weight for this iteration     100.00
  WARNING: grid for Broyden might be to small

 eigenvalues of (default mixing * dielectric matrix)
  average eigenvalue GAMMA=   1.5738
  9.0707  2.7374  2.7374  1.6332  1.1118  0.8435  0.8435  0.7223  0.7223  0.4280
  0.4280  0.4932  0.6104  0.6104  0.6158

 Free energy of the ion-electron system (eV)
  ---------------------------------------------------
  alpha Z        PSCENC =        26.76777389
  Ewald energy   TEWEN  =     30812.58016317
  -Hartree energ DENC   =    -36231.48993010
  -exchange      EXHF   =         0.00000000
  -V(xc)+E(xc)   XCENC  =      -217.48952101
  PAW double counting   =     32495.45761321   -31907.02651872
  entropy T*S    EENTRO =        -0.19196274
  eigenvalues    EBANDS =     -1991.88483488
[...]
   -.747E+01 0.264E+01 -.158E+03   0.718E+01 -.517E+00 0.157E+03   0.107E+01 -.217E+01 0.657E+00   0.282E-04 0.238E-04 0.298E-04
   0.113E+02 -.406E+02 -.206E+03   -.939E+01 0.379E+02 0.203E+03   -.317E+01 0.260E+01 0.326E+01   0.402E-04 0.679E-05 0.718E-04
   -.203E+02 0.172E+02 -.231E+03   0.186E+02 -.158E+02 0.231E+03   0.195E+00 -.165E+01 0.626E+00   0.302E-04 0.314E-04 0.356E-04
   0.596E+01 0.845E+01 0.257E+03   -.652E+01 -.765E+01 -.257E+03   0.148E+00 -.866E+00 0.830E+00   0.138E-04 0.477E-05 -.655E-06
   0.220E+02 -.136E+02 -.139E+03   -.231E+02 0.121E+02 0.136E+03   0.649E+00 0.271E+01 0.290E+01   0.279E-04 -.645E-05 0.643E-04
   0.638E-02 0.455E+01 0.572E+02   -.774E+00 -.442E+01 -.563E+02   0.868E+00 0.366E+00 -.168E+01   0.104E-04 0.103E-04 0.430E-04
   -.382E+01 -.215E+02 -.136E+03   0.118E+01 0.215E+02 0.137E+03   0.415E+01 -.176E+00 -.182E+01   -.929E-05 -.896E-05 0.107E-03
   0.928E+01 -.332E+01 -.373E+02   -.782E+01 0.279E+01 0.354E+02   -.224E+01 -.226E+00 0.197E+01   0.150E-04 0.230E-05 0.235E-04
   0.160E+01 -.124E+02 -.268E+03   -.241E+01 0.116E+02 0.266E+03   0.133E+01 0.534E+00 0.164E+01   -.199E-04 -.218E-05 0.722E-05
   -.983E+01 -.183E+02 0.977E+02   0.866E+01 0.179E+02 -.998E+02   0.162E+01 0.105E+01 0.282E+01   0.152E-04 -.378E-05 0.430E-04
   -.348E+01 0.647E+01 -.218E+03   0.206E+01 -.523E+01 0.221E+03   0.155E+01 -.137E+01 -.173E+01   -.338E-04 -.769E-04 0.891E-04
   -.214E+02 0.795E+01 0.387E+02   0.224E+02 -.905E+01 -.387E+02   0.503E+00 0.203E+01 0.676E+00   -.325E-04 -.268E-04 0.550E-04
   -.579E+01 0.932E+01 -.285E+03   0.619E+01 -.106E+02 0.287E+03   -.127E+00 0.131E+01 -.699E+00   0.642E-04 -.331E-05 0.848E-04
   -.302E+01 -.537E+01 -.240E+03   0.361E+01 0.370E+01 0.242E+03   -.125E+00 0.201E+01 -.110E+01   0.185E-04 0.155E-04 0.223E-04
   0.160E+02 -.172E+02 -.243E+01   -.148E+02 0.173E+02 0.306E+01   -.129E+01 -.184E+00 -.497E+00   0.162E-04 0.169E-04 0.439E-04
   -.535E+01 -.153E+02 -.248E+03   0.610E+01 0.164E+02 0.248E+03   -.500E+00 -.135E+01 -.259E-01   -.230E-04 -.395E-05 0.269E-04
   0.167E+02 0.315E+01 -.215E+02   -.177E+02 -.122E+01 0.223E+02   0.729E+00 -.183E+01 -.786E+00   -.883E-05 -.636E-06 0.361E-04
   0.190E+02 0.136E+02 0.735E+02   -.186E+02 -.120E+02 -.732E+02   -.991E+00 -.163E+01 -.423E+00   -.133E-05 -.659E-04 0.533E-04
   -.645E+01 0.315E+02 0.239E+03   0.564E+01 -.290E+02 -.238E+03   0.423E+00 -.259E+01 -.104E+01   0.271E-04 0.278E-04 -.825E-05
   -.346E+01 -.188E+02 0.857E+02   0.267E+01 0.169E+02 -.852E+02   0.910E+00 0.357E+01 -.226E+01   -.654E-04 -.240E-04 0.792E-04
   -.107E+01 0.195E+02 -.263E+03   0.669E+00 -.207E+02 0.268E+03   0.114E+01 0.112E+01 -.438E+01   0.350E-04 0.175E-04 0.276E-04
   0.191E+02 -.148E+02 0.184E+03   -.194E+02 0.144E+02 -.183E+03   0.128E+01 -.226E+00 -.187E+01   0.415E-04 0.544E-04 0.411E-06
   -.110E+02 -.503E+01 -.838E+02   0.116E+02 0.725E+01 0.820E+02   0.565E+00 -.168E+01 0.135E+01   0.109E-04 -.268E-04 0.132E-03
   0.409E+00 -.195E+02 0.259E+03   0.288E+01 0.208E+02 -.260E+03   -.377E+01 -.303E+00 0.116E+01   0.207E-04 0.336E-04 0.440E-05
   0.270E+02 -.458E+01 0.259E+03   -.249E+02 0.423E+01 -.259E+03   -.233E+01 0.130E+01 -.578E+00   0.298E-04 -.384E-04 0.121E-04
   -.349E+01 0.134E+02 -.123E+03   0.261E+01 -.108E+02 0.123E+03   0.674E+00 -.283E+01 0.444E+00   0.207E-04 -.180E-04 0.597E-04
   0.583E+01 -.141E+02 -.610E+02   -.342E+01 0.978E+01 0.620E+02   -.274E+01 0.448E+01 0.428E+00   -.366E-04 -.105E-04 0.159E-03
   -.149E+02 0.473E+02 0.232E+03   0.156E+02 -.488E+02 -.234E+03   -.895E+00 0.947E+00 0.161E+01   -.117E-04 0.129E-04 0.277E-04
   0.238E+01 0.732E+01 -.204E+02   -.291E+01 -.911E+01 0.197E+02   0.104E+01 0.107E+01 0.349E+00   -.471E-04 0.206E-04 0.546E-04
   -.365E+01 -.345E+02 0.153E+03   0.355E+01 0.346E+02 -.151E+03   0.296E+00 0.180E+00 -.192E+01   -.249E-04 -.236E-04 0.446E-04
   0.292E+02 0.702E+01 0.543E+02   -.265E+02 -.748E+01 -.577E+02   -.385E+01 -.250E+00 0.413E+01   -.445E-05 0.347E-04 0.321E-04
   0.147E+02 0.129E+02 0.271E+03   -.149E+02 -.118E+02 -.269E+03   -.273E+00 -.555E+00 -.196E+01   0.557E-06 -.274E-04 0.128E-04
   0.153E+02 -.356E+02 0.279E+03   -.140E+02 0.371E+02 -.279E+03   -.227E+01 -.199E+01 -.255E+01   0.574E-05 -.120E-04 -.214E-04
   0.178E+02 0.143E+02 0.639E+02   -.164E+02 -.134E+02 -.633E+02   -.874E+00 -.121E+01 -.168E+01   0.433E-04 -.490E-04 0.432E-05
   0.110E+02 -.148E+01 0.866E+02   -.131E+02 0.638E+00 -.868E+02   0.212E+01 0.993E+00 -.555E+00   -.238E-05 -.333E-04 0.299E-04
   0.639E+01 0.208E+02 0.259E+02   -.692E+01 -.198E+02 -.266E+02   0.398E+00 -.151E+01 -.153E+00   0.153E-04 0.285E-04 0.406E-04
   -.257E+02 0.138E+02 0.242E+02   0.269E+02 -.137E+02 -.258E+02   -.139E+01 0.113E+00 0.144E+01   -.275E-04 0.247E-04 0.128E-04
   -.101E+01 -.690E+01 -.123E+03   0.386E+01 0.821E+01 0.121E+03   -.203E+01 -.122E+01 0.235E+01   -.933E-05 0.532E-06 0.537E-04
   0.460E-01 -.303E+02 -.276E+03   -.819E+00 0.303E+02 0.280E+03   0.734E+00 0.362E+00 -.294E+01   0.230E-04 0.207E-05 0.103E-03
   -.423E+02 -.125E+01 -.154E+03   0.409E+02 0.373E+00 0.156E+03   0.683E+00 0.466E-01 -.140E+01   -.283E-04 0.818E-05 0.242E-04
   0.175E+02 0.542E+01 -.112E+03   -.154E+02 -.595E+01 0.113E+03   -.252E+01 0.718E+00 0.493E-01   0.392E-04 0.224E-04 0.377E-04
   -.171E+02 0.371E+02 0.842E+02   0.161E+02 -.374E+02 -.831E+02   0.119E+01 0.366E+00 -.711E+00   -.163E-04 0.212E-04 0.485E-04
   0.944E+01 -.662E+00 0.175E+03   -.127E+02 0.133E+01 -.174E+03   0.341E+01 -.137E+01 -.493E+00   0.417E-04 0.286E-04 -.247E-04
   -.947E+01 -.320E+00 0.265E+03   0.888E+01 -.368E-01 -.268E+03   0.137E+01 0.604E+00 0.312E+01   -.214E-04 -.143E-04 -.688E-05
   0.187E+02 -.798E+01 0.223E+03   -.192E+02 0.892E+01 -.224E+03   0.623E+00 -.115E+01 0.114E+01   -.128E-04 0.350E-04 0.138E-04
   0.164E+02 -.913E+01 -.985E+01   -.141E+02 0.859E+01 0.963E+01   -.320E+01 0.482E+00 0.953E+00   0.185E-04 -.643E-05 0.674E-04
   -.228E+02 -.229E+02 0.219E+03   0.233E+02 0.239E+02 -.220E+03   0.577E+00 -.146E+01 0.184E+00   0.487E-04 -.432E-04 0.125E-04
   -.727E+00 -.123E+02 -.273E+02   0.182E+01 0.967E+01 0.284E+02   -.328E+00 0.349E+01 -.715E+00   0.197E-04 0.183E-04 0.563E-04
   -.453E+01 -.994E+01 0.178E+03   0.377E+01 0.104E+02 -.176E+03   0.737E+00 -.121E+01 -.255E+01   -.233E-04 -.798E-05 0.299E-04
   0.975E+01 0.140E+02 0.210E+03   -.867E+01 -.152E+02 -.209E+03   -.228E+01 0.216E+01 -.136E+01   0.213E-04 -.716E-04 0.802E-05
 -----------------------------------------------------------------------------------------------
   -.562E+01 0.168E+01 0.108E+02   -.533E-13 -.231E-13 -.568E-12   0.562E+01 -.168E+01 -.108E+02   0.926E-04 -.292E-04 0.276E-02


 POSITION                                       TOTAL-FORCE (eV/Angst)
 -----------------------------------------------------------------------------------
     14.48010      9.55911     14.84489        -0.136432      1.032733     -0.830162
     14.52980      6.25511     13.36624         0.656567     -0.577041      0.241948
      0.66783      1.56055     14.68059        -0.462887     -0.703179      0.268734
      4.39484     13.56150     11.62043        -0.677416      0.295270     -0.026681
     11.68460      4.97398     12.63151        -0.751555     -1.020113      0.622896
     13.10890      2.03411     13.57769        -0.071813      0.315208      0.251053
     14.36850     12.35170     14.91385        -0.765577      0.379435      0.765045
      9.90656     10.17880     12.79756        -0.714067      0.548036     -0.117349
     13.16290      7.76419     14.72988        -0.209263     -0.278713     -0.915794
      1.01060      7.66915     14.86400         0.227737     -0.038390     -0.003410
      0.67603      5.00991     14.56418        -0.854139      0.525357      0.689108
     12.00950     12.79140     15.75340        -0.066030      0.039679      0.248898
      0.95241      7.58339     15.59542         0.128340     -0.090292      0.317642
      0.49285     14.22030     12.90633         0.320808     -0.014911      0.125297
     11.40220      3.91337     13.46609        -0.650113     -0.392021      0.195493
     11.06190      6.17584     14.38494         0.302253     -0.562443      0.471581
     13.53930      4.57156     12.55294        -0.333810     -1.778210      0.165992
     12.51880      4.11214     15.21014         0.506653     -0.077143     -0.323337
      0.44886      0.82654     14.87431         0.176134      1.245175     -0.180241
     11.59040      7.51669     15.70044         0.063916      0.845879     -0.032331
     11.45020      5.76778     14.91000        -0.447395      0.269198     -0.517989
      1.04296     14.12050     15.63499         1.236201     -0.657278      0.023572
     12.79680      3.99215     14.50654        -0.026147      0.241927      1.160571
     13.18550     14.46570     14.52392         0.078660     -0.250721      0.466221
      1.20065      7.19753     10.64828        -0.477222     -0.163752      0.532003
     14.37800     14.26350     12.67673        -0.408691      0.067482     -0.151165
      8.50405     12.64690     14.37754         0.618361      0.151846     -0.433876
      9.12267      0.36732     12.03086         0.091697      0.099786      0.583371
      5.93241      9.20841     11.83002         0.531422     -0.128942     -1.023604
      7.02127     12.78700     10.42208         1.420723     -0.699139     -1.328985
     11.85550      2.49548     10.83205        -0.079532      0.653008     -1.805383
      6.17149      3.89973     13.77404         0.527692     -1.054564      1.030304
     12.09470      0.26362     10.68633        -0.303091     -0.598729      0.011822
      2.01370     11.49030     14.62220         0.936547      0.164045     -0.094351
      6.60448     11.64590     14.99648        -0.689005     -0.355399      0.221447
      3.37357      1.06277     14.45206         0.811327     -0.185607      0.180223
      8.31652      8.17055     14.62587        -1.340442     -0.157019      0.288737
      2.58143     13.64970     15.28665        -1.606063     -0.368806      0.160226
     13.84810      9.14933     10.19315        -0.431086     -0.005920      0.496499
      5.27324      5.91850     13.82765        -0.346975      1.276515      0.200195
      0.43846      8.85656     12.27303         0.144268      0.508894     -0.890223
      1.74767      4.27168     13.99704         1.662016     -0.234288     -0.732686
      0.31537     11.08330     13.16876        -0.864924     -0.797119      0.141813
     13.36990     13.38360     15.57162         0.498777     -0.282889     -1.103050
      8.51592      6.08844     11.99950         0.487987      0.763533      0.872096
     11.53970     10.31390     14.79198         0.187375     -0.264066      0.440262
     13.31250      2.94320     12.40888         1.530489      1.043587      0.766235
      8.55535      6.08648     15.51128         0.232723      0.209730      1.083386
      5.64512      0.78652     14.96995         0.428273      0.469730      0.618999
      6.85204      7.44150     12.98165        -0.229155     -0.109661      0.112926
      8.63175      0.41598     14.72085         0.203526     -0.502109     -0.049151
      6.92198      0.46866     13.05780        -0.300277     -0.016488     -0.012767
      1.02141      2.99410     12.18825        -0.586509     -0.182329     -0.150501
      3.99880      8.78266     10.60711        -0.338770     -0.024397      0.234473
     12.08380      6.19034     12.08842         0.150201      1.843007     -1.851121
      4.80685      8.88157     15.57034         0.733265      0.087446     -0.470886
      1.32787     11.95900     11.17350         1.333469     -0.569345     -0.805091
     10.12280      8.93056     13.60379         1.133539      0.532608     -0.473493
      3.40615     10.93450     10.05896        -0.776013      0.858477      0.611274
      1.69870      4.10291     10.30146        -0.197771      0.997868     -0.234362
      8.38399      4.61364     13.76846        -0.148265     -0.315911      0.534367
     13.61570      7.36270     13.25111        -0.416462      0.319105      1.496254
      8.62600     11.05840     10.51442        -0.354155     -0.212710      0.077626
     12.55990     11.59120     13.06159         0.592787     -0.613126     -0.374952
     10.27330      7.56904     11.74607         0.223510      0.178025     -0.304222
      5.89411     13.16380     12.24273        -1.286820     -0.718284      0.896422
      7.70461      3.16764     10.29498        -0.431554      0.586974     -0.120073
      7.77129      5.46186     10.08066        -0.997709     -0.780123     -2.011868
      2.60753      1.38273     12.35633         0.543971     -0.393032     -1.128504
      6.30289      2.41440     12.03632         0.149480      0.207435     -0.844043
      2.63291      8.12353     12.46684        -0.093398     -0.461917     -0.853470
     11.59350     13.63890     12.57735        -0.291285      0.247052     -0.065155
     10.11560      3.13355     13.52625         0.753318      0.019197      0.051387
      2.62289      2.85463     15.66464         0.010858      0.339118      0.407851
     10.79360      0.94823     13.86584        -0.889353     -0.824664      0.480826
      3.54187      9.82369     13.79984        -0.463289      0.255322      1.044317
      9.31326     12.60660     12.11965         0.176969      0.159443      0.319093
      2.61666     13.91750     11.30824         0.374209     -0.815051      0.184255
     13.12430      5.77965     10.00000         0.777785      0.331543      0.034643
     12.40080     11.01300     10.66954         0.311800     -0.402143      0.201158
      3.25512      5.82513     12.76511        -1.006024     -0.030046      0.775353
      3.84578      4.84064     10.72253         0.792501     -0.620502     -0.532997
      5.37892     10.96280     13.11366         0.745371      0.991536      0.340332
      9.63605      2.61752     11.33974         0.013772     -0.891761     -0.428863
      4.31893      2.30593     11.01313        -1.306794      1.120086     -0.222092
 -----------------------------------------------------------------------------------
    total drift:                               -0.005825      0.003016      0.001529


--------------------------------------------------------------------------------------------------------



  FREE ENERGIE OF THE ION-ELECTRON SYSTEM (eV)
  ---------------------------------------------------
  free  energy   TOTEN  =      -607.63666715 eV

  energy  without entropy=     -607.44470758  energy(sigma->0) =     -607.54068736



--------------------------------------------------------------------------------------------------------


    POTLOK:  cpu time      3.3409: real time      3.3552


--------------------------------------------------------------------------------------------------------


     LOOP+:  cpu time   7552.2815: real time   7557.6562
    4ORBIT:  cpu time      0.0000: real time      0.0000



 total charge

# of ion       s       p       d       tot
------------------------------------------
    1        0.404   0.003   0.000   0.407
    2        0.598   0.020   0.000   0.617
    3        0.594   0.027   0.000   0.621
    4        0.533   0.015   0.000   0.547
    5        0.619   0.029   0.000   0.648
    6        0.567   0.017   0.000   0.584
    7        0.529   0.018   0.000   0.547
    8        0.555   0.018   0.000   0.573
    9        0.504   0.014   0.000   0.518
   10        0.619   0.034   0.000   0.653
   11        0.596   0.020   0.000   0.616
   12        0.556   0.017   0.000   0.572
   13        0.614   0.033   0.000   0.647
   14        0.616   0.035   0.000   0.651
   15        0.571   0.022   0.000   0.593
   16        0.596   0.032   0.000   0.628
   17        0.513   0.014   0.000   0.528
   18        0.603   0.029   0.000   0.632
   19        0.573   0.031   0.000   0.604
   20        0.396   0.002   0.000   0.398
   21        0.589   0.031   0.000   0.620
   22        0.515   0.013   0.000   0.528
   23        0.600   0.033   0.000   0.632
   24        0.559   0.016   0.000   0.575
   25        0.396   0.003   0.000   0.399
   26        0.614   0.034   0.000   0.649
   27        0.792   0.862   0.000   1.654
   28        0.796   0.836   0.000   1.632
   29        0.789   0.878   0.000   1.667
   30        0.856   0.790   0.000   1.646
   31        0.775   0.960   0.000   1.735
   32        0.793   0.901   0.000   1.695
   33        0.849   0.776   0.000   1.625
   34        0.800   0.835   0.000   1.635
   35        0.835   0.783   0.000   1.618
   36        0.773   0.962   0.000   1.734
   37        0.796   0.912   0.000   1.708
   38        0.780   0.858   0.000   1.638
   39        0.863   0.700   0.000   1.563
   40        0.782   0.910   0.000   1.692
   41        0.767   0.908   0.000   1.675
   42        0.755   0.975   0.000   1.730
   43        0.779   0.857   0.000   1.636
   44        0.791   0.888   0.000   1.679
   45        0.782   0.968   0.000   1.750
   46        0.878   0.697   0.000   1.575
   47        0.748   0.979   0.000   1.727
   48        0.861   0.763   0.000   1.623
   49        0.871   0.720   0.000   1.591
   50        0.765   0.924   0.000   1.689
   51        0.834   0.788   0.000   1.622
   52        0.757   0.976   0.000   1.732
   53        0.766   0.986   0.000   1.752
   54        0.806   0.849   0.000   1.655
   55        0.764   1.048   0.000   1.812
   56        0.923   0.590   0.000   1.513
   57        0.828   0.769   0.000   1.596
   58        0.763   0.983   0.000   1.746
   59        0.858   0.714   0.000   1.572
   60        0.855   0.743   0.000   1.598
   61        0.774   0.960   0.000   1.735
   62        0.753   1.013   0.000   1.766
   63        0.879   0.701   0.000   1.581
   64        0.777   0.878   0.000   1.655
   65        0.810   0.875   0.000   1.685
   66        0.789   0.898   0.000   1.687
   67        0.809   0.879   0.000   1.688
   68        0.858   0.804   0.000   1.662
   69        0.771   0.967   0.000   1.738
   70        0.774   0.947   0.000   1.720
   71        0.764   0.891   0.000   1.656
   72        0.786   0.844   0.000   1.630
   73        0.769   0.964   0.000   1.733
   74        0.871   0.745   0.000   1.616
   75        0.815   0.840   0.000   1.654
   76        0.766   0.939   0.000   1.706
   77        0.783   0.855   0.000   1.637
   78        0.828   0.764   0.000   1.591
   79        0.917   0.592   0.000   1.509
   80        0.872   0.688   0.000   1.560
   81        0.765   0.896   0.000   1.661
   82        0.823   0.801   0.000   1.624
   83        0.768   0.928   0.000   1.696
   84        0.779   0.921   0.000   1.700
   85        0.812   0.832   0.000   1.644
--------------------------------------------------
tot         61.967  51.071   0.000 113.038


 total amount of memory used by VASP MPI-rank0   375628. kBytes
=======================================================================

   base                                    :      30000. kBytes
   nonl-proj                               :      77146. kBytes
   fftplans                                :     100027. kBytes
   grid                                    :      77177. kBytes
   one-center                              :         18. kBytes
   wavefun                                 :      91260. kBytes

  
  
 General timing and accounting informations for this job:
 ========================================================
  
                  Total CPU time used (sec):     7697.003
                            User time (sec):     6811.337
                          System time (sec):      885.667
                         Elapsed time (sec):     7702.468
  
                   Maximum memory used (kb):      633160.
                   Average memory used (kb):          N/A
  
                          Minor page faults:     11638794
                          Major page faults:         1170
                 Voluntary context switches:         3246
