ITEM: TIMESTEP
239141
ITEM: NUMBER OF ATOMS
12000
ITEM: BOX BOUNDS pp pp pp
-1.0272867233098091e+00 5.8948470329485936e+01
-1.0272867233098091e+00 5.8948470329485936e+01
-1.0272867233098091e+00 6.9354353156272708e+01
ITEM: ATOMS id type xs ys zs
1 2 0.962738 0.0381485 0.212765
2 2 0.758518 0.405606 0.219754
3 2 0.464602 0.518852 0.522457
4 2 0.893988 0.990408 0.537808
5 2 0.266978 0.115771 0.485601
6 2 0.3202 0.874892 0.127285
7 2 0.0236132 0.301599 0.642917
8 2 0.406848 0.15301 0.207094
9 2 0.195275 0.351747 0.5216
10 2 0.138813 0.103601 0.24381
11 2 0.338372 0.205765 0.0905712
12 2 0.250041 0.316004 0.142711
13 2 0.187229 0.435862 0.064674
14 2 0.0611178 0.387967 0.631966
15 2 0.545611 0.254537 0.504924
16 2 0.358282 0.142001 0.716574
17 2 0.294369 0.235727 0.0635463
18 2 0.0544255 0.142315 0.915542
19 2 0.0732946 0.355424 0.544827
20 2 0.275931 0.145032 0.155325
21 2 0.0347791 0.075766 0.129551
22 2 0.452842 0.0697111 0.557614
23 2 0.870862 0.06938 0.67062
24 2 0.58672 0.0766552 0.533684
25 2 0.131391 0.322822 0.467092
26 2 0.72377 0.205897 0.104404
27 2 0.808798 0.113053 0.043407
28 2 0.212686 0.332434 0.243315
29 2 0.172476 0.134916 0.0460923
30 2 0.164389 0.237388 0.599994
31 2 0.418026 0.151464 0.508974
32 2 0.306476 0.426761 0.0843155
33 2 0.148182 0.45659 0.187553
34 2 0.236491 0.0725295 0.727399
35 2 0.13282 0.281216 0.95478
36 2 0.328319 0.939731 0.0034805
37 2 0.519074 0.0446062 0.0454376
38 2 0.314004 0.548076 0.694813
39 2 0.929327 0.650466 0.143242
40 2 0.948581 0.202987 0.505795
41 2 0.775238 0.483987 0.0471425
42 2 0.888342 0.671137 0.0947678
43 2 0.0751346 0.19281 0.0363157
44 2 0.349904 0.317817 0.117604
45 2 0.98478 0.796378 0.096956
46 2 0.914226 0.46605 0.107409
47 2 0.00436624 0.714024 0.561823
48 2 0.359415 0.520471 0.533147
49 2 0.202405 0.0157437 0.0342794
50 2 0.251005 0.138602 0.181283
51 2 0.540128 0.0597454 0.572919
52 2 0.270018 0.0914305 0.656484
53 2 0.34192 0.892049 0.214196
54 2 0.409719 0.436969 0.231503
55 2 0.914516 0.429502 0.5785
56 2 0.141112 0.433119 0.745288
57 2 0.503009 0.231813 0.827379
58 2 0.104569 0.242629 0.62538
59 2 0.730978 0.434878 0.462797
60 2 0.326197 0.180258 0.530147
61 2 0.066842 0.171886 0.558793
62 2 0.358871 0.38898 0.506899
63 2 0.857869 0.330369 0.31485
64 2 0.964542 0.755726 0.954614
65 2 0.565846 0.474834 0.805938
66 2 0.505756 0.252134 0.127453
67 2 0.28665 0.197875 0.250717
68 2 0.735167 0.33829 0.0527961
69 2 0.869309 0.701015 0.456169
70 2 0.551188 0.301781 0.126031
71 2 0.323575 0.520283 0.152164
72 2 0.0437245 0.148852 0.181614
73 2 0.324668 0.0325002 0.326131
74 2 0.476572 0.357142 0.514976
75 2 0.511279 0.469129 0.174931
76 2 0.470594 0.184549 0.150868
77 2 0.386454 0.262307 0.197077
78 2 0.040392 0.179338 0.0270934
79 2 0.229191 0.0466601 0.200526
80 2 0.485785 0.225865 0.228306
81 2 0.157708 0.566975 0.998797
82 2 0.182292 0.440143 0.144754
83 2 0.272672 0.908086 0.00673568
84 2 0.85094 0.400071 0.0458985
85 2 0.148371 0.485877 0.108843
86 2 0.330896 0.320183 0.0635365
87 2 0.576098 0.602127 0.191175
88 2 0.680338 0.182764 0.640618
89 2 0.403503 0.359438 0.186437
90 2 0.297489 0.147531 0.223042
91 2 0.22598 0.223191 0.202031
92 2 0.408707 0.174757 0.687011
93 2 0.379142 0.301508 0.133942
94 2 0.334483 0.211615 0.446245
95 2 0.137655 0.639774 0.048866
96 2 0.138585 0.406196 0.556022
97 2 0.810383 0.386334 0.159505
98 2 0.401984 0.421713 0.814872
99 2 0.75778 0.91216 0.550445
100 2 0.15303 0.618928 0.248359
101 2 0.350612 0.371157 0.146302
102 2 0.533108 0.0930342 0.212129
103 2 0.415715 0.0887945 0.279321
104 2 0.304685 0.00787531 0.586307
105 2 0.491713 0.234104 0.565536
106 2 0.180221 0.0710323 0.886774
107 2 0.404609 0.386591 0.973105
108 2 0.219965 0.876302 0.211149
109 2 0.220008 0.65921 0.991324
110 2 0.42391 0.388566 0.500249
111 2 0.276293 0.433188 0.151499
112 2 0.488628 0.383759 0.707889
113 2 0.289964 0.402572 0.133925
114 2 0.293746 0.570054 0.282474
115 2 0.831128 0.967658 0.172835
116 2 0.867467 0.977315 0.249574
117 2 0.454683 0.378698 0.598973
118 2 0.288619 0.248042 0.772309
119 2 0.11749 0.45101 0.209454
120 2 0.407203 0.0934052 0.227147
121 2 0.282306 0.874836 0.238817
122 2 0.918003 0.497125 0.540884
123 2 0.843906 0.815687 0.176265
124 2 0.740477 0.389364 0.412146
125 2 0.197372 0.271741 0.229691
126 2 0.217887 0.115327 0.135452
127 2 0.284842 0.613614 0.149405
128 2 0.560837 0.360265 0.395556
129 2 0.367261 0.3506 0.619919
130 2 0.917016 0.905935 0.520767
131 2 0.0191671 0.325184 0.911501
132 2 0.418746 0.310192 0.792009
133 2 0.734582 0.697146 0.549571
134 2 0.402254 0.555922 0.62486
135 2 0.138355 0.671781 0.899527
136 2 0.697345 0.161485 0.242727
137 2 0.130325 0.125088 0.605176
138 2 0.284788 0.098213 0.242372
139 2 0.362858 0.511075 0.157977
140 2 0.296738 0.249989 0.583171
141 2 0.920487 0.2999 0.67255
142 2 0.0167392 0.737823 0.537602
143 2 0.0929473 0.0673033 0.127302
144 2 0.955774 0.46346 0.319535
145 2 0.205291 0.304725 0.109723
146 2 0.253587 0.0245873 0.182047
147 2 0.105672 0.346313 0.277891
148 2 0.361788 0.363974 0.561184
149 2 0.529184 0.214384 0.604179
150 2 0.127561 0.23285 0.271052
151 2 0.828891 0.303262 0.943206
152 2 0.475951 0.476136 0.906371
153 2 0.315615 0.163457 0.47475
154 2 0.247346 0.300696 0.464245
155 2 0.475228 0.149837 0.850864
156 2 0.370789 0.161951 0.607371
157 2 0.450001 0.527968 0.214937
158 2 0.165741 0.481321 0.728202
159 2 0.0797028 0.117675 0.0565565
160 2 0.329831 0.913445 0.162627
161 2 0.233252 0.312091 0.197862
162 2 0.973949 0.271519 0.468232
163 2 0.537209 0.571087 0.150573
164 2 0.0120867 0.0891639 0.193912
165 2 0.230916 0.0977495 0.0880808
166 2 0.299059 0.588067 0.58924
167 2 0.786567 0.231213 0.0192943
168 2 0.312409 0.0862262 0.290181
169 2 0.913914 0.584542 0.284357
170 2 0.537436 0.307171 0.912233
171 2 0.449902 0.312904 0.182821
172 2 0.132659 0.02584 0.903105
173 2 0.378965 0.225219 0.534074
174 2 0.373847 0.189512 0.998654
175 2 0.257053 0.247842 0.492584
176 2 0.266006 0.26886 0.926464
177 2 0.596204 0.16933 0.426036
178 2 0.868034 0.281894 0.229291
179 2 0.378005 0.782878 0.154446
180 2 0.367413 0.324792 0.645552
181 2 0.98148 0.347652 0.0713671
182 2 0.52449 0.343882 0.0819238
183 2 0.0533872 0.33062 0.246776
184 2 0.388038 0.272814 0.50056
185 2 0.0146421 0.949608 0.556707
186 2 0.167188 0.500914 0.208526
187 2 0.427136 0.300859 0.158016
188 2 0.169554 0.152704 0.980247
189 2 0.327713 0.292967 0.165885
190 2 0.242683 0.210094 0.174248
191 2 0.184562 0.30629 0.763031
192 2 0.28016 0.77683 0.0811663
193 2 0.582103 0.474654 0.612281
194 2 0.424443 0.625574 0.566262
195 2 0.215564 0.19909 0.485765
196 2 0.640478 0.030384 0.988922
197 2 0.232275 0.144136 0.993032
198 2 0.774 0.143271 0.749348
199 2 0.0779521 0.43152 0.749005
200 2 0.318706 0.221863 0.85341
201 2 0.324511 0.550748 0.0638652
202 2 0.75638 0.2792 0.187269
203 2 0.880405 0.17248 0.0256936
204 2 0.676033 0.0956261 0.506261
205 2 0.2043 0.462006 0.492667
206 2 0.245558 0.672116 0.202917
207 2 0.176506 0.905687 0.998379
208 2 0.0758151 0.934923 0.134296
209 2 0.414337 0.884282 0.544326
210 2 0.979619 0.493986 0.870266
211 2 0.0468499 0.980456 0.618466
212 2 0.987869 0.95815 0.665085
213 2 0.358974 0.405504 0.25193
214 2 0.491122 0.202161 0.940028
215 2 0.983644 0.918265 0.180758
216 2 0.170786 0.957596 0.0803596
217 2 0.156705 0.86323 0.263844
218 2 0.891149 0.192129 0.270115
219 2 0.269072 0.0952694 0.87455
220 2 0.230796 0.121615 0.303543
221 2 0.846163 0.271591 0.829515
222 2 0.810312 0.203725 0.0058877
223 2 0.164937 0.0536375 0.290405
224 2 0.340221 0.848833 0.144068
225 2 0.397868 0.632004 0.221196
226 2 0.423307 0.377953 0.794741
227 2 0.222021 0.504601 0.119606
228 2 0.135477 0.216093 0.714278
229 2 0.755681 0.342655 0.205267
230 2 0.491999 0.409051 0.483764
231 2 0.212573 0.318568 0.531732
232 2 0.323331 0.234041 0.203766
233 2 0.16769 0.937429 0.61395
234 2 0.515515 0.612871 0.67338
235 2 0.300777 0.842207 0.0199922
236 2 0.352488 0.996715 0.654059
237 2 0.040113 0.902053 0.212787
238 2 0.15964 0.404731 0.187228
239 2 0.950295 0.208512 0.0471902
240 2 0.865226 0.409858 0.914496
241 2 0.203396 0.307794 0.218427
242 2 0.1152 0.324898 0.219648
243 2 0.764257 0.2732 0.110313
244 2 0.428952 0.423667 0.0608211
245 2 0.922108 0.294039 0.639147
246 2 0.107616 0.223446 0.186656
247 2 0.453243 0.705283 0.429919
248 2 0.214512 0.37432 0.0080242
249 2 0.531234 0.823477 0.425411
250 2 0.94884 0.648716 0.509347
251 2 0.657343 0.985292 0.0583996
252 2 0.281203 0.884596 0.980523
253 2 0.364089 0.942015 0.959444
254 2 0.230527 0.0861154 0.5633
255 2 0.608127 0.346773 0.198081
256 2 0.123304 0.546722 0.0769974
257 2 0.486675 0.0873894 0.563389
258 2 0.514671 0.908767 0.891992
259 2 0.577194 0.569802 0.209418
260 2 0.477822 0.301132 0.251954
261 2 0.109668 0.0650302 0.998703
262 2 0.226582 0.2587 0.137693
263 2 0.354125 0.398847 0.644862
264 2 0.41372 0.848178 0.901314
265 2 0.435842 0.973925 0.840695
266 2 0.498224 0.11832 0.113108
267 2 0.295863 0.390642 0.828121
268 2 0.22939 0.41665 0.514937
269 2 0.888483 0.0185655 0.631064
270 2 0.147254 0.685103 0.228832
271 2 0.325155 0.051613 0.132175
272 2 0.330192 0.563706 0.0950173
273 2 0.504439 0.243006 0.0696726
274 2 0.272948 0.0741042 0.219048
275 2 0.368256 0.405757 0.14934
276 2 0.603703 0.941809 0.560562
277 2 0.765496 0.346015 0.0994006
278 2 0.622438 0.5313 0.531848
279 2 0.707173 0.242606 0.464616
280 2 0.00428058 0.320977 0.492007
281 2 0.949281 0.523176 0.0789929
282 2 0.285147 0.524028 0.107926
283 2 0.3222 0.956395 0.530209
284 2 0.507088 0.921157 0.553774
285 2 0.548254 0.230978 0.53098
286 2 0.159622 0.167239 0.547463
287 2 0.10667 0.184341 0.296257
288 2 0.42493 0.724274 0.142891
289 2 0.305058 0.314589 0.186228
290 2 0.287908 0.0338308 0.918286
291 2 0.808638 0.469077 0.146571
292 2 0.259273 0.346273 0.0899051
293 2 0.423435 0.862245 0.204811
294 2 0.162676 0.489744 0.267074
295 2 0.488865 0.25896 0.210074
296 2 0.980236 0.924283 0.213618
297 2 0.463338 0.208982 0.601661
298 2 0.138463 0.995686 0.143362
299 2 0.396265 0.355301 0.236961
300 2 0.595669 0.969036 0.261085
301 2 0.039886 0.520843 0.11698
302 2 0.438462 0.117862 0.0885424
303 2 0.166241 0.193767 0.705261
304 2 0.242241 0.321978 0.983457
305 2 0.4384 0.0321129 0.298482
306 2 0.0215483 0.301353 0.0746604
307 2 0.350714 0.556021 0.60303
308 2 0.177367 0.290874 0.132237
309 2 0.366778 0.680615 0.104708
310 2 0.879579 0.429193 0.995527
311 2 0.817475 0.361117 0.784069
312 2 0.119481 0.395324 0.60522
313 2 0.291792 0.413102 0.295152
314 2 0.742573 0.0234496 0.877079
315 2 0.489802 0.363288 0.176146
316 2 0.377468 0.386256 0.0516583
317 2 0.240728 0.316811 0.901266
318 2 0.0370295 0.120677 0.567711
319 2 0.167202 0.10959 0.180963
320 2 0.435189 0.155752 0.610598
321 2 0.341302 0.792789 0.146455
322 2 0.0707106 0.286078 0.209242
323 2 0.314938 0.0789732 0.256698
324 2 0.925746 0.185642 0.458793
325 2 0.191749 0.230081 0.264401
326 2 0.416528 0.324489 0.196204
327 2 0.432419 0.0694504 0.210932
328 2 0.476459 0.180118 0.266471
329 2 0.185609 0.377196 0.144064
330 2 0.33514 0.360333 0.222109
331 2 0.199052 0.343292 0.10454
332 2 0.903246 0.58481 0.150584
333 2 0.107734 0.359312 0.993643
334 2 0.61251 0.322938 0.442335
335 2 0.536277 0.603998 0.975807
336 2 0.955271 0.972122 0.175274
337 2 0.971078 0.180692 0.77008
338 2 0.409621 0.350612 0.0798645
339 2 0.33942 0.150971 0.108532
340 2 0.336464 0.48149 0.479715
341 2 0.171159 0.976629 0.151448
342 2 0.281973 0.368216 0.0701838
343 2 0.475025 0.0281475 0.309822
344 2 0.721869 0.503189 0.0527709
345 2 0.380861 0.203125 0.133613
346 2 0.307962 0.0312266 0.205585
347 2 0.521527 0.537706 0.160992
348 2 0.946315 0.42489 0.482518
349 2 0.956428 0.594524 0.94204
350 2 0.86266 0.459891 0.0566728
351 2 0.314568 0.186364 0.868717
352 2 0.152289 0.955955 0.209697
353 2 0.334485 0.888756 0.676019
354 2 0.167256 0.0106298 0.652744
355 2 0.38518 0.159446 0.526656
356 2 0.694698 0.490895 0.22638
357 2 0.40831 0.518332 0.12762
358 2 0.232171 0.761561 0.714221
359 2 0.661949 0.10727 0.55429
360 2 0.0730925 0.122075 0.123066
361 2 0.897383 0.776804 0.304604
362 2 0.425491 0.300993 0.626388
363 2 0.721146 0.265925 0.488502
364 2 0.358116 0.145052 0.161699
365 2 0.540391 0.357613 0.519869
366 2 0.186688 0.536645 0.773557
367 2 0.363587 0.0140623 0.232138
368 2 0.462052 0.986487 0.994412
369 2 0.251828 0.980901 0.255083
370 2 0.944415 0.173434 0.995552
371 2 0.696338 0.267575 0.440126
372 2 0.0278767 0.14684 0.0428677
373 2 0.152452 0.134348 0.159787
374 2 0.188405 0.359153 0.197535
375 2 0.524054 0.992784 0.211451
376 2 0.271089 0.447937 0.738518
377 2 0.303099 0.202177 0.0469114
378 2 0.308118 0.672914 0.0527226
379 2 0.255547 0.242666 0.216949
380 2 0.364686 0.30653 0.16452
381 2 0.265381 0.992719 0.200134
382 2 0.322328 0.0820094 0.581836
383 2 0.412798 0.412975 0.448242
384 2 0.991203 0.352833 0.311948
385 2 0.318304 0.0115567 0.475003
386 2 0.124783 0.396042 0.227231
387 2 0.287707 0.304454 0.21495
388 2 0.59068 0.456001 0.246001
389 2 0.311347 0.403942 0.881169
390 2 0.98363 0.560126 0.902567
391 2 0.430599 0.548116 0.666107
392 2 0.171384 0.325797 0.205191
393 2 0.114389 0.173176 0.0767689
394 2 0.989512 0.584546 0.619036
395 2 0.238879 0.923482 0.998857
396 2 0.527189 0.110274 0.534664
397 2 0.984142 0.811084 0.234406
398 2 0.705543 0.00986956 0.0834664
399 2 0.559809 0.2577 0.0932019
400 2 0.816813 0.972207 0.0432321
401 2 0.512618 0.0792579 0.335334
402 2 0.265392 0.488212 0.0193988
403 2 0.538387 0.413769 0.734727
404 2 0.706475 0.342809 0.382863
405 2 0.722365 0.105636 0.732131
406 2 0.543957 0.980497 0.185275
407 2 0.606228 0.438864 0.487273
408 2 0.136694 0.0652327 0.641741
409 2 0.13869 0.336308 0.919121
410 2 0.841135 0.765146 0.0138939
411 2 0.306946 0.164781 0.253594
412 2 0.961493 0.348136 0.907269
413 2 0.278879 0.662177 0.590298
414 2 0.181129 0.304378 0.8603
415 2 0.0946173 0.0381696 0.241273
416 2 0.903849 0.957423 0.80043
417 2 0.0448371 0.0699709 0.249457
418 2 0.117761 0.195278 0.227739
419 2 0.548754 0.549925 0.573286
420 2 0.0880654 0.210179 0.888065
421 2 0.165041 0.0370872 0.081598
422 2 0.56775 0.962489 0.595616
423 2 0.829543 0.204827 0.561113
424 2 0.0174121 0.0973159 0.252598
425 2 0.164577 0.114748 0.267499
426 2 0.0132138 0.339428 0.00508671
427 2 0.103806 0.97414 0.705468
428 2 0.0523071 0.000584544 0.26892
429 2 0.100628 0.247866 0.0948328
430 2 0.298915 0.606614 0.0390016
431 2 0.414221 0.986061 0.543814
432 2 0.277194 0.417663 0.0371831
433 2 0.746669 0.968014 0.0764999
434 2 0.405826 0.300042 0.272532
435 2 0.104513 0.137109 0.206548
436 2 0.0199345 0.195017 0.460051
437 2 0.278577 0.325876 0.163729
438 2 0.229519 0.401168 0.108259
439 2 0.973478 0.222551 0.134105
440 2 0.252933 0.206663 0.526141
441 2 0.288833 0.0909413 0.127451
442 2 0.173643 0.501081 0.0868912
443 2 0.220809 0.242759 0.647818
444 2 0.125534 0.891402 0.532439
445 2 0.513485 0.409825 0.140921
446 2 0.0564881 0.485079 0.55672
447 2 0.223109 0.0838777 0.931267
448 2 0.240115 0.449666 0.271357
449 2 0.375018 0.584342 0.612037
450 2 0.395092 0.420399 0.259087
451 2 0.630112 0.992926 0.204895
452 2 0.258998 0.573097 0.550788
453 2 0.0499557 0.139734 0.0696966
454 2 0.692986 0.982525 0.247102
455 2 0.575252 0.388718 0.114305
456 2 0.317189 0.471711 0.116294
457 2 0.224079 0.130298 0.241083
458 2 0.545154 0.326156 0.2064
459 2 0.352339 0.0955189 0.0896463
460 2 0.448392 0.322732 0.480353
461 2 0.808162 0.80271 0.891194
462 2 0.489165 0.405736 0.986681
463 2 0.00740469 0.950276 0.225549
464 2 0.0590971 0.243701 0.251184
465 2 0.978403 0.18876 0.879483
466 2 0.556322 0.324932 0.475926
467 2 0.385103 0.0551359 0.95994
468 2 0.623883 0.172356 0.830931
469 2 0.152731 0.474878 0.641619
470 2 0.299326 0.175896 0.165103
471 2 0.431937 0.995179 0.514406
472 2 0.989849 0.061252 0.0917718
473 2 0.23704 0.0699233 0.259866
474 2 0.377186 0.0885329 0.274357
475 2 0.424451 0.142383 0.0236652
476 2 0.760039 0.151141 0.216835
477 2 0.831383 0.682708 0.498029
478 2 0.267511 0.281382 0.0948281
479 2 0.288476 0.0192048 0.0902127
480 2 0.73308 0.155786 0.50928
481 2 0.415416 0.161885 0.0513844
482 2 0.684158 0.194509 0.142772
483 2 0.75728 0.174137 0.262562
484 2 0.383972 0.291198 0.905713
485 2 0.1139 0.28738 0.469098
486 2 0.45046 0.273741 0.146086
487 2 0.325763 0.237236 0.775126
488 2 0.859346 0.18195 0.455778
489 2 0.748622 0.598054 0.260324
490 2 0.409939 0.482635 0.533465
491 2 0.326271 0.0252329 0.609854
492 2 0.378521 0.425519 0.463914
493 2 0.343238 0.442911 0.676118
494 2 0.202362 0.488425 0.0158461
495 2 0.315048 0.0932027 0.721965
496 2 0.194379 0.303066 0.795657
497 2 0.0212233 0.217671 0.79928
498 2 0.0380571 0.432454 0.29133
499 2 0.301899 0.357326 0.666997
500 2 0.604867 0.484357 0.0911038
501 2 0.981822 0.189867 0.0356728
502 2 0.0364001 0.114838 0.0236332
503 2 0.255945 0.00854229 0.0732926
504 2 0.747975 0.973954 0.478289
505 2 0.503524 0.0191429 0.841219
506 2 0.233556 0.302402 0.657447
507 2 0.374264 0.320921 0.763378
508 2 0.178718 0.329419 0.0425487
509 2 0.0415362 0.549182 0.882012
510 2 0.320672 0.36361 0.977291
511 2 0.297721 0.248874 0.00903871
512 2 0.961645 0.349275 0.118741
513 2 0.874634 0.325826 0.364008
514 2 0.652048 0.339805 0.97252
515 2 0.283069 0.0375249 0.230723
516 2 0.338902 0.387766 0.0535123
517 2 0.118039 0.221119 0.936309
518 2 0.285468 0.525512 0.477425
519 2 0.159055 0.78601 0.235415
520 2 0.603855 0.445173 0.453971
521 2 0.324585 0.135161 0.201597
522 2 0.346484 0.844503 0.0722007
523 2 0.0658586 0.397733 0.325712
524 2 0.136614 0.330877 0.825731
525 2 0.37683 0.758983 0.204467
526 2 0.383512 0.964511 0.810768
527 2 0.143916 0.286369 0.549538
528 2 0.506195 0.429842 0.171923
529 2 0.540811 0.183078 0.187358
530 2 0.293734 0.951311 0.0409705
531 2 0.101596 0.32956 0.0507541
532 2 0.482084 0.751987 0.454354
533 2 0.107116 0.537447 0.105407
534 2 0.181581 0.202536 0.158346
535 2 0.569334 0.218242 0.594553
536 2 0.939919 0.327175 0.0984057
537 2 0.145661 0.129352 0.863155
538 2 0.605353 0.914162 0.156659
539 2 0.493695 0.0376509 0.254939
540 2 0.206559 0.109529 0.773874
541 2 0.919953 0.959728 0.831111
542 2 0.173454 0.368794 0.00789298
543 2 0.230468 0.45894 0.216553
544 2 0.195437 0.213324 0.691085
545 2 0.333261 0.423423 0.0122365
546 2 0.477594 0.421671 0.132388
547 2 0.385706 0.267617 0.680147
548 2 0.669383 0.355133 0.381715
549 2 0.710858 0.937608 0.761198
550 2 0.891327 0.202753 0.685892
551 2 0.256332 0.586017 0.188553
552 2 0.254012 0.384936 0.131584
553 2 0.770162 0.102495 0.956657
554 2 0.581931 0.962487 0.951981
555 2 0.460133 0.380903 0.844098
556 2 0.203642 0.289445 0.0797295
557 2 0.267854 0.37332 0.907159
558 2 0.942429 0.389754 0.193643
559 2 0.596213 0.309467 0.197553
560 2 0.69856 0.111235 0.280081
561 2 0.835782 0.297916 0.78285
562 2 0.177228 0.407619 0.554278
563 2 0.325173 0.14238 0.540222
564 2 0.176058 0.0192537 0.19256
565 2 0.0911703 0.198087 0.125937
566 2 0.42306 0.608817 0.424461
567 2 0.418273 0.321862 0.678338
568 2 0.159097 0.895897 0.165623
569 2 0.97813 0.331604 0.212282
570 2 0.221369 0.0783949 0.343386
571 2 0.410942 0.529418 0.945429
572 2 0.10273 0.289574 0.228287
573 2 0.553629 0.348564 0.448537
574 2 0.456379 0.430506 0.944914
575 2 0.976744 0.116959 0.00277376
576 2 0.250381 0.106786 0.256165
577 2 0.80683 0.579309 0.249198
578 2 0.409056 0.891016 0.085892
579 2 0.685361 0.166742 0.795939
580 2 0.0792643 0.309804 0.159278
581 2 0.567651 0.163558 0.564585
582 2 0.127181 0.191872 0.173861
583 2 0.272051 0.870748 0.169311
584 2 0.480526 0.151356 0.0631119
585 2 0.124089 0.539986 0.802242
586 2 0.334361 0.527906 0.301776
587 2 0.549901 0.481506 0.178106
588 2 0.040768 0.590631 0.254057
589 2 0.91282 0.374348 0.915352
590 2 0.400333 0.806101 0.502245
591 2 0.27528 0.0828517 0.297746
592 2 0.105717 0.509226 0.040302
593 2 0.0288288 0.8265 0.997759
594 2 0.107635 0.641208 0.715145
595 2 0.926064 0.889534 0.039132
596 2 0.898898 0.157176 0.254654
597 2 0.111531 0.430757 0.118641
598 2 0.199268 0.667023 0.612891
599 2 0.0989116 0.145209 0.889702
600 2 0.897422 0.298194 0.951943
601 2 0.428748 0.202737 0.238378
602 2 0.943427 0.321161 0.409085
603 2 0.425931 0.586283 0.11534
604 2 0.306316 0.541934 0.20298
605 2 0.0365328 0.591934 0.0240449
606 2 0.61979 0.52006 0.091386
607 2 0.419075 0.380295 0.467168
608 2 0.12491 0.579769 0.863407
609 2 0.176625 0.434628 0.20049
610 2 0.135375 0.332828 0.096634
611 2 0.268305 0.00477371 0.0422545
612 2 0.1949 0.149627 0.093242
613 2 0.360744 0.307089 0.864698
614 2 0.202275 0.249705 0.552644
615 2 0.13047 0.303372 0.735698
616 2 0.480285 0.959247 0.0731291
617 2 0.179787 0.251415 0.320509
618 2 0.955484 0.0104399 0.0354433
619 2 0.165292 0.356475 0.0901641
620 2 0.184861 0.534361 0.535313
621 2 0.311892 0.252121 0.118851
622 2 0.0943372 0.481564 0.215334
623 2 0.538822 0.632728 0.419558
624 2 0.413189 0.482913 0.140695
625 2 0.23631 0.295551 0.576802
626 2 0.0942217 0.105218 0.5693
627 2 0.386941 0.212847 0.929331
628 2 0.376124 0.833669 0.186911
629 2 0.782654 0.28758 0.484874
630 2 0.595458 0.178509 0.654719
631 2 0.472701 0.208469 0.832759
632 2 0.202882 0.210187 0.291489
633 2 0.0924802 0.308218 0.675831
634 2 0.725044 0.692456 0.179432
635 2 0.68538 0.414211 0.89305
636 2 0.302425 0.420171 0.61568
637 2 0.327957 0.285101 0.937422
638 2 0.144301 0.033987 0.150598
639 2 0.155718 0.261076 0.093947
640 2 0.366594 0.474328 0.499614
641 2 0.496907 0.00332365 0.513601
642 2 0.119052 0.399418 0.526964
643 2 0.437933 0.956645 0.504385
644 2 0.757637 0.260348 0.865982
645 2 0.327625 0.620499 0.21821
646 2 0.0514738 0.175096 0.655738
647 2 0.435677 0.0312186 0.220051
648 2 0.389989 0.470956 0.230281
649 2 0.141493 0.274325 0.188174
650 2 0.339422 0.993994 0.102897
651 2 0.238175 0.37214 0.953023
652 2 0.112517 0.836547 0.9748
653 2 0.336026 0.13686 0.964167
654 2 0.25276 0.359587 0.281664
655 2 0.472339 0.338223 0.930927
656 2 0.160593 0.245698 0.757379
657 2 0.25155 0.142301 0.911226
658 2 0.19699 0.509293 0.933419
659 2 0.987871 0.0100422 0.0170145
660 2 0.143096 0.454003 0.615526
661 2 0.331581 0.184107 0.920198
662 2 0.251173 0.347448 0.2057
663 2 0.761252 0.893134 0.264661
664 2 0.41008 0.273568 0.450754
665 2 0.476579 0.424249 0.216638
666 2 0.978931 0.666852 0.0558641
667 2 0.284784 0.307976 0.292116
668 2 0.906906 0.306476 0.149303
669 2 0.324776 0.391561 0.851642
670 2 0.841289 0.128959 0.586982
671 2 0.14614 0.582063 0.25788
672 2 0.871109 0.578662 0.570137
673 2 0.063425 0.521983 0.252063
674 2 0.519166 0.20632 0.23333
675 2 0.41737 0.0916118 0.0699241
676 2 0.198444 0.374329 0.548816
677 2 0.173933 0.814114 0.0848076
678 2 0.0126543 0.642276 0.886532
679 2 0.279813 0.252595 0.174599
680 2 0.960171 0.333841 0.647488
681 2 0.910623 0.380856 0.62731
682 2 0.204089 0.1123 0.0376255
683 2 0.0805991 0.647881 0.31085
684 2 0.00293731 0.663601 0.199105
685 2 0.288468 0.954152 0.0901382
686 2 0.602611 0.398542 0.52742
687 2 0.432194 0.563715 0.950199
688 2 0.0804677 0.336639 0.719936
689 2 0.561885 0.242745 0.831718
690 2 0.0533801 0.0526054 0.568188
691 2 0.470663 0.198848 0.312121
692 2 0.599746 0.236807 0.56948
693 2 0.275332 0.338302 0.22996
694 2 0.214436 0.489025 0.233516
695 2 0.384354 0.258107 0.0934781
696 2 0.845451 0.118977 0.827278
697 2 0.0489016 0.432907 0.159606
698 2 0.570868 0.940184 0.903031
699 2 0.273668 0.116229 0.956341
700 2 0.222071 0.310235 0.165786
701 2 0.601978 0.720544 0.736375
702 2 0.916057 0.35075 0.0767844
703 2 0.613313 0.438746 0.575999
704 2 0.376396 0.32676 0.480264
705 2 0.181462 0.0309525 0.266984
706 2 0.175607 0.253952 0.0393403
707 2 0.994868 0.172418 0.906518
708 2 0.150099 0.507429 0.884288
709 2 0.101088 0.488905 0.0702772
710 2 0.258793 0.505622 0.567378
711 2 0.821046 0.917286 0.91321
712 2 0.308813 0.320982 0.677773
713 2 0.873865 0.241182 0.125405
714 2 0.355806 0.393337 0.21974
715 2 0.63428 0.0638064 0.203552
716 2 0.0245154 0.535864 0.0663943
717 2 0.243936 0.884442 0.237709
718 2 0.221073 0.903463 0.159176
719 2 0.0703296 0.339227 0.0896377
720 2 0.0476923 0.369893 0.282316
721 2 0.105188 0.455842 0.613091
722 2 0.471991 0.336826 0.747803
723 2 0.169297 0.277658 0.810538
724 2 0.484443 0.103571 0.769966
725 2 0.843973 0.720794 0.186891
726 2 0.491589 0.0858882 0.361674
727 2 0.122502 0.36559 0.172859
728 2 0.582268 0.0879106 0.0933557
729 2 0.242103 0.854685 0.602363
730 2 0.186461 0.204905 0.238895
731 2 0.400328 0.134054 0.998872
732 2 0.294637 0.1416 0.279511
733 2 0.506453 0.613265 0.196193
734 2 0.125713 0.395277 0.124332
735 2 0.0876412 0.237706 0.128288
736 2 0.924217 0.715883 0.516107
737 2 0.977979 0.778783 0.146139
738 2 0.228766 0.22683 0.506399
739 2 0.138142 0.15663 0.00024239
740 2 0.427937 0.331346 0.268574
741 2 0.23056 0.786485 0.121397
742 2 0.457815 0.386857 0.176176
743 2 0.10213 0.302391 0.133128
744 2 0.424137 0.819237 0.0925724
745 2 0.998024 0.296389 0.517057
746 2 0.760303 0.423566 0.518544
747 2 0.345845 0.427387 0.170354
748 2 0.522865 0.144231 0.310221
749 2 0.926057 0.068185 0.691759
750 2 0.0527891 0.59162 0.0843194
751 2 0.845772 0.213115 0.471688
752 2 0.0791159 0.191003 0.227086
753 2 0.396863 0.295317 0.180199
754 2 0.893324 0.982071 0.980551
755 2 0.327791 0.0587247 0.00483879
756 2 0.478029 0.445364 0.0249826
757 2 0.261765 0.209772 0.100162
758 2 0.0917194 0.279988 0.62597
759 2 0.437904 0.324302 0.649903
760 2 0.386331 0.119261 0.208049
761 2 0.0262528 0.259235 0.926955
762 2 0.484963 0.198285 0.0915499
763 2 0.00776275 0.139787 0.660155
764 2 0.103468 0.100503 0.257406
765 2 0.92592 0.560706 0.110769
766 2 0.340371 0.538947 0.256108
767 2 0.99564 0.0271728 0.539934
768 2 0.290956 0.403327 0.232528
769 2 0.0729491 0.348758 0.982882
770 2 0.421885 0.99992 0.201068
771 2 0.511541 0.415845 0.203291
772 2 0.259342 0.642056 0.258532
773 2 0.230571 0.0385445 0.074207
774 2 0.202244 0.561873 0.166584
775 2 0.249827 0.333276 0.25548
776 2 0.671167 0.294029 0.450897
777 2 0.0762734 0.303602 0.910488
778 2 0.0920329 0.588588 0.970564
779 2 0.989867 0.282371 0.641753
780 2 0.822945 0.394762 0.110309
781 2 0.349987 0.624178 0.641766
782 2 0.978778 0.173915 0.197179
783 2 0.311046 0.968494 0.292206
784 2 0.87423 0.0861606 0.13329
785 2 0.447894 0.33108 0.512625
786 2 0.984254 0.886629 0.827357
787 2 0.126588 0.0507676 0.329832
788 2 0.476968 0.0284979 0.0760402
789 2 0.159559 0.380809 0.844647
790 2 0.395504 0.139754 0.651943
791 2 0.243317 0.990575 0.137409
792 2 0.128407 0.427273 0.324324
793 2 0.238985 0.428897 0.0312341
794 2 0.483983 0.108785 0.33649
795 2 0.562481 0.0322182 0.587134
796 2 0.190334 0.160737 0.124019
797 2 0.428404 0.250852 0.126479
798 2 0.39602 0.212943 0.0170378
799 2 0.0477652 0.473791 0.968045
800 2 0.0797125 0.254637 0.967829
801 2 0.47113 0.0629901 0.513036
802 2 0.393987 0.607793 0.446883
803 2 0.930932 0.49817 0.991787
804 2 0.381472 0.0293564 0.127271
805 2 0.719448 0.146591 0.0892199
806 2 0.534435 0.263863 0.241427
807 2 0.124123 0.310214 0.277617
808 2 0.850001 0.338375 0.0459438
809 2 0.992763 0.145407 0.514974
810 2 0.142346 0.60171 0.301559
811 2 0.184849 0.311261 0.990521
812 2 0.206677 0.18352 0.0818818
813 2 0.76011 0.184917 0.199267
814 2 0.247995 0.192779 0.255478
815 2 0.134542 0.996131 0.312753
816 2 0.564083 0.157512 0.842017
817 2 0.370896 0.468716 0.927821
818 2 0.503411 0.394983 0.441888
819 2 0.0582055 0.999432 0.544221
820 2 0.554351 0.616621 0.103052
821 2 0.1755 0.130793 0.207767
822 2 0.235114 0.462383 0.980078
823 2 0.377678 0.71282 0.556497
824 2 0.301166 0.940144 0.11963
825 2 0.272535 0.177355 0.772269
826 2 0.254296 0.237669 0.153212
827 2 0.450411 0.261806 0.204639
828 2 0.317559 0.723622 0.174093
829 2 0.152889 0.259838 0.127173
830 2 0.892753 0.540297 0.472964
831 2 0.17011 0.194788 0.305197
832 2 0.874064 0.13151 0.68196
833 2 0.444127 0.157072 0.68382
834 2 0.932025 0.190195 0.101213
835 2 0.0338224 0.345813 0.199106
836 2 0.504991 0.171988 0.140195
837 2 0.0418936 0.971855 0.0586036
838 2 0.300108 0.468637 0.978927
839 2 0.940989 0.876327 0.0673019
840 2 0.202573 0.0937147 0.109822
841 2 0.240752 0.289022 0.11985
842 2 0.190252 0.165444 0.197356
843 2 0.0788954 0.588806 0.499039
844 2 0.302467 0.288363 0.110763
845 2 0.916732 0.909062 0.635474
846 2 0.360725 0.340242 0.242107
847 2 0.521507 0.268336 0.448658
848 2 0.233043 0.120861 0.828206
849 2 0.302125 0.365618 0.239211
850 2 0.32318 0.122764 0.29449
851 2 0.697801 0.31634 0.779326
852 2 0.968429 0.0482827 0.260513
853 2 0.249393 0.445864 0.76847
854 2 0.322062 0.24165 0.715521
855 2 0.201703 0.00561251 0.284995
856 2 0.289955 0.996179 0.925026
857 2 0.720017 0.0427753 0.0381638
858 2 0.181942 0.152197 0.752657
859 2 0.88458 0.372174 0.0854516
860 2 0.588158 0.230433 0.621518
861 2 0.260151 0.175163 0.644155
862 2 0.140005 0.448579 0.0997833
863 2 0.547802 0.303306 0.538581
864 2 0.617891 0.189125 0.137769
865 2 0.0531471 0.801845 0.725875
866 2 0.285527 0.121898 0.805188
867 2 0.336498 0.4069 0.717767
868 2 0.17604 0.89604 0.265167
869 2 0.979491 0.975263 0.103861
870 2 0.123044 0.443468 0.267592
871 2 0.951406 0.602666 0.72042
872 2 0.555491 0.0865468 0.950848
873 2 0.903245 0.487884 0.154728
874 2 0.190907 0.612401 0.133368
875 2 0.35813 0.824239 0.0460089
876 2 0.116538 0.331626 0.18748
877 2 0.0669203 0.656233 0.200847
878 2 0.954413 0.955248 0.498646
879 2 0.11518 0.386172 0.0742721
880 2 0.0119717 0.24266 0.0227633
881 2 0.0478253 0.353963 0.642728
882 2 0.578093 0.942495 0.157171
883 2 0.72082 0.0691483 0.54007
884 2 0.991501 0.29613 0.2046
885 2 0.16743 0.96061 0.846077
886 2 0.202339 0.252081 0.519496
887 2 0.655311 0.933364 0.534858
888 2 0.19025 0.956998 0.0262895
889 2 0.00517135 0.231935 0.973142
890 2 0.449784 0.138652 0.29776
891 2 0.252721 0.403309 0.236755
892 2 0.170448 0.980136 0.232456
893 2 0.13278 0.0347562 0.231585
894 2 0.3152 0.563406 0.524833
895 2 0.139205 0.254481 0.703906
896 2 0.972556 0.933928 0.642161
897 2 0.376434 0.474746 0.1494
898 2 0.229865 0.433704 0.242275
899 2 0.44985 0.355701 0.462525
900 2 0.473071 0.872166 0.572213
901 2 0.252061 0.54221 0.233646
902 2 0.0322712 0.246209 0.994662
903 2 0.567082 0.217318 0.267383