ITEM: TIMESTEP
136576
ITEM: NUMBER OF ATOMS
11500
ITEM: BOX BOUNDS pp pp pp
-8.6300903276122909e-01 5.8784192638935721e+01
-8.6300903276122909e-01 5.8784192638935721e+01
-8.6300903276122909e-01 6.1842213311603750e+01
ITEM: ATOMS id type xs ys zs
1 2 0.362841 0.38139 0.28039
2 2 0.17174 0.0347833 0.270899
3 2 0.169871 0.0529759 0.211379
4 2 0.530189 0.139813 0.204038
5 2 0.0400517 0.477759 0.00421574
6 2 0.663187 0.201777 0.116161
7 2 0.301576 0.425971 0.654197
8 2 0.284476 0.188014 0.446657
9 2 0.439357 0.205369 0.0492801
10 2 0.828778 0.0864938 0.176122
11 2 0.279234 0.863422 0.786209
12 2 0.336372 0.843486 0.252352
13 2 0.468355 0.0688884 0.572254
14 2 0.249218 0.316704 0.0706967
15 2 0.249627 0.40892 0.426464
16 2 0.297439 0.179823 0.107645
17 2 0.700703 0.185314 0.618517
18 2 0.130788 0.125659 0.168356
19 2 0.294602 0.991018 0.481841
20 2 0.0947764 0.230528 0.867008
21 2 0.424372 0.945869 0.554834
22 2 0.341806 0.102963 0.0429
23 2 0.317985 0.221088 0.81757
24 2 0.187449 0.675065 0.35788
25 2 0.669166 0.930867 0.122263
26 2 0.4818 0.645143 0.123862
27 2 0.0608561 0.856671 0.400048
28 2 0.19545 0.553676 0.35371
29 2 0.217052 0.576346 0.740467
30 2 0.247856 0.910713 0.432412
31 2 0.718998 0.901325 0.141499
32 2 0.366698 0.278922 0.987904
33 2 0.36698 0.391753 0.0738508
34 2 0.380348 0.320996 0.245092
35 2 0.0774603 0.405719 0.0459107
36 2 0.325091 0.43588 0.952324
37 2 0.246958 0.988567 0.251946
38 2 0.576619 0.57061 0.350975
39 2 0.281924 0.806803 0.819769
40 2 0.306382 0.313048 0.465083
41 2 0.180692 0.221215 0.595298
42 2 0.0183867 0.0236478 0.572903
43 2 0.245324 0.152315 0.184349
44 2 0.573297 0.966629 0.493047
45 2 0.296558 0.237394 0.882537
46 2 0.997685 0.794874 0.90225
47 2 0.38607 0.421003 0.168539
48 2 0.429348 0.209934 0.522446
49 2 0.898988 0.917465 0.124491
50 2 0.876941 0.626091 0.122551
51 2 0.294971 0.323668 0.376438
52 2 0.370917 0.108739 0.979613
53 2 0.153452 0.280852 0.255539
54 2 0.266044 0.415461 0.605715
55 2 0.0371996 0.351023 0.652814
56 2 0.504956 0.0836403 0.351949
57 2 0.380517 0.241621 0.0352269
58 2 0.180638 0.341837 0.387652
59 2 0.253948 0.128338 0.0250076
60 2 0.295196 0.349078 0.285069
61 2 0.51584 0.236347 0.128006
62 2 0.856857 0.0686168 0.785126
63 2 0.0690475 0.0278285 0.36097
64 2 0.222825 0.355181 0.316989
65 2 0.224881 0.230351 0.964079
66 2 0.0406372 0.586282 0.564228
67 2 0.290334 0.221641 0.55967
68 2 0.0863322 0.763606 0.103889
69 2 0.0108461 0.100809 0.0106063
70 2 0.301199 0.38624 0.298384
71 2 0.0225503 0.460067 0.452192
72 2 0.16543 0.815333 0.27503
73 2 0.116917 0.117837 0.0184127
74 2 0.168063 0.898995 0.446865
75 2 0.326785 0.972893 0.982246
76 2 0.0344024 0.805761 0.63731
77 2 0.146443 0.784553 0.537925
78 2 0.298834 0.111574 0.491125
79 2 0.388173 0.73787 0.243143
80 2 0.014722 0.151129 0.396703
81 2 0.168971 0.363239 0.445512
82 2 0.129522 0.468538 0.435139
83 2 0.00978056 0.96241 0.146146
84 2 0.551901 0.341403 0.294093
85 2 0.836071 0.857255 0.940897
86 2 0.352529 0.641538 0.692855
87 2 0.360621 0.144611 0.964279
88 2 0.983626 0.157619 0.568518
89 2 0.174974 0.0582679 0.911406
90 2 0.559753 0.0823524 0.431622
91 2 0.787932 0.37803 0.0381709
92 2 0.224533 0.351398 0.427482
93 2 0.347907 0.245318 0.590559
94 2 0.381475 0.343513 0.0371314
95 2 0.185527 0.236859 0.307068
96 2 0.611319 0.0635742 0.338422
97 2 0.0884605 0.114681 0.113936
98 2 0.28961 0.279543 0.476873
99 2 0.223151 0.261486 0.654682
100 2 0.30337 0.331521 0.319321
101 2 0.106417 0.946856 0.555876
102 2 0.00651688 0.65861 0.330476
103 2 0.386041 0.986287 0.0877567
104 2 0.140971 0.128649 0.298176
105 2 0.217961 0.472675 0.257201
106 2 0.379838 0.0249587 0.321521
107 2 0.255925 0.279904 0.279657
108 2 0.295831 0.185899 0.484279
109 2 0.12672 0.281787 0.158369
110 2 0.0930129 0.37908 0.125811
111 2 0.709208 0.425933 0.355573
112 2 0.0883538 0.347609 0.336135
113 2 0.0203466 0.189113 0.186106
114 2 0.00633536 0.268484 0.458566
115 2 0.542015 0.924718 0.93117
116 2 0.529601 0.654263 0.347825
117 2 0.221265 0.146811 0.319182
118 2 0.0563491 0.218995 0.246358
119 2 0.264685 0.243477 0.22626
120 2 0.405764 0.686201 0.436443
121 2 0.978724 0.522486 0.609535
122 2 0.077859 0.285297 0.202116
123 2 0.988835 0.693595 0.556117
124 2 0.181822 0.137712 0.486701
125 2 0.484348 0.692378 0.322361
126 2 0.89154 0.424195 0.354379
127 2 0.12421 0.769631 0.927703
128 2 0.925345 0.219431 0.2791
129 2 0.429732 0.187538 0.919359
130 2 0.268363 0.0798762 0.331157
131 2 0.147242 0.148951 0.851566
132 2 0.338771 0.00470716 0.0348459
133 2 0.731788 0.311482 0.375939
134 2 0.785306 0.690281 0.595025
135 2 0.299488 0.410865 0.269012
136 2 0.489561 0.0541302 0.906066
137 2 0.366171 0.185111 0.254555
138 2 0.291168 0.689664 0.411705
139 2 0.0243616 0.914717 0.389909
140 2 0.129152 0.352579 0.919137
141 2 0.0824196 0.100389 0.332869
142 2 0.257543 0.304752 0.218874
143 2 0.318208 0.272944 0.306878
144 2 0.255209 0.284827 0.421932
145 2 0.386104 0.30445 0.587258
146 2 0.00296843 0.558824 0.676522
147 2 0.998808 0.013244 0.667248
148 2 0.341845 0.0796492 0.24625
149 2 0.284533 0.371729 0.505226
150 2 0.0508169 0.352266 0.493969
151 2 0.0149207 0.277748 0.16337
152 2 0.401389 0.762261 0.583325
153 2 0.0716985 0.0413901 0.592466
154 2 0.125203 0.169607 0.385369
155 2 0.379499 0.179745 0.559369
156 2 0.208421 0.171439 0.186591
157 2 0.776288 0.136648 0.0532758
158 2 0.503426 0.19518 0.322139
159 2 0.222046 0.0914782 0.448739
160 2 0.787628 0.338733 0.53002
161 2 0.873447 0.181281 0.264119
162 2 0.499239 0.1553 0.038875
163 2 0.282762 0.230132 0.294287
164 2 0.594238 0.227554 0.197211
165 2 0.253429 0.479012 0.593377
166 2 0.35749 0.181284 0.0743922
167 2 0.142221 0.156725 0.78669
168 2 0.981697 0.410287 0.665254
169 2 0.351031 0.424214 0.694862
170 2 0.206718 0.0622059 0.337534
171 2 0.0911806 0.160726 0.234124
172 2 0.246151 0.343516 0.459238
173 2 0.258811 0.430481 0.373136
174 2 0.468645 0.0949438 0.12943
175 2 0.0388026 0.419292 0.202722
176 2 0.394676 0.295428 0.299222
177 2 0.43958 0.39847 0.977789
178 2 0.315678 0.132715 0.170548
179 2 0.0422101 0.42047 0.884531
180 2 0.169417 0.112351 0.366366
181 2 0.294006 0.358177 0.574449
182 2 0.21648 0.226314 0.000902021
183 2 0.57527 0.499598 0.536736
184 2 0.9586 0.196439 0.209768
185 2 0.249721 0.413429 0.0260933
186 2 0.179543 0.135568 0.951488
187 2 0.935879 0.0612205 0.209089
188 2 0.0792561 0.405981 0.301597
189 2 0.191843 0.0734262 0.64153
190 2 0.161329 0.344962 0.151035
191 2 0.0511001 0.440603 0.351501
192 2 0.254494 0.113078 0.450247
193 2 0.970334 0.0738559 0.736351
194 2 0.282413 0.524748 0.25346
195 2 0.485741 0.216609 0.437551
196 2 0.475801 0.854599 0.405399
197 2 0.0596025 0.0830928 0.172404
198 2 0.915656 0.207066 0.452348
199 2 0.252509 0.574153 0.939593
200 2 0.384606 0.3856 0.429038
201 2 0.264621 0.137895 0.0623352
202 2 0.142763 0.232725 0.667713
203 2 0.0994844 0.48303 0.338709
204 2 0.515913 0.0609526 0.107247
205 2 0.488061 0.192496 0.381719
206 2 0.0297571 0.271853 0.103435
207 2 0.206239 0.113094 0.204649
208 2 0.680663 0.861344 0.100648
209 2 0.908657 0.571804 0.521082
210 2 0.123677 0.108313 0.20332
211 2 0.510878 0.973167 0.185574
212 2 0.93165 0.874907 0.382801
213 2 0.95361 0.00498493 0.35747
214 2 0.416202 0.963518 0.703969
215 2 0.290435 0.195901 0.16833
216 2 0.90471 0.71292 0.410654
217 2 0.0962673 0.216931 0.148411
218 2 0.0994775 0.415249 0.332828
219 2 0.957923 0.0471283 0.588554
220 2 0.95394 0.399912 0.170447
221 2 0.337595 0.277461 0.142293
222 2 0.0944482 0.259545 0.039618
223 2 0.206521 0.639823 0.72588
224 2 0.192049 0.888751 0.825789
225 2 0.803292 0.497262 0.541056
226 2 0.612436 0.210042 0.686041
227 2 0.423071 0.985883 0.338389
228 2 0.229465 0.28353 0.0716159
229 2 0.332063 0.142809 0.43983
230 2 0.341576 0.252657 0.284698
231 2 0.24496 0.547247 0.308321
232 2 0.969528 0.78094 0.975585
233 2 0.0759091 0.99594 0.149853
234 2 0.264123 0.915094 0.399049
235 2 0.185572 0.989627 0.109028
236 2 0.218396 0.865807 0.20165
237 2 0.0329612 0.912383 0.325129
238 2 0.226884 0.164498 0.984714
239 2 0.990094 0.110163 0.12115
240 2 0.904519 0.158237 0.402108
241 2 0.378116 0.286943 0.40839
242 2 0.00823729 0.44314 0.928051
243 2 0.397605 0.937384 0.270569
244 2 0.12092 0.169723 0.210256
245 2 0.346903 0.746079 0.914569
246 2 0.801391 0.386285 0.677099
247 2 0.969925 0.258156 0.447299
248 2 0.295428 0.235993 0.174033
249 2 0.424145 0.765171 0.293477
250 2 0.254822 0.174275 0.368475
251 2 0.518984 0.584269 0.965727
252 2 0.148511 0.746176 0.860127
253 2 0.156578 0.595474 0.331316
254 2 0.120597 0.185187 0.149597
255 2 0.41617 0.220606 0.264279
256 2 0.559246 0.0613039 0.0139305
257 2 0.406863 0.367374 0.37142
258 2 0.497222 0.0728745 0.795736
259 2 0.382304 0.551717 0.265692
260 2 0.364516 0.124611 0.278967
261 2 0.0407946 0.51203 0.986179
262 2 0.279445 0.295764 0.0104751
263 2 0.602902 0.0777147 0.0679522
264 2 0.11921 0.176736 0.851681
265 2 0.363633 0.0843659 0.277178
266 2 0.129229 0.516855 0.301177
267 2 0.937184 0.503784 0.0685669
268 2 0.205792 0.282056 0.968934
269 2 0.245037 0.394186 0.550192
270 2 0.227317 0.17094 0.903398
271 2 0.0818522 0.275748 0.26993
272 2 0.931753 0.246924 0.250825
273 2 0.600827 0.353433 0.16046
274 2 0.272677 0.179643 0.265929
275 2 0.357307 0.146637 0.247806
276 2 0.620244 0.60987 0.312348
277 2 0.648923 0.894905 0.353564
278 2 0.566221 0.17195 0.0350825
279 2 0.197829 0.396781 0.980912
280 2 0.0469483 0.128832 0.289808
281 2 0.0662432 0.149404 0.0457796
282 2 0.26304 0.749925 0.159793
283 2 0.429745 0.0346622 0.148169
284 2 0.268781 0.394932 0.320099
285 2 0.381299 0.132293 0.159942
286 2 0.93627 0.891286 0.506234
287 2 0.289751 0.245011 0.108863
288 2 0.683815 0.0951711 0.178917
289 2 0.822405 0.373264 0.181932
290 2 0.115056 0.753128 0.430419
291 2 0.0616794 0.797657 0.567948
292 2 0.429898 0.122641 0.184652
293 2 0.0828179 0.934026 0.979867
294 2 0.309212 0.207702 0.639777
295 2 0.176739 0.394269 0.275011
296 2 0.0921835 0.339742 0.299337
297 2 0.143768 0.356941 0.389898
298 2 0.174996 0.783763 0.418786
299 2 0.880032 0.364027 0.405941
300 2 0.15561 0.433656 0.584258
301 2 0.240465 0.410839 0.104754
302 2 0.155864 0.00437959 0.00582061
303 2 0.250676 0.238094 0.106971
304 2 0.101522 0.794065 0.331752
305 2 0.241131 0.208777 0.130733
306 2 0.395098 0.330226 0.361509
307 2 0.810952 0.605705 0.668992
308 2 0.480194 0.794383 0.602097
309 2 0.906273 0.353341 0.11032
310 2 0.287633 0.109509 0.931464
311 2 0.249866 0.451721 0.900722
312 2 0.959921 0.0569321 0.393638
313 2 0.154149 0.751333 0.128193
314 2 0.342993 0.0305337 0.308796
315 2 0.689856 0.948792 0.382247
316 2 0.546936 0.747924 0.102401
317 2 0.430514 0.031321 0.636025
318 2 0.138081 0.57021 0.168827
319 2 0.143445 0.481244 0.493561
320 2 0.584974 0.397411 0.277079
321 2 0.197882 0.500835 0.324607
322 2 0.508365 0.877454 0.405175
323 2 0.494557 0.089048 0.416271
324 2 0.463198 0.129084 0.345572
325 2 0.399674 0.34241 0.941597
326 2 0.803098 0.455346 0.375755
327 2 0.181731 0.367482 6.74181e-05
328 2 0.146836 0.308957 0.137209
329 2 0.0335306 0.331867 0.960001
330 2 0.179666 0.564701 0.742041
331 2 0.263742 0.345753 0.137954
332 2 0.335923 0.673989 0.938384
333 2 0.443822 0.353273 0.594604
334 2 0.971837 0.08524 0.869645
335 2 0.337535 0.288804 0.104295
336 2 0.259984 0.342118 0.630539
337 2 0.205053 0.645544 0.545304
338 2 0.308519 0.983484 0.185706
339 2 0.313892 0.440908 0.345833
340 2 0.24069 0.999516 0.546819
341 2 0.0694084 0.289814 0.99448
342 2 0.867564 0.287461 0.0200866
343 2 0.0925471 0.271205 0.867638
344 2 0.259341 0.34618 0.266212
345 2 0.515847 0.201874 0.250554
346 2 0.50086 0.755734 0.388044
347 2 0.61805 0.229743 0.916238
348 2 0.241159 0.270004 0.207114
349 2 0.464213 0.718794 0.245008
350 2 0.652319 0.149119 0.590164
351 2 0.0154186 0.209979 0.0799726
352 2 0.00278749 0.863746 0.49203
353 2 0.472233 0.594891 0.399677
354 2 0.387225 0.0454416 0.382529
355 2 0.0491971 0.345036 0.245538
356 2 0.304136 0.514148 0.428623
357 2 0.222593 0.732768 0.239562
358 2 0.104861 0.65263 0.621094
359 2 0.2308 0.554933 0.0658025
360 2 0.237258 0.505387 0.949823
361 2 0.269899 0.141882 0.274815
362 2 0.233225 0.702843 0.529567
363 2 0.988888 0.879519 0.786168
364 2 0.0265198 0.853658 0.334343
365 2 0.156703 0.0583863 0.390522
366 2 0.410583 0.189635 0.494779
367 2 0.309636 0.765764 0.302288
368 2 0.0286247 0.262317 0.891485
369 2 0.302125 0.398216 0.136759
370 2 0.973742 0.838302 0.35784
371 2 0.340054 0.725467 0.341692
372 2 0.237576 0.0642177 0.837588
373 2 0.999496 0.0249166 0.273587
374 2 0.499224 0.0124169 0.468251
375 2 0.419844 0.324091 0.235997
376 2 0.166419 0.0988044 0.25434
377 2 0.153477 0.993805 0.432119
378 2 0.990084 0.210699 0.0034897
379 2 0.872427 0.146984 0.177167
380 2 0.58549 0.169419 0.113583
381 2 0.40471 0.612786 0.0645684
382 2 0.394173 0.874902 0.73222
383 2 0.0109502 0.299318 0.0540668
384 2 0.53897 0.224697 0.275497
385 2 0.192053 0.273451 0.251699
386 2 0.647439 0.0388411 0.162457
387 2 0.19739 0.113897 0.166874
388 2 0.619717 0.269984 0.371781
389 2 0.471766 0.00845785 0.411024
390 2 0.932563 0.365878 0.058078
391 2 0.226315 0.305646 0.376007
392 2 0.1171 0.201425 0.0418967
393 2 0.413052 0.535318 0.500549
394 2 0.0904727 0.0275274 0.196909
395 2 0.390904 0.402406 0.464439
396 2 0.199869 0.260882 0.507658
397 2 0.946275 0.76666 0.415073
398 2 0.319545 0.462758 0.876907
399 2 0.295147 0.0218506 0.270733
400 2 0.218682 0.286385 0.717226
401 2 0.244294 0.209588 0.382763
402 2 0.164336 0.391868 0.850451
403 2 0.336246 0.774475 0.229108
404 2 0.437937 0.985598 0.460544
405 2 0.105758 0.247346 0.351574
406 2 0.949871 0.0713804 0.526063
407 2 0.0532624 0.480125 0.407063
408 2 0.394563 0.17488 0.127663
409 2 0.286623 0.0209542 0.848505
410 2 0.120123 0.997833 0.592837
411 2 0.527043 0.964235 0.151573
412 2 0.949494 0.12767 0.227833
413 2 0.52734 0.144266 0.35258
414 2 0.0630867 0.371205 0.729817
415 2 0.630973 0.753317 0.290429
416 2 0.535515 0.690185 0.41269
417 2 0.340718 0.0697528 0.30645
418 2 0.396516 0.201134 0.155914
419 2 0.564238 0.881571 0.443058
420 2 0.874122 0.45206 0.119538
421 2 0.0429873 0.864245 0.197997
422 2 0.130243 0.500131 0.592135
423 2 0.0913667 0.794877 0.828943
424 2 0.988355 0.992537 0.255322
425 2 0.306921 0.0542308 0.150552
426 2 0.260843 0.797572 0.487747
427 2 0.375498 0.403283 0.565321
428 2 0.0666484 0.304441 0.0532308
429 2 0.0890658 0.27227 0.109432
430 2 0.117538 0.425362 0.0139529
431 2 0.282006 0.442402 0.518353
432 2 0.637079 0.975788 0.514731
433 2 0.431324 0.121152 0.445849
434 2 0.110212 0.336397 0.188397
435 2 0.206938 0.129557 0.855909
436 2 0.312135 0.645348 0.191819
437 2 0.28812 0.0108678 0.204899
438 2 0.827367 0.59027 0.20102
439 2 0.80849 0.10157 0.314812
440 2 0.435214 0.0893833 0.00211216
441 2 0.414022 0.353412 0.165419
442 2 0.213252 0.548822 0.0297245
443 2 0.53435 0.217634 0.0702328
444 2 0.313189 0.518687 0.648632
445 2 0.242815 0.31245 0.701335
446 2 0.17262 0.217695 0.736638
447 2 0.114529 0.254785 0.919114
448 2 0.411605 0.0769889 0.210428
449 2 0.309348 0.301961 0.635731
450 2 0.109922 0.941583 0.40699
451 2 0.84791 0.41492 0.487289
452 2 0.30916 0.172252 0.622962
453 2 0.397145 0.456351 0.430641
454 2 0.0527025 0.326975 0.416724
455 2 0.150931 0.621779 0.199509
456 2 0.800051 0.612226 0.218644
457 2 0.0964622 0.976079 0.932861
458 2 0.332952 0.243093 0.898085
459 2 0.347263 0.10179 0.213942
460 2 0.403805 0.252489 0.64639
461 2 0.304866 0.196833 0.701672
462 2 0.601342 0.255626 0.267998
463 2 0.255046 0.381204 0.0500517
464 2 0.464812 0.364927 0.214886
465 2 0.329904 0.435073 0.261574
466 2 0.986898 0.328485 0.189151
467 2 0.417047 0.873916 0.366781
468 2 0.0758004 0.87084 0.460499
469 2 0.349799 0.180845 0.186406
470 2 0.780832 0.199005 0.305459
471 2 0.997677 0.0753496 0.226059
472 2 0.508902 0.358976 0.484123
473 2 0.109517 0.386575 0.28045
474 2 0.132656 0.318875 0.899458
475 2 0.376246 0.673981 0.316682
476 2 0.143914 0.251404 0.437911
477 2 0.704023 0.117923 0.815258
478 2 0.436145 0.328851 0.939348
479 2 0.105933 0.144241 0.0950709
480 2 0.0280064 0.941856 0.626113
481 2 0.231953 0.256792 0.557304
482 2 0.278301 0.184611 0.33772
483 2 0.246025 0.142271 0.425834
484 2 0.593168 0.019189 0.854882
485 2 0.534133 0.969041 0.425292
486 2 0.0331277 0.352457 0.305608
487 2 0.456514 0.489801 0.28089
488 2 0.381252 0.144609 0.542976
489 2 0.162798 0.317101 0.625941
490 2 0.276469 0.0532244 0.969018
491 2 0.169999 0.218728 0.240936
492 2 0.983428 0.0628955 0.42483
493 2 0.951436 0.544932 0.22
494 2 0.288672 0.560767 0.0874313
495 2 0.0648458 0.437826 0.179617
496 2 0.875848 0.757297 0.898948
497 2 0.704212 0.317456 0.0945596
498 2 0.457437 0.690684 0.55728
499 2 0.989031 0.33189 0.0112877
500 2 0.707134 0.0345152 0.373492
501 2 0.343141 0.320064 0.931144
502 2 0.72035 0.488116 0.119437
503 2 0.517466 0.122331 0.461037
504 2 0.447169 0.480632 0.490763
505 2 0.328579 0.266641 0.99081
506 2 0.187646 0.437093 0.117565
507 2 0.187383 0.403116 0.137382
508 2 0.0768673 0.0558169 0.120711
509 2 0.741834 0.53392 0.440794
510 2 0.153721 0.134105 0.0208102
511 2 0.362132 0.477037 0.187666
512 2 0.825197 0.369612 0.733553
513 2 0.702636 0.358424 0.347141
514 2 0.349192 0.0897539 0.00545241
515 2 0.939946 0.296334 0.489279
516 2 0.586838 0.308033 0.974569
517 2 0.272313 0.152109 0.397598
518 2 0.0156861 0.103448 0.329692
519 2 0.239524 0.163607 0.482127
520 2 0.853887 0.416838 0.984649
521 2 0.956629 0.434411 0.683587
522 2 0.805385 0.29038 0.298649
523 2 0.902275 0.683597 0.353351
524 2 0.198343 0.442627 0.346935
525 2 0.469647 0.549681 0.238367
526 2 0.19107 0.283283 0.0584422
527 2 0.502107 0.267554 0.648541
528 2 0.972314 0.437025 0.970973
529 2 0.486523 0.326575 0.260366
530 2 0.0138117 0.510879 0.0724636
531 2 0.242676 0.704008 0.764932
532 2 0.175673 0.301285 0.329052
533 2 0.151158 0.1953 0.0637822
534 2 0.275814 0.2275 0.445717
535 2 0.318521 0.14376 0.238973
536 2 0.0824416 0.638713 0.393281
537 2 0.831933 0.277756 0.171266
538 2 0.739599 0.959736 0.131151
539 2 0.0754666 0.153991 0.298269
540 2 0.331739 0.134236 0.298367
541 2 0.314815 0.709486 0.865334
542 2 0.976506 0.419073 0.0557423
543 2 0.127063 0.314858 0.729193
544 2 0.500391 0.700434 0.243608
545 2 0.375207 0.57788 0.829489
546 2 0.330741 0.883495 0.24962
547 2 0.188933 0.0101124 0.379904
548 2 0.328057 0.0328816 0.0112997
549 2 0.0942099 0.161707 0.878017
550 2 0.339522 0.16304 0.364543
551 2 0.0384086 0.175143 0.0325134
552 2 0.0385755 0.064983 0.116655
553 2 0.132393 0.121868 0.697753
554 2 0.510537 0.263581 0.386723
555 2 0.416893 0.39101 0.889739
556 2 0.285002 0.234806 0.522945
557 2 0.0847965 0.332825 0.587331
558 2 0.2423 0.402017 0.291328
559 2 0.951696 0.323768 0.628418
560 2 0.342739 0.977483 0.453462
561 2 0.595311 0.905158 0.619626
562 2 0.440236 0.411115 0.335926
563 2 0.337933 0.0885799 0.374763
564 2 0.163875 0.415636 0.405802
565 2 0.357246 0.428177 0.61289
566 2 0.608952 0.944278 0.66437
567 2 0.0730363 0.0159174 0.433011
568 2 0.739225 0.148391 0.401473
569 2 0.0414468 0.391388 0.307324
570 2 0.544325 0.261746 0.219197
571 2 0.840293 0.266491 0.23742
572 2 0.843545 0.566432 0.478702
573 2 0.322507 0.370143 0.491379
574 2 0.0465318 0.536572 0.225238
575 2 0.307026 0.636367 0.44653
576 2 0.366148 0.641271 0.237333
577 2 0.159845 0.494226 0.312056
578 2 0.419551 0.380442 0.516861
579 2 0.320191 0.853067 0.614959
580 2 0.639026 0.90615 0.120163
581 2 0.385074 0.995934 0.970108
582 2 0.40258 0.240447 0.567142
583 2 0.374523 0.394681 0.602022
584 2 0.511517 0.983399 0.261697
585 2 0.0585774 0.182444 0.229114
586 2 0.252373 0.292184 0.347199
587 2 0.396538 0.200647 0.9833
588 2 0.0476715 0.573196 0.976742
589 2 0.976494 0.247006 0.922707
590 2 0.13052 0.829399 0.458788
591 2 0.477499 0.0159842 0.082108
592 2 0.37376 0.516474 0.829562
593 2 0.465144 0.192004 0.528285
594 2 0.0658309 0.24871 0.191768
595 2 0.254324 0.950521 0.633666
596 2 0.469314 0.203301 0.566446
597 2 0.296856 0.427649 0.458807
598 2 0.397977 0.986964 0.905753
599 2 0.828958 0.719023 0.178665
600 2 0.462757 0.205035 0.209145
601 2 0.375938 0.965136 0.212175
602 2 0.432825 0.183354 0.462159
603 2 0.290142 0.438732 0.977665
604 2 0.410425 0.387735 0.121373
605 2 0.146215 0.319472 0.260142
606 2 0.709218 0.036767 0.884789
607 2 0.399782 0.117894 0.0467404
608 2 0.150789 0.0683591 0.275737
609 2 0.311869 0.120091 0.207264
610 2 0.930454 0.0361318 0.177838
611 2 0.0140747 0.222841 0.4186
612 2 0.159674 0.569136 0.0530602
613 2 0.144847 0.258332 0.355445
614 2 0.809857 0.660302 0.985149
615 2 0.16461 0.185572 0.907423
616 2 0.463708 0.241813 0.576728
617 2 0.314656 0.49436 0.553709
618 2 0.647584 0.681818 0.468263
619 2 0.277739 0.253166 0.416254
620 2 0.216682 0.156998 0.24582
621 2 0.185988 0.19983 0.0448857
622 2 0.290539 0.556283 0.193143
623 2 0.189291 0.16269 0.271625
624 2 0.955094 0.941757 0.23172
625 2 0.782303 0.279423 0.407371
626 2 0.939946 0.984299 0.296206
627 2 0.182037 0.81852 0.996917
628 2 0.393084 0.332209 0.136936
629 2 0.598482 0.791204 0.535027
630 2 0.0144246 0.94204 0.416214
631 2 0.165629 0.0908091 0.811418
632 2 0.385983 0.596727 0.0348792
633 2 0.182878 0.0928819 0.330778
634 2 0.995241 0.489876 0.62705
635 2 0.24251 0.12677 0.251108
636 2 0.421772 0.969124 0.272159
637 2 0.736882 0.235129 0.504246
638 2 0.21767 0.143218 0.0158769
639 2 0.136305 0.580539 0.830906
640 2 0.218401 0.886667 0.0496982
641 2 0.305603 0.126639 0.271048
642 2 0.317775 0.181909 0.338208
643 2 0.121814 0.680784 0.364796
644 2 0.219791 0.229672 0.494353
645 2 0.780252 0.480279 0.426196
646 2 0.36422 0.441896 0.561346
647 2 0.211637 0.227778 0.437182
648 2 0.968205 0.488149 0.190015
649 2 0.453208 0.0492588 0.461497
650 2 0.481678 0.38927 0.109398
651 2 0.249224 0.207998 0.216006
652 2 0.949747 0.722095 0.0415248
653 2 0.172462 0.936337 0.0769507
654 2 0.113178 0.933693 0.00637454
655 2 0.88248 0.352145 0.707044
656 2 0.274603 0.430504 0.338275
657 2 0.21099 0.399404 0.228764
658 2 0.18552 0.551666 0.804693
659 2 0.380091 0.155975 0.189739
660 2 0.201451 0.340398 0.154294
661 2 0.298851 0.246351 0.327431
662 2 0.696323 0.61653 0.424512
663 2 0.191856 0.11861 0.45212
664 2 0.37469 0.314607 0.828468
665 2 0.342613 0.948362 0.057336
666 2 0.87155 0.015036 0.185848
667 2 0.311031 0.556359 0.476475
668 2 0.0684312 0.954993 0.5463
669 2 0.312491 0.0809944 0.0581434
670 2 0.465646 0.269055 0.182238
671 2 0.989704 0.173815 0.127945
672 2 0.512235 0.230904 0.167507
673 2 0.080602 0.23585 0.272877
674 2 0.202774 0.478862 0.480774
675 2 0.112172 0.682482 0.710139
676 2 0.028545 0.672868 0.260095
677 2 0.470669 0.622488 0.456667
678 2 0.322947 0.120856 0.332564
679 2 0.582675 0.828427 0.352786
680 2 0.0401159 0.0158861 0.159032
681 2 0.061365 0.382904 0.468955
682 2 0.147133 0.201479 0.174243
683 2 0.611641 0.652454 0.0935079
684 2 0.262264 0.597827 0.132585
685 2 0.0802965 0.193079 0.980585
686 2 0.852872 0.226715 0.549589
687 2 0.264121 0.682826 0.265046
688 2 0.511557 0.514833 0.426653
689 2 0.386127 0.973034 0.93936
690 2 0.591995 0.406077 0.448773
691 2 0.600434 0.656472 0.15078
692 2 0.0970123 0.382131 0.355543
693 2 0.508428 0.363267 0.967326
694 2 0.1719 0.799608 0.0283457
695 2 0.580741 0.178928 0.569017
696 2 0.592002 0.373923 0.220278
697 2 0.366585 0.312736 0.381574
698 2 0.267317 0.879464 0.288467
699 2 0.770926 0.156773 0.214394
700 2 0.367599 0.272232 0.16923
701 2 0.312074 0.798799 0.428755
702 2 0.387295 0.298155 0.76651
703 2 0.182621 0.117564 0.520822
704 2 0.154501 0.155927 0.226742
705 2 0.315617 0.297558 0.250191
706 2 0.504254 0.110005 0.729138
707 2 0.223961 0.227175 0.160415
708 2 0.254582 0.361499 0.339079
709 2 0.356291 0.961753 0.78914
710 2 0.0963815 0.494714 0.300863
711 2 0.487142 0.102144 0.162251
712 2 0.502507 0.190647 0.981271
713 2 0.853408 0.60988 0.595032
714 2 0.0512482 0.6022 0.34288
715 2 0.251308 0.783119 0.270981
716 2 0.483376 0.364214 0.309039
717 2 0.285877 0.07814 0.997557
718 2 0.161985 0.264597 0.321145
719 2 0.976504 0.892329 0.727406
720 2 0.0918947 0.139623 0.331461
721 2 0.166068 0.155034 0.817734
722 2 0.583929 0.244134 0.419165
723 2 0.477291 0.249317 0.123114
724 2 0.31161 0.281013 0.0249851
725 2 0.303854 0.448517 0.206255
726 2 0.361619 0.213172 0.168991
727 2 0.303065 0.356187 0.189192
728 2 0.0340778 0.818845 0.548321
729 2 0.216992 0.385417 0.491517
730 2 0.141636 0.648603 0.226603
731 2 0.546119 0.327597 0.844963
732 2 0.911281 0.261751 0.0615905
733 2 0.514781 0.181487 0.355769
734 2 0.436455 0.380232 0.148301
735 2 0.516164 0.127855 0.0942001
736 2 0.936182 0.0731207 0.122534
737 2 0.879925 0.0769498 0.246945
738 2 0.0104942 0.355174 0.381447
739 2 0.911312 0.335607 0.0151786
740 2 0.342786 0.603313 0.6895
741 2 0.439006 0.160694 0.351852
742 2 0.0299566 0.438371 0.0658085
743 2 0.45963 0.438421 0.248639
744 2 0.174411 0.200715 0.31968
745 2 0.25882 0.0165625 0.177214
746 2 0.0136681 0.352555 0.504835
747 2 0.366634 0.0235922 0.183164
748 2 0.416276 0.23112 0.141029
749 2 0.0916578 0.148082 0.0172576
750 2 0.106023 0.0351417 0.304858
751 2 0.182318 0.292588 0.191969
752 2 0.425022 0.555299 0.722923
753 2 0.977627 0.242694 0.360466
754 2 0.147599 0.570338 0.486147
755 2 0.20376 0.113804 0.304219
756 2 0.237738 0.956616 0.230969
757 2 0.269272 0.133607 0.883031
758 2 0.979032 0.229433 0.15929
759 2 0.0683974 0.541086 0.534717
760 2 0.116201 0.222084 0.265318
761 2 0.43048 0.898776 0.00989466
762 2 0.360016 0.132164 0.413702
763 2 0.415045 0.319402 0.447326
764 2 0.309019 0.925085 0.337752
765 2 0.522908 0.696783 0.542348
766 2 0.995508 0.358986 0.0383552
767 2 0.672787 0.326442 0.16539
768 2 0.398209 0.139089 0.292484
769 2 0.447807 0.393287 0.483902
770 2 0.615709 0.532525 0.161863
771 2 0.160664 0.423145 0.192866
772 2 0.488396 0.0339366 0.174215
773 2 0.259078 0.146591 0.147197
774 2 0.672364 0.216279 0.339131
775 2 0.208143 0.113864 0.89142
776 2 0.286342 0.00416366 0.303689
777 2 0.153639 0.2499 0.0130791
778 2 0.112438 0.332431 0.391072
779 2 0.433897 0.24802 0.329261
780 2 0.338588 0.23557 0.446691
781 2 0.312529 0.246215 0.141494
782 2 0.860517 0.13011 0.0656793
783 2 0.209294 0.470396 0.196468
784 2 0.485396 0.522449 0.0998622
785 2 0.386349 0.125628 0.875143
786 2 0.172579 0.504927 0.0242772
787 2 0.228716 0.8668 0.492228
788 2 0.231417 0.118022 0.36954
789 2 0.0173179 0.152379 0.496411
790 2 0.684729 0.361757 0.37953
791 2 0.226284 0.197734 0.417186
792 2 0.259863 0.12598 0.4865
793 2 0.42662 0.320706 0.298937
794 2 0.199165 0.602083 0.965794
795 2 0.282881 0.128361 0.542847
796 2 0.517113 0.244553 0.529053
797 2 0.276855 0.0622653 0.225335
798 2 0.431615 0.21327 0.401865
799 2 0.316644 0.559575 0.163586
800 2 0.495282 0.0941569 0.10122
801 2 0.303443 0.180173 0.240681
802 2 0.611362 0.479916 0.307775
803 2 0.155387 0.361419 0.328896
804 2 0.120648 0.627669 0.252779
805 2 0.42486 0.343001 0.528832
806 2 0.537318 0.366304 0.123689
807 2 0.539408 0.198874 0.218713
808 2 0.223747 0.0175137 0.239854
809 2 0.0545147 0.139415 0.394087
810 2 0.148601 0.271115 0.188521
811 2 0.0421448 0.689837 0.228291
812 2 0.22139 0.369991 0.527991
813 2 0.875475 0.932692 0.831542
814 2 0.945762 0.172564 0.36218
815 2 0.294763 0.938743 0.275926
816 2 0.157423 0.315449 0.010774
817 2 0.544014 0.00534197 0.25806
818 2 0.995094 0.251779 0.18588
819 2 0.164137 0.908984 0.523001
820 2 0.205258 0.301895 0.159252
821 2 0.686797 0.499617 0.136948
822 2 0.108677 0.317244 0.350744
823 2 0.151147 0.927602 0.798668
824 2 0.644301 0.0838093 0.378632
825 2 0.0829428 0.788905 0.536671
826 2 0.534577 0.763091 0.0308778
827 2 0.131969 0.268798 0.225632
828 2 0.0520979 0.283969 0.324473
829 2 0.378984 0.896902 0.119778
830 2 0.951586 0.391988 0.00555657
831 2 0.00339831 0.546427 0.74499
832 2 0.89501 0.698311 0.73939
833 2 0.943194 0.15526 0.396146
834 2 0.000619178 0.442511 0.381807
835 2 0.440868 0.247245 0.987969
836 2 0.323686 0.220524 0.346996
837 2 0.954965 0.147912 0.168163
838 2 0.323855 0.927194 0.300239
839 2 0.47406 0.13201 0.308114
840 2 0.108164 0.504402 0.983879
841 2 0.226035 0.20518 0.712081
842 2 0.0155822 0.921983 0.0283752
843 2 0.0360606 0.383296 0.100576
844 2 0.585555 0.965805 0.180976
845 2 0.691139 0.38046 0.524861
846 2 0.216862 0.942553 0.96645
847 2 0.991192 0.170533 0.733472
848 2 0.923118 0.250449 0.187632
849 2 0.157112 0.445805 0.345867
850 2 0.109604 0.292559 0.524418
851 2 0.0332987 0.203904 0.478341
852 2 0.495588 0.232584 0.335122
853 2 0.375142 0.967679 0.144398
854 2 0.0867464 0.126587 0.214546
855 2 0.872301 0.965038 0.516045
856 2 0.36209 0.262634 0.464769
857 2 0.2278 0.0441885 0.304229
858 2 0.255495 0.208919 0.575995
859 2 0.42811 0.384621 0.263581
860 2 0.0448531 0.209367 0.0522172
861 2 0.403065 0.284413 0.0909262
862 2 0.482849 0.363404 0.248423
863 2 0.799856 0.606678 0.256207
864 2 0.178445 0.329737 0.20749
865 2 0.20245 0.171077 0.496855
866 2 0.356113 0.55995 0.423898
867 2 0.135992 0.780532 0.317365
868 2 0.478441 0.3469 0.377072
869 2 0.225193 0.390355 0.133947
870 2 0.176078 0.126623 0.281084
871 2 0.533456 0.262704 0.181463
872 2 0.0828591 0.366026 0.190574
873 2 0.535281 0.441159 0.33019
874 2 0.43784 0.897037 0.388531
875 2 0.19928 0.0485983 0.722097
876 2 0.663746 0.125018 0.12679
877 2 0.0241788 0.807623 0.177652
878 2 0.188246 0.135918 0.0869226
879 2 0.679341 0.872504 0.486826
880 2 0.849564 0.775338 0.10402
881 2 0.193114 0.987137 0.486481
882 2 0.389972 0.621944 0.292623
883 2 0.316335 0.226244 0.273327
884 2 0.312727 0.285753 0.844378
885 2 0.0157546 0.303772 0.0164108
886 2 0.101762 0.158342 0.270103
887 2 0.309721 0.0424508 0.212239
888 2 0.305057 0.166177 0.419408
889 2 0.186501 0.996799 0.188011
890 2 0.0429248 0.301626 0.210379
891 2 0.773954 0.896954 0.965533
892 2 0.257722 0.243931 0.265426
893 2 0.348103 0.217141 0.921981
894 2 0.00542608 0.44781 0.0946842
895 2 0.206539 0.307638 0.264615
896 2 0.121766 0.396524 0.144726
897 2 0.926807 0.42471 0.0122003
898 2 0.281123 0.334705 0.443493
899 2 0.238586 0.91976 0.2462
900 2 0.221191 0.0579556 0.511322
901 2 0.205778 0.586411 0.522869
902 2 0.267336 0.00990976 0.0383323
903 2 0.188931 0.336441 0.424617