ITEM: TIMESTEP
148341
ITEM: NUMBER OF ATOMS
11500
ITEM: BOX BOUNDS pp pp pp
-8.6300903276122909e-01 5.8784192638935721e+01
-8.6300903276122909e-01 5.8784192638935721e+01
-8.6300903276122909e-01 6.3108878861980187e+01
ITEM: ATOMS id type xs ys zs
1 2 0.362999 0.381468 0.280415
2 2 0.171867 0.0345628 0.27051
3 2 0.170123 0.0530067 0.211246
4 2 0.529705 0.139314 0.203941
5 2 0.0401517 0.477959 0.00371706
6 2 0.662934 0.201907 0.115666
7 2 0.301643 0.425953 0.654239
8 2 0.284415 0.18797 0.446896
9 2 0.440071 0.205644 0.0496255
10 2 0.828867 0.0866233 0.176579
11 2 0.279138 0.863274 0.786234
12 2 0.336674 0.843371 0.252514
13 2 0.468423 0.0689068 0.572601
14 2 0.249248 0.316816 0.070639
15 2 0.249534 0.409224 0.425836
16 2 0.297507 0.180247 0.107584
17 2 0.700547 0.185221 0.619162
18 2 0.130916 0.125641 0.168213
19 2 0.294629 0.990955 0.481558
20 2 0.0947296 0.230631 0.866925
21 2 0.424331 0.945875 0.55453
22 2 0.341881 0.102801 0.0427283
23 2 0.31777 0.220655 0.817625
24 2 0.187676 0.67496 0.357706
25 2 0.669345 0.931113 0.122803
26 2 0.481978 0.646019 0.127633
27 2 0.0611106 0.856629 0.399764
28 2 0.195143 0.553707 0.354385
29 2 0.216915 0.576408 0.740286
30 2 0.248109 0.910652 0.432096
31 2 0.719054 0.901302 0.141588
32 2 0.367188 0.27875 0.988319
33 2 0.36717 0.392223 0.0734413
34 2 0.380236 0.321006 0.245034
35 2 0.0775739 0.405953 0.045965
36 2 0.324929 0.435824 0.951728
37 2 0.247038 0.988297 0.252013
38 2 0.57666 0.570735 0.351411
39 2 0.281759 0.806862 0.820004
40 2 0.306109 0.312764 0.464698
41 2 0.180811 0.221317 0.59513
42 2 0.0187675 0.0234422 0.572578
43 2 0.245424 0.152555 0.184037
44 2 0.573245 0.96664 0.493143
45 2 0.296608 0.237336 0.882613
46 2 0.998146 0.795478 0.902081
47 2 0.386098 0.421117 0.168877
48 2 0.42926 0.20975 0.522517
49 2 0.899055 0.917418 0.12423
50 2 0.876858 0.626035 0.122644
51 2 0.294719 0.323753 0.376538
52 2 0.370911 0.108518 0.979246
53 2 0.153371 0.280942 0.25522
54 2 0.266056 0.415063 0.605603
55 2 0.0373191 0.350839 0.653057
56 2 0.505018 0.0834414 0.352017
57 2 0.38181 0.241846 0.0354765
58 2 0.180601 0.341972 0.387478
59 2 0.254056 0.128447 0.0246877
60 2 0.295241 0.349068 0.285247
61 2 0.51577 0.236131 0.128416
62 2 0.85673 0.0687562 0.785227
63 2 0.0690372 0.0279074 0.36092
64 2 0.222982 0.355648 0.316808
65 2 0.224665 0.23014 0.964186
66 2 0.0405451 0.586434 0.564022
67 2 0.290749 0.22172 0.559427
68 2 0.0862312 0.763972 0.104098
69 2 0.0108699 0.100526 0.0111022
70 2 0.301321 0.38636 0.298588
71 2 0.0225668 0.459983 0.451272
72 2 0.165549 0.815212 0.274728
73 2 0.116922 0.117686 0.018712
74 2 0.16812 0.898957 0.446463
75 2 0.32672 0.972863 0.982406
76 2 0.0345967 0.805417 0.637397
77 2 0.146125 0.784504 0.537743
78 2 0.29889 0.111494 0.49106
79 2 0.388228 0.73801 0.243744
80 2 0.0146591 0.151196 0.396321
81 2 0.169016 0.363335 0.445151
82 2 0.129429 0.468712 0.434593
83 2 0.00964532 0.962572 0.146376
84 2 0.552007 0.34123 0.294345
85 2 0.836026 0.857301 0.941041
86 2 0.352601 0.6415 0.692954
87 2 0.360621 0.144534 0.964196
88 2 0.983715 0.157731 0.56899
89 2 0.174992 0.0582002 0.911513
90 2 0.56004 0.0826609 0.431852
91 2 0.788113 0.377767 0.0369619
92 2 0.224681 0.351542 0.427143
93 2 0.348276 0.245277 0.590509
94 2 0.381856 0.3436 0.037283
95 2 0.185727 0.236852 0.306547
96 2 0.61122 0.0633138 0.338724
97 2 0.0886954 0.114751 0.113973
98 2 0.289413 0.279297 0.476738
99 2 0.223188 0.261123 0.654095
100 2 0.303418 0.331462 0.319372
101 2 0.106916 0.946814 0.555633
102 2 0.00634591 0.658527 0.330013
103 2 0.385944 0.9861 0.0876224
104 2 0.140871 0.128833 0.297684
105 2 0.218034 0.473521 0.25751
106 2 0.380162 0.0249849 0.321147
107 2 0.256076 0.280069 0.279455
108 2 0.295736 0.185836 0.484251
109 2 0.126738 0.281982 0.158231
110 2 0.0928604 0.379588 0.125721
111 2 0.709252 0.425955 0.35578
112 2 0.0885913 0.347677 0.335726
113 2 0.0204295 0.189338 0.185991
114 2 0.00629776 0.268639 0.457937
115 2 0.542067 0.92465 0.930979
116 2 0.52956 0.654221 0.348365
117 2 0.221247 0.146754 0.319049
118 2 0.0564954 0.219201 0.245838
119 2 0.264622 0.243631 0.226054
120 2 0.405504 0.686107 0.436758
121 2 0.978776 0.522647 0.609693
122 2 0.0778528 0.285506 0.201854
123 2 0.988826 0.693834 0.556503
124 2 0.181349 0.137692 0.486659
125 2 0.484149 0.692884 0.322694
126 2 0.891456 0.424129 0.354077
127 2 0.124283 0.769805 0.928323
128 2 0.925326 0.219525 0.279241
129 2 0.429651 0.187446 0.919531
130 2 0.267912 0.0797278 0.331457
131 2 0.147306 0.148913 0.8514
132 2 0.338652 0.00478891 0.0349726
133 2 0.731599 0.311301 0.375622
134 2 0.785081 0.690113 0.595678
135 2 0.299662 0.410662 0.269354
136 2 0.489445 0.0538537 0.906232
137 2 0.36603 0.184942 0.255115
138 2 0.291058 0.689796 0.41228
139 2 0.0244091 0.914761 0.389701
140 2 0.129341 0.352509 0.918837
141 2 0.0822871 0.100433 0.332501
142 2 0.257606 0.304895 0.219019
143 2 0.318151 0.27282 0.306786
144 2 0.255061 0.284778 0.421997
145 2 0.386192 0.304557 0.587285
146 2 0.00319887 0.559083 0.676203
147 2 0.999125 0.0137707 0.667908
148 2 0.341702 0.079729 0.245837
149 2 0.285058 0.380133 0.503006
150 2 0.0512301 0.352267 0.49405
151 2 0.0147376 0.277896 0.163415
152 2 0.401579 0.76188 0.58429
153 2 0.072121 0.0408656 0.591684
154 2 0.1252 0.169655 0.385337
155 2 0.379382 0.179661 0.559412
156 2 0.208374 0.171578 0.186672
157 2 0.776375 0.136776 0.0528473
158 2 0.503555 0.195104 0.322242
159 2 0.221921 0.0914269 0.448639
160 2 0.787174 0.338283 0.530114
161 2 0.873426 0.181694 0.263891
162 2 0.498166 0.155402 0.0388443
163 2 0.282978 0.230439 0.294435
164 2 0.594076 0.227383 0.197026
165 2 0.253269 0.478959 0.593125
166 2 0.357775 0.181307 0.0743778
167 2 0.142434 0.156638 0.786594
168 2 0.98194 0.410407 0.665511
169 2 0.350919 0.424063 0.694799
170 2 0.206448 0.0622994 0.337667
171 2 0.0914157 0.160877 0.233863
172 2 0.246316 0.343323 0.458822
173 2 0.25897 0.430627 0.373125
174 2 0.468694 0.0949509 0.129068
175 2 0.0380848 0.420592 0.202695
176 2 0.394788 0.295349 0.299368
177 2 0.439473 0.398394 0.977471
178 2 0.315646 0.132629 0.170213
179 2 0.0423727 0.420336 0.884626
180 2 0.169234 0.112476 0.366373
181 2 0.29381 0.357702 0.574677
182 2 0.21657 0.226345 0.000756051
183 2 0.57524 0.499345 0.537335
184 2 0.958728 0.196482 0.209392
185 2 0.249916 0.413551 0.0262723
186 2 0.179548 0.135586 0.951778
187 2 0.935917 0.0610715 0.209013
188 2 0.0796205 0.40589 0.302144
189 2 0.191933 0.0734058 0.641723
190 2 0.161238 0.345157 0.151058
191 2 0.0512549 0.440688 0.351481
192 2 0.254454 0.113007 0.450154
193 2 0.970044 0.0738821 0.736721
194 2 0.282292 0.52574 0.253774
195 2 0.485717 0.216544 0.437209
196 2 0.475718 0.854609 0.406161
197 2 0.0595279 0.083201 0.172237
198 2 0.915672 0.207152 0.452753
199 2 0.252855 0.574236 0.93928
200 2 0.384666 0.385675 0.428926
201 2 0.264652 0.137995 0.0621642
202 2 0.142982 0.232864 0.667663
203 2 0.100001 0.483235 0.338461
204 2 0.515969 0.0609607 0.107125
205 2 0.488163 0.192228 0.381693
206 2 0.0296345 0.272014 0.103756
207 2 0.206174 0.113263 0.204488
208 2 0.680815 0.861373 0.10047
209 2 0.908393 0.57165 0.52066
210 2 0.124068 0.108445 0.20318
211 2 0.510979 0.973195 0.185372
212 2 0.931487 0.87511 0.382526
213 2 0.953501 0.00486827 0.357609
214 2 0.416062 0.963588 0.704019
215 2 0.290382 0.196035 0.168057
216 2 0.904439 0.712746 0.410332
217 2 0.0962767 0.216895 0.148315
218 2 0.0996923 0.415394 0.332933
219 2 0.958301 0.0470953 0.588827
220 2 0.9537 0.400156 0.170128
221 2 0.337608 0.277773 0.142201
222 2 0.0943539 0.259684 0.0401059
223 2 0.206457 0.639867 0.725341
224 2 0.191694 0.888855 0.825347
225 2 0.803565 0.497215 0.540719
226 2 0.61259 0.209915 0.686526
227 2 0.423216 0.9858 0.3382
228 2 0.22944 0.283595 0.0716417
229 2 0.332148 0.142646 0.439973
230 2 0.341138 0.252148 0.284716
231 2 0.248945 0.551467 0.311347
232 2 0.969535 0.780782 0.975731
233 2 0.0759134 0.996243 0.14997
234 2 0.264176 0.915021 0.39904
235 2 0.185852 0.989866 0.109424
236 2 0.218413 0.865947 0.201371
237 2 0.0328931 0.91258 0.325505
238 2 0.226889 0.16462 0.984822
239 2 0.990035 0.110384 0.121084
240 2 0.904709 0.158442 0.40255
241 2 0.378067 0.287129 0.408248
242 2 0.0082453 0.443197 0.927958
243 2 0.398132 0.937159 0.27047
244 2 0.121145 0.16979 0.210109
245 2 0.347065 0.745739 0.914409
246 2 0.80187 0.386498 0.677074
247 2 0.969742 0.258208 0.446727
248 2 0.295663 0.2363 0.173835
249 2 0.424288 0.76539 0.293573
250 2 0.254726 0.174297 0.368282
251 2 0.519264 0.582406 0.96488
252 2 0.148649 0.746497 0.860371
253 2 0.156106 0.595575 0.331484
254 2 0.120703 0.185133 0.149785
255 2 0.416012 0.220916 0.26375
256 2 0.559293 0.061249 0.0134815
257 2 0.406958 0.367481 0.371366
258 2 0.497246 0.0726313 0.795686
259 2 0.382063 0.551641 0.265883
260 2 0.364404 0.124591 0.278608
261 2 0.0409129 0.512205 0.985626
262 2 0.27963 0.295773 0.0102957
263 2 0.602713 0.0777014 0.0675113
264 2 0.119132 0.176687 0.851654
265 2 0.36333 0.0842821 0.276657
266 2 0.129608 0.51708 0.3011
267 2 0.937215 0.503984 0.06811
268 2 0.205589 0.282142 0.969166
269 2 0.245131 0.394439 0.55029
270 2 0.227227 0.171068 0.903405
271 2 0.0820577 0.275991 0.269642
272 2 0.931738 0.247003 0.250947
273 2 0.60076 0.353532 0.160486
274 2 0.27292 0.179908 0.265649
275 2 0.357363 0.146465 0.247621
276 2 0.620204 0.609672 0.312605
277 2 0.648815 0.894969 0.354003
278 2 0.566456 0.172227 0.034331
279 2 0.197841 0.39674 0.981193
280 2 0.046744 0.129022 0.289548
281 2 0.0663868 0.149521 0.0457385
282 2 0.263285 0.749982 0.160051
283 2 0.429747 0.0347587 0.148006
284 2 0.268824 0.395302 0.319989
285 2 0.381157 0.132447 0.159901
286 2 0.935651 0.89026 0.506532
287 2 0.28999 0.245039 0.108503
288 2 0.684634 0.0902157 0.184366
289 2 0.822367 0.373209 0.181625
290 2 0.118517 0.754003 0.426566
291 2 0.0609585 0.798067 0.568041
292 2 0.42984 0.122673 0.184784
293 2 0.0830706 0.934236 0.981078
294 2 0.309247 0.207607 0.639721
295 2 0.177027 0.394792 0.274779
296 2 0.0923021 0.339712 0.299397
297 2 0.143777 0.357387 0.389825
298 2 0.175971 0.783573 0.418094
299 2 0.879929 0.364105 0.407034
300 2 0.155744 0.433619 0.58453
301 2 0.240262 0.410775 0.104788
302 2 0.156053 0.00418059 0.00615097
303 2 0.250796 0.238133 0.106663
304 2 0.101581 0.794124 0.331684
305 2 0.241119 0.209138 0.130599
306 2 0.395049 0.330317 0.361339
307 2 0.810862 0.605776 0.669165
308 2 0.480061 0.794217 0.602399
309 2 0.906385 0.353393 0.110101
310 2 0.287471 0.109619 0.931251
311 2 0.249969 0.451886 0.900295
312 2 0.960116 0.056708 0.393596
313 2 0.154226 0.751492 0.127924
314 2 0.343247 0.0304373 0.308305
315 2 0.689873 0.948878 0.382272
316 2 0.546997 0.747521 0.102698
317 2 0.430494 0.0311733 0.635937
318 2 0.13811 0.570181 0.168557
319 2 0.143076 0.481212 0.493263
320 2 0.584986 0.397253 0.277249
321 2 0.19926 0.502477 0.324156
322 2 0.508405 0.877579 0.405866
323 2 0.494874 0.0891305 0.416208
324 2 0.463182 0.128917 0.345434
325 2 0.399268 0.342218 0.941442
326 2 0.803191 0.455488 0.375824
327 2 0.181958 0.367387 0.000288013
328 2 0.146757 0.309092 0.136956
329 2 0.0336552 0.331955 0.96009
330 2 0.179368 0.564915 0.742037
331 2 0.263861 0.345957 0.137806
332 2 0.336667 0.673743 0.938614
333 2 0.443676 0.352901 0.594905
334 2 0.971801 0.0853352 0.869445
335 2 0.337676 0.288971 0.104264
336 2 0.259872 0.342224 0.63042
337 2 0.204975 0.645237 0.545305
338 2 0.308701 0.983421 0.185714
339 2 0.314133 0.441005 0.346169
340 2 0.240997 0.999235 0.546269
341 2 0.0693237 0.289886 0.994636
342 2 0.867533 0.287603 0.0198982
343 2 0.0926475 0.271383 0.867587
344 2 0.259452 0.346472 0.265979
345 2 0.51574 0.20167 0.250698
346 2 0.500493 0.755285 0.389072
347 2 0.618026 0.229769 0.916016
348 2 0.241163 0.270181 0.206906
349 2 0.464413 0.719585 0.245571
350 2 0.652016 0.149337 0.590225
351 2 0.0152168 0.210169 0.0799838
352 2 0.00287755 0.863912 0.491922
353 2 0.472275 0.594747 0.39983
354 2 0.38719 0.0454477 0.382052
355 2 0.0492199 0.345206 0.245538
356 2 0.303837 0.514198 0.429163
357 2 0.222747 0.732482 0.23925
358 2 0.104809 0.652285 0.621161
359 2 0.230852 0.554983 0.0659365
360 2 0.237746 0.505453 0.949878
361 2 0.269699 0.142088 0.274554
362 2 0.233165 0.702859 0.529311
363 2 0.988333 0.878978 0.78586
364 2 0.0266409 0.853689 0.334305
365 2 0.15677 0.0584591 0.390532
366 2 0.410682 0.189629 0.494625
367 2 0.309904 0.765467 0.302374
368 2 0.028523 0.262104 0.891456
369 2 0.302419 0.398379 0.136599
370 2 0.97402 0.838258 0.357249
371 2 0.340112 0.725192 0.342112
372 2 0.237552 0.0641175 0.837786
373 2 0.999368 0.0248555 0.273513
374 2 0.499139 0.0124312 0.468068
375 2 0.419794 0.324113 0.235986
376 2 0.166447 0.0987677 0.254333
377 2 0.153492 0.993965 0.432023
378 2 0.990408 0.210668 0.00351419
379 2 0.8722 0.147074 0.177507
380 2 0.585541 0.169593 0.11341
381 2 0.405181 0.613594 0.0661511
382 2 0.394048 0.875084 0.732155
383 2 0.0109637 0.299459 0.0538459
384 2 0.538918 0.224472 0.275458
385 2 0.192064 0.273555 0.251338
386 2 0.647197 0.0387965 0.162314
387 2 0.197622 0.114055 0.166651
388 2 0.619754 0.269869 0.371696
389 2 0.471781 0.00830951 0.410619
390 2 0.932574 0.365843 0.0577466
391 2 0.226313 0.305585 0.376083
392 2 0.117147 0.201536 0.0421649
393 2 0.413068 0.534966 0.500982
394 2 0.09086 0.0277901 0.197086
395 2 0.390919 0.402134 0.464551
396 2 0.199583 0.260688 0.507577
397 2 0.946325 0.766509 0.414317
398 2 0.318971 0.464186 0.876236
399 2 0.295246 0.0217155 0.270595
400 2 0.218566 0.286211 0.717282
401 2 0.244193 0.209729 0.382426
402 2 0.164478 0.39174 0.85
403 2 0.336331 0.77441 0.229315
404 2 0.437946 0.985651 0.460303
405 2 0.105895 0.247532 0.351408
406 2 0.950011 0.0714944 0.526957
407 2 0.053297 0.480161 0.406715
408 2 0.394421 0.175152 0.127563
409 2 0.286686 0.0209146 0.848446
410 2 0.119901 0.99758 0.592359
411 2 0.52696 0.964446 0.15145
412 2 0.94964 0.127709 0.227662
413 2 0.527374 0.144184 0.352447
414 2 0.0633391 0.371307 0.729809
415 2 0.630981 0.752976 0.291559
416 2 0.535619 0.689542 0.413121
417 2 0.341054 0.0697824 0.306234
418 2 0.396253 0.201073 0.155873
419 2 0.564437 0.881634 0.443268
420 2 0.873995 0.452054 0.119324
421 2 0.0430974 0.864424 0.197218
422 2 0.129431 0.499344 0.591997
423 2 0.0910746 0.795561 0.829396
424 2 0.988217 0.992539 0.25525
425 2 0.30716 0.0542774 0.150604
426 2 0.260837 0.797545 0.488491
427 2 0.375131 0.402847 0.565541
428 2 0.0666547 0.304739 0.0532386
429 2 0.088623 0.272249 0.109671
430 2 0.117305 0.42555 0.0138487
431 2 0.281909 0.443157 0.518013
432 2 0.636909 0.975939 0.514576
433 2 0.431067 0.121233 0.445893
434 2 0.110225 0.336533 0.188507
435 2 0.206747 0.129337 0.856162
436 2 0.311965 0.645207 0.192182
437 2 0.288204 0.0106803 0.204858
438 2 0.827094 0.590086 0.200803
439 2 0.808847 0.101793 0.315557
440 2 0.434881 0.0894284 0.00210809
441 2 0.41399 0.353767 0.165463
442 2 0.213736 0.549007 0.0292544
443 2 0.534129 0.217584 0.0697686
444 2 0.313023 0.518748 0.648371
445 2 0.242894 0.312078 0.701298
446 2 0.172761 0.217608 0.736816
447 2 0.114562 0.254665 0.91888
448 2 0.411693 0.07694 0.210368
449 2 0.309306 0.301941 0.635474
450 2 0.110372 0.941501 0.406213
451 2 0.847943 0.414797 0.48758
452 2 0.309162 0.172194 0.622887
453 2 0.396933 0.456372 0.430567
454 2 0.0527777 0.327031 0.416686
455 2 0.150706 0.622084 0.198832
456 2 0.799856 0.612045 0.218513
457 2 0.0969194 0.976543 0.933538
458 2 0.333013 0.243125 0.89794
459 2 0.347283 0.101795 0.213597
460 2 0.403927 0.252409 0.645677
461 2 0.304694 0.19684 0.701612
462 2 0.601405 0.255367 0.26764
463 2 0.255205 0.381321 0.0501952
464 2 0.464946 0.364958 0.215066
465 2 0.329964 0.435082 0.26187
466 2 0.986982 0.328785 0.189154
467 2 0.417244 0.873968 0.367707
468 2 0.076191 0.871372 0.458846
469 2 0.349465 0.1807 0.185679
470 2 0.780865 0.19911 0.305286
471 2 0.997562 0.0755206 0.225868
472 2 0.509194 0.358855 0.483982
473 2 0.109778 0.386471 0.28066
474 2 0.132852 0.318932 0.899118
475 2 0.37607 0.673757 0.317042
476 2 0.143972 0.251647 0.437464
477 2 0.704131 0.117926 0.815815
478 2 0.435792 0.328661 0.938751
479 2 0.106009 0.144262 0.0950416
480 2 0.0343235 0.945511 0.645966
481 2 0.232082 0.256742 0.557092
482 2 0.278171 0.184464 0.337513
483 2 0.245944 0.142186 0.425906
484 2 0.593191 0.0190445 0.854866
485 2 0.534163 0.969202 0.425672
486 2 0.0332972 0.352452 0.305822
487 2 0.456771 0.489688 0.281257
488 2 0.38136 0.144577 0.543012
489 2 0.162146 0.317376 0.626007
490 2 0.276417 0.0532151 0.968875
491 2 0.170196 0.218712 0.240612
492 2 0.983758 0.0630795 0.424279
493 2 0.951333 0.544725 0.219692
494 2 0.288899 0.560912 0.0873922
495 2 0.0645362 0.438265 0.179543
496 2 0.875866 0.757354 0.89911
497 2 0.704022 0.317532 0.0941736
498 2 0.457608 0.690552 0.557408
499 2 0.989152 0.331965 0.0113158
500 2 0.707232 0.0345 0.373698
501 2 0.343049 0.319226 0.931743
502 2 0.720168 0.488046 0.119186
503 2 0.517478 0.122393 0.460895
504 2 0.44734 0.480305 0.490874
505 2 0.328787 0.266637 0.990975
506 2 0.187655 0.437197 0.117604
507 2 0.187306 0.403482 0.137709
508 2 0.0769927 0.0560421 0.120844
509 2 0.74188 0.533836 0.440704
510 2 0.153707 0.134222 0.0210305
511 2 0.362109 0.477101 0.186908
512 2 0.825476 0.369571 0.733314
513 2 0.702724 0.358495 0.347496
514 2 0.349273 0.0897983 0.00508784
515 2 0.940121 0.296637 0.489112
516 2 0.586715 0.307842 0.974271
517 2 0.272049 0.152135 0.397673
518 2 0.0155545 0.103442 0.329588
519 2 0.23955 0.163378 0.482032
520 2 0.85386 0.416988 0.984572
521 2 0.956985 0.434526 0.684002
522 2 0.805343 0.290623 0.298599
523 2 0.902178 0.683634 0.353216
524 2 0.198575 0.443135 0.346618
525 2 0.46956 0.549421 0.23916
526 2 0.191019 0.283385 0.0584127
527 2 0.502145 0.267262 0.648294
528 2 0.972533 0.437243 0.970727
529 2 0.486698 0.326623 0.260261
530 2 0.0136835 0.511129 0.0723273
531 2 0.242595 0.704217 0.764896
532 2 0.176035 0.301236 0.328828
533 2 0.15117 0.195418 0.0640138
534 2 0.275838 0.227603 0.445659
535 2 0.318491 0.143697 0.238726
536 2 0.0825731 0.639193 0.393673
537 2 0.831854 0.277714 0.170941
538 2 0.739516 0.960064 0.131679
539 2 0.0754468 0.154151 0.297717
540 2 0.331326 0.133624 0.297747
541 2 0.314886 0.709633 0.864994
542 2 0.976394 0.419278 0.055524
543 2 0.127189 0.314851 0.729394
544 2 0.500449 0.700698 0.244294
545 2 0.375084 0.577983 0.828631
546 2 0.330927 0.883499 0.249743
547 2 0.188812 0.0100677 0.379124
548 2 0.328125 0.0326745 0.0112307
549 2 0.0941824 0.161575 0.877811
550 2 0.339632 0.163239 0.36541
551 2 0.0385361 0.175297 0.0324493
552 2 0.03859 0.0650596 0.116825
553 2 0.132434 0.121879 0.697845
554 2 0.510388 0.263634 0.386413
555 2 0.416547 0.390799 0.889422
556 2 0.285408 0.234584 0.522685
557 2 0.0848687 0.332818 0.587348
558 2 0.2427 0.4023 0.291038
559 2 0.952126 0.323965 0.628538
560 2 0.342687 0.977461 0.453205
561 2 0.595196 0.905041 0.61959
562 2 0.440346 0.411278 0.336009
563 2 0.338087 0.0886388 0.374439
564 2 0.163881 0.415927 0.405572
565 2 0.357089 0.428042 0.612609
566 2 0.609178 0.944211 0.663971
567 2 0.0731291 0.0157206 0.433381
568 2 0.739525 0.148737 0.400944
569 2 0.0414856 0.391539 0.307776
570 2 0.54419 0.261522 0.21901
571 2 0.840435 0.266728 0.237403
572 2 0.84336 0.566176 0.478552
573 2 0.322318 0.370545 0.490831
574 2 0.046471 0.53641 0.224984
575 2 0.306603 0.636492 0.447592
576 2 0.366083 0.641335 0.237637
577 2 0.160713 0.494894 0.312029
578 2 0.419466 0.380759 0.517728
579 2 0.320229 0.853092 0.614802
580 2 0.639208 0.906308 0.120628
581 2 0.385177 0.995786 0.97013
582 2 0.402925 0.240144 0.567032
583 2 0.374501 0.394533 0.601919
584 2 0.511387 0.983425 0.261621
585 2 0.058688 0.182549 0.228781
586 2 0.252428 0.292238 0.347064
587 2 0.396555 0.200455 0.98365
588 2 0.047677 0.57266 0.975467
589 2 0.976426 0.247099 0.922506
590 2 0.130696 0.829128 0.458431
591 2 0.477461 0.0160817 0.0819049
592 2 0.373549 0.516536 0.8288
593 2 0.465174 0.191866 0.528502
594 2 0.065632 0.248851 0.19143
595 2 0.254069 0.950613 0.633721
596 2 0.469324 0.202932 0.566599
597 2 0.296719 0.42772 0.458593
598 2 0.398023 0.986848 0.90613
599 2 0.828631 0.719102 0.178931
600 2 0.462631 0.205012 0.20947
601 2 0.375959 0.965392 0.212137
602 2 0.432839 0.183461 0.461957
603 2 0.290215 0.43862 0.977818
604 2 0.410473 0.388355 0.121754
605 2 0.146088 0.319624 0.259736
606 2 0.709079 0.0366741 0.884712
607 2 0.399784 0.117998 0.0469327
608 2 0.150884 0.0682289 0.275742
609 2 0.311944 0.120258 0.206834
610 2 0.930507 0.036169 0.177625
611 2 0.0141263 0.222824 0.418477
612 2 0.159899 0.569363 0.0530808
613 2 0.145168 0.258239 0.354792
614 2 0.809874 0.660327 0.985875
615 2 0.16455 0.185357 0.907327
616 2 0.464187 0.241509 0.576472
617 2 0.314501 0.494106 0.553479
618 2 0.647439 0.681665 0.468604
619 2 0.277776 0.253103 0.416173
620 2 0.216703 0.157146 0.245672
621 2 0.186005 0.200191 0.0448845
622 2 0.290425 0.556005 0.192972
623 2 0.189501 0.162709 0.271447
624 2 0.954719 0.94178 0.232046
625 2 0.782309 0.279508 0.407286
626 2 0.9399 0.984161 0.296336
627 2 0.182017 0.818656 0.997577
628 2 0.392958 0.332499 0.137135
629 2 0.598197 0.791224 0.535494
630 2 0.0146193 0.942101 0.415792
631 2 0.165688 0.0906211 0.811422
632 2 0.388618 0.596599 0.0353482
633 2 0.182744 0.0930182 0.330471
634 2 0.99553 0.49012 0.627219
635 2 0.242504 0.12678 0.251037
636 2 0.422031 0.969251 0.271707
637 2 0.736558 0.234656 0.504632
638 2 0.217746 0.143483 0.0156861
639 2 0.136329 0.580628 0.830804
640 2 0.218966 0.886628 0.0500485
641 2 0.3054 0.126766 0.270394
642 2 0.317826 0.181484 0.339045
643 2 0.121926 0.680708 0.364724
644 2 0.219884 0.229712 0.494062
645 2 0.780188 0.480094 0.426324
646 2 0.363974 0.441619 0.561419
647 2 0.211691 0.227553 0.437073
648 2 0.968318 0.48751 0.189413
649 2 0.453208 0.0493622 0.460668
650 2 0.481569 0.389304 0.109449
651 2 0.249231 0.208004 0.215807
652 2 0.949445 0.721906 0.0420199
653 2 0.172666 0.936461 0.0771484
654 2 0.113438 0.933804 0.0071539
655 2 0.882663 0.35228 0.707276
656 2 0.274673 0.430763 0.338549
657 2 0.211221 0.399392 0.228347
658 2 0.185306 0.552019 0.804612
659 2 0.379886 0.155918 0.189502
660 2 0.201475 0.340531 0.15442
661 2 0.298999 0.246297 0.327594
662 2 0.696068 0.616409 0.42417
663 2 0.191655 0.118721 0.451768
664 2 0.374283 0.314329 0.828476
665 2 0.342551 0.948134 0.0574264
666 2 0.871482 0.0151481 0.18595
667 2 0.31082 0.556086 0.476925
668 2 0.0691335 0.955241 0.545052
669 2 0.31256 0.0806344 0.0579768
670 2 0.465474 0.269097 0.182164
671 2 0.989842 0.173918 0.128029
672 2 0.512211 0.230595 0.167692
673 2 0.0806856 0.235965 0.272403
674 2 0.202593 0.478989 0.480781
675 2 0.111929 0.68272 0.709886
676 2 0.0284763 0.673028 0.260212
677 2 0.470549 0.622276 0.456669
678 2 0.322446 0.119891 0.331293
679 2 0.582586 0.828151 0.354054
680 2 0.0399158 0.0160541 0.159072
681 2 0.0615123 0.382891 0.468804
682 2 0.14728 0.201521 0.174089
683 2 0.61133 0.652205 0.0940847
684 2 0.262456 0.598074 0.132194
685 2 0.0801788 0.19288 0.980477
686 2 0.853253 0.226944 0.550104
687 2 0.264149 0.682282 0.265015
688 2 0.511415 0.514607 0.426857
689 2 0.386398 0.973105 0.939538
690 2 0.59222 0.406011 0.449184
691 2 0.600569 0.656594 0.151275
692 2 0.0972314 0.382047 0.355298
693 2 0.508249 0.362924 0.967173
694 2 0.17205 0.799645 0.0286247
695 2 0.579525 0.180763 0.569663
696 2 0.59213 0.373948 0.220532
697 2 0.36659 0.312796 0.381389
698 2 0.267384 0.879558 0.288475
699 2 0.77101 0.157063 0.214975
700 2 0.36748 0.272417 0.169335
701 2 0.311971 0.798664 0.42886
702 2 0.38709 0.298064 0.766593
703 2 0.182458 0.117732 0.520892
704 2 0.154554 0.155982 0.226937
705 2 0.315715 0.297535 0.25036
706 2 0.50398 0.109933 0.728902
707 2 0.224061 0.227321 0.160281
708 2 0.25457 0.361762 0.3391
709 2 0.356104 0.96164 0.789329
710 2 0.0968021 0.494688 0.300633
711 2 0.486748 0.101952 0.161909
712 2 0.502323 0.190474 0.980788
713 2 0.853505 0.609896 0.594731
714 2 0.0511747 0.602822 0.343311
715 2 0.251508 0.78288 0.270753
716 2 0.483468 0.364271 0.308917
717 2 0.285947 0.0780417 0.997286
718 2 0.162146 0.264536 0.320663
719 2 0.976115 0.892013 0.728072
720 2 0.0916633 0.139867 0.330854
721 2 0.166027 0.154934 0.817657
722 2 0.583919 0.244188 0.419036
723 2 0.476849 0.248699 0.124567
724 2 0.311686 0.281064 0.0249488
725 2 0.303944 0.448778 0.206138
726 2 0.361431 0.213309 0.169128
727 2 0.303046 0.356403 0.189266
728 2 0.0331902 0.819115 0.548343
729 2 0.217343 0.384868 0.491027
730 2 0.141279 0.64859 0.225939
731 2 0.546455 0.327536 0.844773
732 2 0.911374 0.261745 0.0613374
733 2 0.514659 0.181467 0.355568
734 2 0.436363 0.380822 0.148607
735 2 0.51614 0.128042 0.0941538
736 2 0.936009 0.073153 0.122417
737 2 0.880042 0.076844 0.246803
738 2 0.0107836 0.355071 0.381291
739 2 0.911564 0.335684 0.0148693
740 2 0.342663 0.603274 0.689423
741 2 0.438932 0.160661 0.351707
742 2 0.0298557 0.438605 0.064842
743 2 0.459682 0.438393 0.248702
744 2 0.174603 0.200703 0.319375
745 2 0.259195 0.0165696 0.176892
746 2 0.0140636 0.352426 0.504862
747 2 0.366837 0.0236983 0.183274
748 2 0.415937 0.231077 0.140983
749 2 0.0916376 0.148063 0.01744
750 2 0.106117 0.0352966 0.304967
751 2 0.182395 0.29278 0.191763
752 2 0.425042 0.555286 0.722701
753 2 0.977656 0.242603 0.360429
754 2 0.147336 0.570452 0.485862
755 2 0.203609 0.113811 0.304018
756 2 0.237776 0.956427 0.230968
757 2 0.269347 0.133783 0.883181
758 2 0.979239 0.229636 0.159438
759 2 0.0679963 0.541014 0.534151
760 2 0.116357 0.22215 0.264763
761 2 0.430828 0.898831 0.0100297
762 2 0.359783 0.132066 0.413626
763 2 0.414995 0.319344 0.447129
764 2 0.309294 0.925183 0.337473
765 2 0.522906 0.696683 0.542821
766 2 0.995612 0.358937 0.0383094
767 2 0.672271 0.326324 0.165331
768 2 0.397911 0.139045 0.292621
769 2 0.448323 0.393136 0.482727
770 2 0.615875 0.532472 0.162035
771 2 0.160799 0.423429 0.192909
772 2 0.488314 0.0337847 0.173768
773 2 0.259008 0.146831 0.146908
774 2 0.672407 0.216186 0.339081
775 2 0.208139 0.113886 0.891522
776 2 0.286537 0.00434797 0.303479
777 2 0.153553 0.250033 0.013089
778 2 0.112489 0.332795 0.391529
779 2 0.433962 0.247893 0.329413
780 2 0.338752 0.235779 0.446596
781 2 0.312378 0.246495 0.141356
782 2 0.860451 0.130287 0.0656525
783 2 0.20933 0.470511 0.196435
784 2 0.485774 0.52311 0.100992
785 2 0.386247 0.125594 0.875386
786 2 0.17289 0.505147 0.0240485
787 2 0.22872 0.86657 0.49219
788 2 0.231331 0.117985 0.369551
789 2 0.0175125 0.15233 0.496903
790 2 0.685132 0.361408 0.379628
791 2 0.22647 0.197767 0.416904
792 2 0.259734 0.125516 0.486335
793 2 0.426844 0.320645 0.299245
794 2 0.199659 0.601843 0.965414
795 2 0.282944 0.12843 0.542447
796 2 0.516505 0.244523 0.528495
797 2 0.276974 0.0622231 0.224982
798 2 0.431684 0.21327 0.401523
799 2 0.316746 0.55966 0.163854
800 2 0.49526 0.0942184 0.101067
801 2 0.303545 0.180212 0.24028
802 2 0.611564 0.479649 0.308151
803 2 0.155682 0.361942 0.328737
804 2 0.120325 0.627833 0.252271
805 2 0.424743 0.343007 0.528874
806 2 0.537105 0.36636 0.123773
807 2 0.539151 0.198546 0.218781
808 2 0.223877 0.0173737 0.239862
809 2 0.0544903 0.139435 0.393219
810 2 0.14859 0.271237 0.188207
811 2 0.0417449 0.690013 0.228532
812 2 0.221879 0.37015 0.528029
813 2 0.875339 0.932637 0.831295
814 2 0.945493 0.172305 0.361694
815 2 0.294843 0.938896 0.275828
816 2 0.157576 0.315579 0.0110133
817 2 0.544003 0.00538237 0.258319
818 2 0.995108 0.251871 0.186028
819 2 0.164266 0.908919 0.522689
820 2 0.205281 0.30192 0.158919
821 2 0.686777 0.499506 0.137174
822 2 0.109541 0.317007 0.349448
823 2 0.15099 0.927686 0.798295
824 2 0.644473 0.0838839 0.378515
825 2 0.0819617 0.789351 0.537001
826 2 0.534495 0.762456 0.0311092
827 2 0.132069 0.268857 0.225479
828 2 0.0522234 0.28413 0.324219
829 2 0.378983 0.896839 0.120127
830 2 0.951792 0.391999 0.0056117
831 2 0.00361567 0.546589 0.74503
832 2 0.894958 0.698431 0.740037
833 2 0.943215 0.155122 0.395315
834 2 0.000528617 0.442331 0.381993
835 2 0.440671 0.247448 0.987843
836 2 0.32367 0.220335 0.347432
837 2 0.954893 0.147802 0.168139
838 2 0.323899 0.927239 0.300053
839 2 0.474116 0.131864 0.308262
840 2 0.108017 0.503409 0.983199
841 2 0.226286 0.205011 0.71213
842 2 0.0153855 0.921956 0.0288476
843 2 0.0360338 0.383434 0.100426
844 2 0.585428 0.965965 0.180978
845 2 0.691017 0.380019 0.524719
846 2 0.216781 0.942568 0.966566
847 2 0.991187 0.170489 0.733645
848 2 0.923136 0.250543 0.187641
849 2 0.157194 0.445987 0.345965
850 2 0.109704 0.29243 0.524414
851 2 0.0335124 0.203466 0.478632
852 2 0.495628 0.232602 0.335086
853 2 0.375306 0.967971 0.144392
854 2 0.0869272 0.126668 0.214504
855 2 0.87234 0.964861 0.516452
856 2 0.362319 0.262836 0.46455
857 2 0.227783 0.0442 0.303825
858 2 0.255816 0.209008 0.575446
859 2 0.428207 0.384672 0.263732
860 2 0.0448079 0.209471 0.0523617
861 2 0.403147 0.284691 0.0912046
862 2 0.482935 0.36349 0.248326
863 2 0.799871 0.606363 0.255626
864 2 0.178551 0.330005 0.207226
865 2 0.202388 0.170887 0.496798
866 2 0.356044 0.559336 0.424911
867 2 0.135993 0.780765 0.316814
868 2 0.478394 0.346751 0.377128
869 2 0.225133 0.390553 0.134036
870 2 0.176115 0.126615 0.280902
871 2 0.533514 0.262537 0.181427
872 2 0.0828217 0.366246 0.190721
873 2 0.535495 0.441145 0.330503
874 2 0.438034 0.896895 0.389409
875 2 0.199363 0.048667 0.722222
876 2 0.662116 0.126133 0.124776
877 2 0.0242939 0.807864 0.17738
878 2 0.188272 0.136094 0.0870743
879 2 0.678909 0.872947 0.487312
880 2 0.849558 0.775541 0.10443
881 2 0.193001 0.987252 0.486418
882 2 0.390299 0.621974 0.291691
883 2 0.316133 0.225913 0.272811
884 2 0.312572 0.285638 0.844414
885 2 0.0158523 0.303822 0.0166583
886 2 0.101704 0.158431 0.269596
887 2 0.309848 0.0423298 0.212038
888 2 0.304971 0.166205 0.419673
889 2 0.186592 0.9967 0.188273
890 2 0.0428563 0.302022 0.210109
891 2 0.773847 0.896893 0.965357
892 2 0.257904 0.244113 0.265187
893 2 0.34794 0.2172 0.921688
894 2 0.00562389 0.447981 0.0934557
895 2 0.206585 0.307678 0.264578
896 2 0.121561 0.39677 0.144821
897 2 0.926831 0.42478 0.0120823
898 2 0.281139 0.334581 0.443029
899 2 0.238642 0.91947 0.24596
900 2 0.221201 0.0580513 0.511368
901 2 0.205375 0.586239 0.523048
902 2 0.267251 0.00983811 0.0386687
903 2 0.188963 0.336639 0.424108