LAMMPS data file via write_data, version 2 Apr 2025, timestep = 6560000, units = metal

1000 atoms
2 atom types

-0.6064254894475827 26.127037064940794 xlo xhi
-0.6064254894475827 26.127037064940794 ylo yhi
-0.6064254894475827 26.127037064940794 zlo zhi

Atom Type Labels

1 H
2 Si

Masses

1 1.00784
2 28.0855

Atoms # atomic

463 2 1.8564447833140796 0.5437313777446378 0.8342550184711923 1 1 0
717 2 0.4568331065539837 1.2422165735287545 2.4884335050916966 1 0 0
641 2 3.127569559155095 4.166824782288393 0.38452195965642 0 1 1
26 1 1.3670184858695598 1.4164509183479201 3.705750015611229 1 1 0
665 2 0.9440511813402095 4.771291994340494 0.017023647314374446 1 0 1
945 2 3.505849371127929 5.189292090866399 2.519190941597027 0 0 0
71 1 3.139234018155723 4.091324694928129 3.4939871557665967 1 0 1
74 1 0.17207821347994956 3.400868600257086 5.366523625712714 -1 0 1
296 2 3.893825029165175 1.9927110398595183 0.8337755709474923 0 0 1
53 1 -0.21473459261152733 5.480226280906541 4.701225766535169 0 0 0
55 1 3.8656301436514298 4.48836751329498 5.7019963408415135 0 -1 0
67 1 3.1444169047349804 -0.20113935072277084 4.865320333692663 0 0 0
77 1 12.103243126430582 4.755108874404063 5.541959598390326 1 1 1
31 1 5.125138713677147 1.4883350855349438 2.297924546157835 0 0 1
24 1 5.327260606396799 3.2598264526508878 4.619599542799189 1 0 1
834 2 6.188440456058784 1.9850284727357765 4.862076702346488 0 1 0
720 2 7.331441671574353 4.293757145667129 0.5131541295842588 0 0 0
143 1 6.413136622417129 3.9419057864688867 1.6285887519046374 0 -1 1
775 2 5.627688797553073 0.3414692826625838 3.362742228337003 0 1 0
57 1 6.588936088357883 5.350194063950397 3.6834473639918963 1 0 0
601 2 9.345976483765167 4.664196937188637 1.4783890806762763 0 1 1
759 2 10.966951267815835 5.371581138881444 -0.021420631181941374 0 0 0
438 2 8.307248274047478 2.8368024694920204 4.496069261430621 0 1 0
34 1 12.169367866464585 5.394682626621746 5.97786613489849 1 -1 0
111 1 8.077176328837135 4.28500067272155 4.7806563647407145 0 0 0
96 1 9.352616985537406 2.5411659623400196 5.5463902462114865 0 0 0
879 2 9.617620085494092 2.628412867687564 2.590971908071978 0 0 0
119 1 10.931288327371906 2.7032425467207317 3.3278114835278756 0 1 -1
117 1 9.04346528751391 -0.026336318936152736 4.387769476722375 0 0 0
330 2 12.026868214853629 1.4167682585291947 0.45337021311696124 0 1 1
926 2 9.044255455094259 0.5983393004354496 1.397578014187542 0 0 1
340 2 11.128033085007408 -0.31310639244637056 1.4865466485218697 0 1 0
149 1 10.651196710424514 0.4328409900393395 6.044938364082998 1 0 0
354 2 0.46833464278070536 -0.1174589536785598 12.302830077661527 1 0 0
10 1 1.3699568295133602 2.899497899587106 10.271189116198359 1 0 0
43 1 1.0173694100026651 2.8056680453462985 9.63594081830851 0 0 0
133 1 1.3470683311411265 3.403021657622795 7.245423376233689 -1 1 1
103 1 1.4762425124191672 3.6784723056148634 7.8950862232314645 0 0 0
36 1 3.5433731050595467 4.932453871295632 6.199374430353777 -1 1 0
114 1 2.2957497072048128 -0.5515697812403526 7.7854421029950895 0 1 0
79 1 4.472109423806274 1.3899414138031163 8.460805509836 2 0 1
146 1 6.8368633215494885 1.552125502928717 9.831780607998093 0 1 0
139 1 6.108097531352808 1.486713437745462 9.726373504752594 0 -1 0
85 1 4.402001017399488 -0.13452125417331995 11.435385827820282 0 1 0
137 1 4.174541660679215 1.9932583914238302 8.088100970427764 1 0 -1
37 1 4.134750149124473 4.978065715333911 9.359767574502762 0 1 0
21 1 6.649105337251315 0.15307391791704272 11.830653622873594 0 0 0
195 2 7.578578572121767 0.04736621779504857 7.841703198314322 0 -1 0
138 1 4.648822690224932 4.131501480991809 12.126924374963789 0 0 0
92 1 3.5848375511185697 5.404219186404831 9.744649670942463 1 0 0
42 1 6.159694875212729 0.3900845131549082 8.104694618016214 -1 0 0
118 1 7.340222268370179 3.340737860568979 11.164576176659356 0 1 0
129 1 8.9637429158623 5.029717073087664 9.846002601660961 1 -1 -1
145 1 8.245658700114134 1.0116203604240819 6.8988191842561575 0 0 0
134 1 7.113040881503787 3.9919821307407117 11.323761600447325 -1 0 0
44 1 9.426706995889111 5.633603783112095 9.831506767573275 0 0 0
122 1 7.028995432753974 5.595952883756331 12.165285011669488 -1 0 1
19 1 11.164693725050576 2.433181622389407 10.785819104500089 1 1 0
86 1 8.959964678342466 0.43532601478789434 11.46269589061087 0 0 0
15 1 9.51025523748107 2.2271662025352277 7.724289920302406 0 0 0
115 1 8.442678344861033 0.1795127018575079 9.069045031693635 0 0 1
20 1 11.628011602200624 1.0353006088784367 8.974824175375174 0 0 1
843 2 12.083183313958358 3.620328814035579 10.94473330085206 0 0 0
136 1 11.18788836193381 4.82390147888856 10.968993317297217 0 0 -1
101 1 10.024935811367726 1.9775474329051939 8.210722165539234 0 0 0
394 2 12.479562496848384 0.07813850698563152 9.705472502919452 0 0 0
858 2 12.053312419876894 -0.24546517303275772 12.031364538909697 0 1 0
59 1 5.862095212772876 1.4117818348657751 6.156104224453759 0 -1 -1
56 1 6.954782544627825 5.12053392008254 6.537176696262661 0 0 0
121 1 6.635889995971885 5.77739597717966 6.77925971900556 0 0 1
893 2 2.1186028338220235 3.065487879710354 16.454310045912663 0 0 0
564 2 0.3724849250145128 1.7635659523646257 15.552110936797794 0 0 0
379 2 1.7352775113817525 0.520769088340123 14.126175372718452 0 1 0
472 2 1.4253595940192358 5.2605027334330146 16.551558061717387 0 0 0
661 2 2.874537511983043 1.8619515193608192 18.279975286940676 0 0 0
619 2 3.7812204618174015 -0.0502415856010916 17.617014978073747 0 0 -1
678 2 3.977762541527478 0.5049149422715973 15.100320938136768 1 0 0
441 2 -0.21634377994557907 1.0565345299175966 19.288479752421154 0 0 0
259 2 -0.44067313164897426 3.3478623048625367 19.32775613384534 0 0 0
783 2 3.973731906884181 4.187490395713737 13.43413650177682 0 1 0
710 2 4.304678051437332 2.744569242942864 15.330831419620305 0 1 0
318 2 5.599702228100429 -0.05544318514088564 18.929455460512898 0 0 0
805 2 4.754016126464513 3.065815113380544 18.90253091056575 0 1 0
698 2 5.796614454164533 3.759273310966444 16.86442488671905 0 1 0
627 2 8.200513600277823 3.2983585465875653 16.890085546446613 0 0 0
669 2 7.688160181382418 -0.34702773573719736 17.801488791805816 0 1 -1
8 1 7.975120862715157 2.989919175980219 13.793888061775364 0 0 1
264 2 10.82037004516085 0.9587807937810673 17.314500248424416 0 0 0
534 2 12.209016626010657 1.2791648690185689 13.713934689671095 0 1 0
668 2 10.631526551793366 4.59989511418882 14.41899498675972 0 0 0
93 1 12.000070374559355 3.608466501330157 17.029840893197957 -1 1 0
35 1 11.838656828004305 2.0496938355278855 17.096993107708663 0 1 1
482 2 9.50273270931518 5.096852778554859 17.83646162476488 0 0 0
465 2 12.429029864747582 3.6292787299181075 13.146173222079309 0 0 0
274 2 10.316207370585962 0.9236397044663016 14.996959806946519 0 0 0
860 2 8.825512933459288 1.552960482216391 18.34306048969915 0 1 0
583 2 9.079106553422468 2.944336182838735 14.802247899663286 0 0 0
975 2 11.589356201063458 4.98212073697757 16.65582051962174 0 1 -1
100 1 2.6011350776351243 4.173211831205328 12.951394556975588 0 2 0
240 2 -0.5779970569530118 4.803410476833927 17.47100880640646 1 0 0
581 2 0.5115262194533674 1.7199568080526437 23.965839136996827 0 0 0
743 2 1.879525068975663 2.1384006831883835 22.060549556670537 1 0 0
437 2 1.4543160842880423 4.013154984215159 20.414929233149884 1 0 0
246 2 0.7480846678521456 0.0004195844006040783 25.45273843273658 1 0 0
262 2 0.409132685521989 4.014292914540585 24.66470864880617 1 1 0
66 1 1.8731177109296535 4.314027350818156 24.03868462334718 0 1 -1
313 2 1.9267868109459214 0.8986464642286403 20.145769131553173 1 1 -1
989 2 3.5158590459954304 4.8599113822119 19.558304027868274 0 1 0
875 2 3.9955105899307615 2.198669069455785 22.60081196065387 1 1 0
501 2 4.5512545255885195 5.883424256574429 21.468966656449858 0 1 -1
373 2 4.398456296202219 5.032823748726647 25.519615397079676 0 0 -1
232 2 5.044870600123049 4.268310035320865 23.359782755751496 0 1 0
558 2 7.526403233004395 1.7582681775398092 21.86168132131514 0 0 0
968 2 5.571178617481186 1.741090876469825 20.604649330852276 0 0 0
831 2 7.207526251803287 3.40480449881799 23.53007720603444 0 0 0
181 2 4.350413672428798 0.21393856156961377 23.72104391924112 0 1 0
283 2 7.026899106426943 2.4428543616955283 25.589622530820357 0 0 0
223 2 5.162300334833354 0.8771552533826048 25.97228468773605 1 0 0
861 2 7.853494187322154 -0.4829873339074886 22.372925818527264 0 0 0
176 2 10.854834859858542 2.1179999118251467 25.20600896066984 0 0 -1
275 2 12.23813875593281 5.539296113485083 23.173209437665385 0 0 0
781 2 11.278249367818528 1.1919102226645675 21.48270932380086 0 0 0
848 2 10.740728143298654 4.418025266403369 24.61166047573498 0 0 -1
276 2 9.424705034879713 2.404083059408381 20.523342836719408 0 1 0
245 2 12.16002742569819 5.013181409798464 20.82660121142326 0 0 0
371 2 9.913591988036233 4.784621753415752 20.115658326117945 0 0 -1
697 2 8.635581109376648 5.177293623514184 23.790242523236543 0 0 -1
937 2 8.833598475106161 1.111512260732406 25.73763139425592 0 0 -1
868 2 11.869226123726408 0.7370427752948048 23.633870937482953 0 0 0
297 2 0.9230380184622959 9.976842974539435 4.357901824641396 0 0 1
328 2 1.7782111247071675 11.883566509147002 1.153275246861463 1 0 0
733 2 3.1216438673711733 10.106786905710006 0.9599495104898585 1 0 1
159 2 0.7705006118417408 11.845782973006422 3.163682207645694 0 0 0
849 2 1.4556807948752049 8.303974892675114 1.0480268268231234 1 0 1
299 2 2.009927115314914 6.8998467778246235 2.896919453659597 0 0 0
112 1 2.5788834228237025 7.6726950260461955 4.06570134233708 0 0 0
663 2 -0.13724467684877545 6.359388693143764 3.58667814101727 1 0 1
514 2 -0.48682887735615 11.110939627304148 0.45666567689204696 1 0 0
931 2 6.095848298061271 6.170863410820348 -0.21466288336889777 0 0 0
131 1 4.250803253415802 9.833367018725669 4.0477415854136805 0 1 -1
941 2 4.725257807603386 9.807019413611595 2.587339810810742 0 0 0
630 2 6.011376187023797 7.67765066357512 1.6987288958838325 0 0 1
874 2 6.4405691222392045 11.42236641320602 2.3517793021646267 0 0 0
124 1 6.29548503119429 12.011715196911224 5.005494306650834 1 2 1
45 1 7.629659005346573 9.050489270298375 4.282465377204416 -2 0 1
292 2 8.141534946638536 9.959715238724717 3.1836763830858845 1 1 1
351 2 6.710472227780205 11.088517656831538 -0.004627407847584752 0 0 0
90 1 5.138919488024718 7.001559013007119 4.520568913424396 1 0 1
682 2 8.272910412272138 8.153600403156732 1.6053221042957442 0 0 0
999 2 5.471024794672474 6.227358126633844 3.3506527496587513 0 0 0
348 2 11.375488170973716 7.679831273207974 -0.40431935462436613 0 0 1
707 2 10.736083322985076 11.615401636170295 0.357847852170607 0 0 0
536 2 9.315444614328666 6.523543341408041 2.8551625492949744 1 0 1
11 1 10.664637316506324 7.055687680758568 2.838241314924268 0 1 1
551 2 9.185866768971 8.324410167774746 -0.5028327792074836 0 0 0
75 1 10.540198924126585 8.82973460369918 4.703241021825629 0 -1 1
314 2 10.183351379039188 11.70004480171209 5.807134102003949 0 0 1
360 2 11.728562216703057 10.661082636136433 2.421063180514803 0 1 0
184 2 12.51878811397436 8.734887992701719 1.3857637741753397 1 0 0
192 2 10.212103468593174 10.183513045254797 4.075915131256275 0 0 0
23 1 9.532383370366766 12.737347295747815 2.5292166947659758 1 1 0
91 1 8.843818636820044 6.73579128449583 4.26743896561962 0 1 0
102 1 6.147521300609358 9.017352678638476 5.762768376294307 0 0 2
73 1 2.085702747746785 6.224730249991405 5.710649980400219 1 -1 0
130 1 10.535940278092681 6.590616514896287 6.010204533757108 1 0 0
2 1 9.890259543474874 6.943418170860267 5.890778988771573 0 1 0
32 1 11.987476367124263 11.19228838395746 -0.36231818225569334 0 0 1
509 2 1.9644095351894424 11.202367781459051 8.43479069137718 0 0 0
163 2 1.311445390455226 7.599072000726149 10.268579030645354 0 0 0
407 2 0.4423476431928639 9.338070122529075 8.900386352254401 1 1 0
670 2 2.465296499280638 8.670388828475508 11.928304897268893 0 0 0
78 1 0.020589066864764916 8.75701914550883 7.6589489896612974 0 1 1
61 1 2.1704516393058464 6.50053460612886 9.630742671159565 0 0 0
30 1 9.683422035976124 6.665075290331109 11.823591008313553 2 1 0
83 1 2.426613386912709 6.602486832483237 6.267407369007549 1 1 0
190 2 1.2788385903579749 11.451209339840812 6.195899535336472 0 0 0
677 2 0.5884101211483332 12.585453097069577 12.657631653278342 0 0 1
201 2 12.569090027474264 8.583374761381366 12.150931316915303 0 0 0
62 1 5.710099197546823 6.761230941836271 8.613732910241334 0 0 -1
752 2 3.9691496954240675 10.363775024197352 8.965847277357954 0 0 0
63 1 4.330451923707675 9.32607180837484 7.874958132402684 -1 0 -1
397 2 4.299194121132721 9.855466570115327 11.233136723680646 0 0 0
902 2 6.409831736371895 8.661072611444595 11.470303683235418 0 0 0
105 1 6.5622045198454435 8.01586617545424 10.153598156895587 0 0 1
447 2 5.535602881341103 11.939621628779033 8.215556816975973 1 0 0
7 1 6.665297617326621 10.98449265497144 8.435460992286988 0 1 1
672 2 7.195767824914863 12.415688217167466 12.243062468582387 0 0 0
433 2 4.972096067065887 11.81260227997063 12.403521555679546 0 0 0
99 1 5.018330485992578 7.051345664913615 8.306699077041747 0 0 0
850 2 12.639857259048586 11.613016738054299 9.146848107746884 0 0 0
110 1 6.6201014528150735 9.21106034209725 6.326125716507353 0 0 0
157 2 8.154249097856074 10.338179307635395 12.019685522589917 0 0 0
88 1 9.548936325656841 8.190898542031583 10.416938758256864 2 0 0
424 2 11.67780726291747 10.369834177487203 10.834568955067102 0 0 0
80 1 12.431337286175516 8.695958385265133 7.262586978220431 0 1 1
158 2 11.553690789000749 11.912735980062426 12.60789810379703 0 0 0
125 1 9.332275731970197 10.891553644338163 6.674073717643967 0 0 0
981 2 12.347965186093274 11.399185003462039 6.745476940675151 0 0 0
388 2 9.56516757950104 9.662106076554743 10.364320416724768 0 0 0
6 1 8.80760900403322 11.670008930202428 8.431711488901007 1 0 1
113 1 9.142457637782547 9.958507540994676 9.022975927639697 -1 0 2
52 1 12.519128623493716 7.5236566242325225 10.990078546505512 0 1 -1
368 2 -0.5837925172514903 6.629959435289219 11.120828993318158 0 1 1
430 2 1.5467819232627211 9.704115324162297 16.787943719598275 0 0 0
161 2 2.768905601613568 10.03305395051417 14.881777678349852 0 0 0
633 2 1.1767025551260042 11.863417162229995 17.91076130172678 1 0 0
690 2 2.2946629443729845 8.34518454537535 18.572592430498084 0 0 0
392 2 1.0488848486233486 6.75903054339084 14.75123131421506 0 0 0
356 2 3.10032415868392 7.736209797218693 13.933997065675094 0 0 0
226 2 3.2096510857397105 6.329652597786352 17.77079015316999 0 0 0
602 2 3.324219545292907 11.913457001519905 19.22248317422693 0 0 0
308 2 1.2095535155384738 10.230245759832659 13.096784932450754 0 0 0
503 2 -0.3568541746086792 8.5017461139936 15.747256659014836 1 0 0
16 1 8.565822780822222 7.07175374950445 19.184690006276654 1 0 0
840 2 4.3924070082930635 11.695019649575167 14.654622664278538 1 0 0
883 2 6.709101188191137 8.09747099069093 17.17665030511114 0 0 0
355 2 7.128357193290629 10.028590111242687 15.983449228530608 0 0 0
950 2 6.162088149559243 12.125057207502948 16.150829727763906 0 0 -1
69 1 6.747408544891574 9.691454177630602 14.618151731415649 0 0 1
816 2 4.747244288066105 6.2660839791005225 14.182283612009003 0 0 0
443 2 6.631266937692357 6.776350833458189 12.910796383079738 0 0 0
359 2 6.1795386148547005 8.74077612765773 19.346356032276958 0 0 0
309 2 8.919618498267294 12.174801674718587 19.266864817136295 0 0 0
104 1 8.226666348702295 6.973961935383741 13.501163111897524 0 1 -1
225 2 10.274431609184271 11.9961538984098 17.369682054053435 0 -1 0
213 2 10.532848539949494 8.740855654974466 17.423069409249344 0 0 0
206 2 9.77025660319062 6.614146041487994 13.25956453391925 0 0 0
440 2 8.814733097791438 7.331235341122229 17.75075368644221 0 0 -1
813 2 10.042648476176767 10.409098475135762 13.596329888313054 0 0 0
976 2 11.229296618339822 8.349388326091887 13.9765328664202 0 0 0
178 2 12.32116935912642 8.180547114309485 16.06063512400641 0 0 -1
511 2 12.5251602977674 11.647721252840874 17.836637940457656 0 1 -1
217 2 9.538972022789345 10.474681813051525 15.968232135355114 0 0 0
991 2 5.156994265736786 6.306227846420214 16.532858872545454 0 0 0
224 2 1.0474821945942052 10.345861132183849 22.588530956632248 1 0 0
817 2 2.6865387118856647 7.097355786685911 22.35844817444096 1 0 0
416 2 3.244870314044351 9.22244752206158 22.102451587145353 1 0 -1
342 2 3.0832181031315007 7.051322970854856 24.683361754952614 1 0 0
584 2 0.39227828014814203 7.787335974384158 19.913639811227355 0 0 0
211 2 2.0612912012813327 12.336040268306123 23.0047051455008 0 0 0
545 2 1.3299629838598919 6.936416141403655 25.99055970510529 0 0 -1
413 2 3.938204603705514 9.500075952556836 19.860710977206253 0 0 -1
792 2 -0.27092869312671664 9.892064652806425 20.75565678493662 0 0 0
705 2 11.493996601701637 8.706659853446453 19.533636134045615 0 1 0
529 2 3.968890187452865 12.168275056373457 24.379397850713552 1 0 0
683 2 4.565776509327186 10.349734079813448 25.76994592239648 0 0 0
97 1 5.090883136504723 11.426099248129558 21.31696752033335 0 0 -1
894 2 4.610879145635739 8.787200891341191 23.968394489055775 0 0 -1
671 2 6.629644444860232 8.19220477049056 23.196135448151715 0 0 -1
655 2 6.488973845915424 7.098504377476258 21.099124994207692 0 0 -1
400 2 7.629557936441497 7.103203625686112 24.892638149923812 1 0 0
938 2 7.392578220787461 10.492567590455378 22.446347860655884 0 0 0
180 2 5.674232886464588 12.09065504442527 22.52404757486488 0 0 0
374 2 8.001468241761453 9.996009793315212 20.24866008989273 0 0 0
913 2 9.671449156730736 8.319486410496905 21.09900300163575 0 0 0
132 1 11.600085499822663 10.114351705476125 22.140782801694748 0 -1 -1
382 2 8.910377779755756 10.700038084713643 26.010498723198907 1 0 -1
946 2 -0.523763361164514 7.507192605062231 24.739155002777053 0 0 -1
645 2 8.72698831577351 6.19655692064768 21.567766008339824 0 1 0
434 2 12.32759650492322 10.875033719703328 20.077610495940135 0 0 0
827 2 12.13964903672546 7.775152551045121 23.991427891067886 0 0 -1
884 2 9.353766727287718 10.945235071385136 23.755740899910364 0 0 -1
542 2 10.836370306268917 12.65709131135202 23.03451614702506 0 0 0
332 2 10.733834373795961 9.226159764217112 22.951827248376482 0 0 0
812 2 10.764124060503484 12.600084310691793 20.546889396414556 0 0 0
803 2 -0.5665509147799297 11.859998024850437 19.47941185801872 0 0 0
341 2 0.7325056781002965 6.077254678063919 21.490065302532777 0 0 0
914 2 0.820796895853348 17.24023148415332 2.043704212901366 0 0 0
469 2 2.2642409683764906 18.61385582121128 3.129212096117245 0 0 0
962 2 2.9703567934257977 14.009277966377748 0.8614587323796217 0 0 0
787 2 1.5505203445744784 15.749881979180175 0.37099325471612277 0 0 0
339 2 2.10065284011164 18.982381001743875 5.461569989476892 1 0 0
532 2 1.6472681055258493 13.345463287127366 4.745173870296381 0 0 0
445 2 -0.22958518895556634 14.628889028912763 5.0342617933862925 1 0 1
370 2 -0.3306465300311166 18.790469936758186 0.7784313800885552 1 0 0
172 2 3.9030787528807984 14.197199686466046 4.904292922277312 0 0 0
485 2 8.623886666135835 16.80006878098507 -0.2097243725498385 0 0 1
985 2 4.428213392154273 14.866546073059551 2.705381380442753 1 0 1
647 2 4.392916874735717 17.29926919803551 2.755088168767838 0 0 0
881 2 5.265655901175564 17.643627870981447 4.948281264313908 0 -1 0
409 2 5.74929601009527 18.438719217317924 1.1854538885631913 1 0 0
888 2 6.556148278644409 13.66180107963224 2.2615635791944984 1 0 0
932 2 7.821489240038678 18.72120854850135 2.490036913366518 0 0 0
544 2 6.689224656987621 13.317092034448821 -0.13704304705194498 0 0 1
449 2 7.329217877233555 16.98914819023897 4.081696934621647 0 0 1
3 1 7.156765373987708 15.677388806875415 3.43166630396329 0 1 0
676 2 -0.5440220642079672 15.408868789601476 -0.22063894916303134 0 0 0
712 2 9.881647804192873 15.446887130259084 1.6411171607060284 0 0 0
929 2 9.38602155798464 18.929582842796954 0.6692959470644917 0 0 0
404 2 10.973582154216963 19.00655992123327 3.7794684071865987 0 0 1
897 2 11.021350195281087 15.587785933864792 5.816836343390524 0 0 1
322 2 11.343187148750703 14.049890899609167 0.36867688597282045 0 0 0
166 2 10.365264524810438 17.839998157404835 5.702212845529919 0 0 0
693 2 9.513919578850901 13.9497436802018 5.277353682604503 0 0 1
171 2 8.860280695185747 14.0085586086785 3.0392847968689973 0 0 0
273 2 11.00146659027368 17.62217159747047 1.9193829585393178 1 0 0
839 2 8.12478825885357 17.99533253487636 6.016770237225099 0 0 0
906 2 1.8661819674748452 16.104532902870396 11.81128678038119 0 0 0
261 2 0.5103213165319638 17.548408056782833 10.432853409662052 1 0 0
725 2 1.8505795850040503 13.818114148842378 11.250179876549291 0 0 0
745 2 2.0496192968638685 18.4793173469591 8.872852338310942 0 0 0
548 2 1.6937628444693509 17.27988708271461 6.98540445810794 1 0 0
58 1 1.9946086003771866 14.26664742480189 8.072145685671085 0 1 0
958 2 1.3663779328708112 13.383728024839414 9.1213531294187 0 0 0
202 2 -0.42627347326169746 16.253453306652858 6.793557371383096 0 0 1
797 2 3.9781637213058376 17.418226745669685 11.86894871249808 0 0 0
909 2 3.822893065462659 16.19358872948404 6.361395196607661 0 0 0
769 2 4.0678437720509315 13.595552948505226 11.471310242513644 0 0 0
549 2 4.208787423575295 17.846667000418144 9.450969484549475 0 0 0
361 2 5.378561816743829 13.849028157300593 9.55236919752977 0 0 0
694 2 5.09713079994389 15.89530788091176 8.374973457352665 0 -1 0
550 2 7.318533901641365 16.437663455044543 7.538107193280368 1 0 0
235 2 7.587734561672246 13.875722264187683 10.53169556621742 0 0 0
220 2 7.880614547992268 16.017921075089077 11.395247350157904 1 0 0
626 2 7.829332070647659 14.237656257790709 6.7713712072381735 0 0 0
5 1 4.550853798691156 14.735646363853837 12.303284793681064 0 0 -1
811 2 6.010983716696864 16.688345555274765 12.65282773911623 0 0 0
393 2 8.829942353192127 13.192871152944965 8.600939486261819 0 0 0
748 2 11.883179999453347 15.35891935490924 8.083693509052914 0 -1 0
502 2 7.754199656823015 19.349266539098366 9.858617271674461 0 0 0
762 2 11.101629915324736 17.403349125143627 8.919150203904481 0 0 0
978 2 11.492899253632974 18.972536707913605 7.284031858778181 0 -1 0
487 2 11.122689068712088 14.061393856020334 11.550892440256094 0 0 0
651 2 -0.08765008370738792 19.372827448481893 12.097368100807047 1 0 0
961 2 11.132398715742283 13.54390824648891 9.253805759377606 0 0 0
774 2 12.568668277829705 17.900661411021836 10.785928279585297 1 0 0
603 2 8.561917392261483 17.248112321456233 9.377683173153848 0 0 0
405 2 9.74292027795108 15.684769352597668 12.698730707047872 0 0 0
718 2 11.371787384554795 17.342522964999468 12.72478834493844 0 0 0
650 2 5.69510933793499 12.926746485562164 6.077907007188551 0 0 0
610 2 1.2711736039899673 17.690177991342544 14.955520353491625 0 0 0
228 2 0.4307034506674965 16.02055808024877 13.562790184753666 0 0 0
436 2 1.1280603757167154 13.93682043968269 14.470364475361986 1 0 0
714 2 0.010157858637299788 13.422630404548057 16.370051121814264 1 -1 0
892 2 0.3209352714869699 15.369692072867712 17.65792818474707 1 0 0
823 2 3.2406435707263794 17.17669637654204 16.116025446493325 1 0 0
456 2 2.540911881788843 15.79046052777254 18.00141261409167 0 0 0
310 2 -0.09395568383203046 17.573531339423738 16.895943558494814 0 0 0
904 2 0.8925021323772893 18.481024289377046 18.984637250847 0 0 0
680 2 3.4685799515894358 13.812231177880586 14.895461995884435 0 0 0
822 2 3.990028783710434 19.33854281371849 16.671360388471037 0 -1 0
344 2 4.029696282758902 14.310037198637461 17.056556164454626 0 0 0
802 2 5.5420593350920555 14.931619482382962 14.20765200686405 0 0 0
546 2 5.300739722690367 16.103102298187125 16.17548826382975 0 0 0
692 2 6.975117466510934 18.634484903659114 13.856766387912273 0 0 0
423 2 6.909166072966366 17.202317186993398 17.522539010773336 0 0 0
972 2 7.235465381807797 13.413156316722748 14.333213474335796 1 0 0
280 2 5.847359396049784 19.191546772154616 18.35147325005348 0 0 0
617 2 8.47062838467232 16.0710194310654 18.953107401938958 0 0 0
928 2 12.649543085563781 14.20831228767439 15.133770844957734 0 0 0
776 2 10.569680205846053 15.671594247436898 17.898032471426085 0 0 -1
520 2 8.268236542082741 17.503865396513696 15.586399633064383 0 -1 -1
623 2 8.859089851445106 15.155740923925958 14.792743827158404 0 0 -1
757 2 10.506401278667182 14.131741827091004 16.041163390001437 0 0 0
704 2 11.235557346343134 19.328290333290703 13.94054361564405 0 0 0
488 2 10.320640060795332 18.588163849970513 16.01788903574767 0 0 0
515 2 11.671880559032612 17.609338111340172 17.526385406577617 0 -1 0
688 2 5.4730287343104305 12.770188947635736 18.32618814734215 0 0 0
872 2 0.3055440708352398 17.743364693919546 22.590995661297995 1 1 0
986 2 1.6802004642673247 16.021162628136196 23.388467731952368 1 0 0
844 2 0.3126019567452796 14.019784213441833 23.348311267406878 1 0 0
331 2 2.778669682427213 16.811207515898083 25.282698694224656 0 0 -1
326 2 3.121713823793575 15.496104025379667 21.723064446955938 0 0 -1
703 2 2.3433909414208256 13.40607977366596 20.944037352058587 0 0 0
336 2 2.678949563611779 19.120846058140486 25.285568003627148 0 0 -1
721 2 -0.006838151994610908 13.799376295698954 20.8884099146308 1 0 0
377 2 3.052878947918031 16.998130474160966 19.852320152385126 0 0 0
719 2 9.692980878901155 15.938074521243442 24.47774813840188 0 1 0
395 2 6.408447879523591 18.811241572445994 24.086936515402087 0 0 -1
992 2 4.986298523231152 15.851106760234812 24.932337436568552 0 0 0
428 2 5.310121635917409 15.780559421284357 22.591193363590953 0 0 0
452 2 6.11356410856115 17.876220621836573 21.907497239287416 1 0 -1
600 2 6.659099416123684 13.97476170827964 21.67250682573316 0 0 0
800 2 4.659895080180561 18.586824277116506 20.15917423304188 1 0 0
65 1 7.970590047393882 14.1073486936577 22.441496090303417 0 0 0
691 2 6.393770381996324 17.287984733626196 25.981885591886893 0 0 -1
760 2 4.4865085739266055 13.880608970464733 25.821781128059733 0 0 0
375 2 8.283169129475555 17.535202544186212 21.03240139167125 0 0 0
567 2 11.291463127602789 18.70698262300116 19.48372255621843 0 0 0
126 1 10.48254509718762 14.085790065152382 23.20929144065159 -1 -1 -1
934 2 11.23717117576174 19.244181020942143 25.731016976838816 0 0 -1
788 2 11.893075910228832 15.48926713006801 25.215063907820984 0 0 0
148 1 8.760654571546445 14.709186299450812 24.268996282666066 0 0 -1
205 2 11.912782019547285 14.480891956999201 19.553283928411 0 0 0
866 2 9.823238945942908 17.48513705965042 22.71885992707388 0 0 0
585 2 11.77140840575753 17.69964079778913 21.60314835024998 0 0 0
229 2 -0.5461466810535202 17.76347735774246 20.505341464707513 0 0 -1
64 1 7.7600271186652705 13.749887355198545 25.64711646505213 0 0 -1
801 2 7.455796449939426 13.97375307733749 19.500094806360565 0 0 0
278 2 1.6182429800877456 19.43959275562608 23.202482856857678 1 0 0
841 2 1.3760304504273813 20.236291807215565 0.0728723195744928 0 0 0
772 2 1.1195472958481467 22.284398046691116 3.3729409253834364 1 0 0
923 2 2.488114249334657 20.813542768210397 2.065191392096355 0 0 0
554 2 2.512199665053161 25.299542763494884 1.8397907391746684 0 -1 0
406 2 0.5597953180109385 24.274822751734227 2.252090261557383 1 0 0
592 2 2.4566086274023258 22.694470886569093 5.337633278700573 1 -1 1
636 2 -0.01960725871355251 19.806939770809493 5.583385335944289 0 0 0
644 2 3.8434643300472358 25.6971762961225 3.887325326699151 1 -1 0
735 2 11.75232284831085 25.283498706514273 3.428799105894809 0 -1 1
421 2 6.41339963927741 19.566182167065712 5.74705697848891 0 -1 0
753 2 4.010849427889185 23.98481823639038 0.6393832642570938 0 0 0
899 2 4.56461056852683 23.75812147028295 4.987294611772401 0 0 0
386 2 4.504346483246693 21.926021737331773 1.6289539333795462 0 0 0
247 2 5.786009837167594 22.388573305288467 3.601936073573868 0 -1 0
658 2 7.426338945640326 20.619556870679823 3.9143029104303606 0 -1 0
563 2 5.795710703575715 20.518683081131023 0.34125059664443436 0 0 0
468 2 7.520142983811917 23.757552757378093 2.67064997344272 0 -1 0
594 2 5.952419964206611 25.57743025255006 0.255397469059387 0 0 1
391 2 8.01632432555277 20.969513802972074 -0.022857668206459625 0 0 0
492 2 7.18824104733567 26.04119066243458 2.1098212782360037 0 0 1
162 2 11.876221112827379 24.90614687324058 -0.0779485034739914 0 -1 0
997 2 11.191320692355086 23.050901677267326 3.082834139673013 0 -1 1
794 2 12.346063293353371 21.302256765792485 -0.4906925962641713 0 0 0
127 1 9.85519962316472 20.14131152203013 3.8165562021858834 -1 1 0
248 2 9.23793574762607 23.778778058026667 5.923800497671848 0 -1 0
258 2 10.85779728538411 22.783283021838514 0.6025339982884579 0 0 0
695 2 8.884830743801723 22.571670788409556 4.015349258436046 1 -1 0
398 2 8.424303043092356 23.139678983579003 0.4721442234699469 0 0 1
234 2 10.09528854005622 25.96425734859495 5.106063782840404 0 -1 0
547 2 -0.5763790062355321 26.00508176328188 3.2466001563912488 1 -1 1
652 2 1.8332464463863545 20.682117063059394 8.529191387562612 0 0 0
419 2 2.8909323304991084 22.06394995749676 10.042632711815783 1 -1 0
320 2 1.3125204149586769 23.137444541487902 11.364573136955713 0 -1 0
227 2 0.08706386813731692 21.39472303694751 7.290147739223672 1 -1 0
635 2 1.0845471025646887 23.524353507800072 7.0424806610233395 1 0 0
513 2 2.137012105066571 25.03910784868858 8.706904007846402 0 0 0
649 2 0.6031713724758188 25.251367946993852 10.414947145714752 0 0 0
750 2 3.119276610492826 20.691953417627097 6.582178724417252 0 0 0
494 2 8.497397568225418 21.223231615501852 8.780669992395307 0 0 0
182 2 -0.5722287208746621 21.66751325888051 11.603146581581282 0 0 0
303 2 5.591337557892271 25.822433726666823 11.908053597111065 0 0 0
498 2 4.183381389126057 23.82118108465881 8.968807118935887 0 0 0
736 2 4.385199909506088 20.79138228431092 11.227206761655601 0 0 0
353 2 5.183852018147416 20.95179708430802 7.245863692537366 0 0 0
451 2 5.52827842659257 23.33559720286806 7.12916581501841 0 0 0
470 2 5.962038237134554 23.81198105732185 10.739319532857214 0 -1 0
152 2 6.13659544610596 21.937488453028138 12.063427372049842 0 -1 0
458 2 7.550324028242363 24.567500178054765 7.420485459352458 0 0 0