 vasp.6.5.0 16Dec24 (build Jan 20 2025 08:32:48) complex                         
 executed on        HPECrayEX_GCC date 2025.07.22  08:54:43
 running  128 mpi-ranks, with    1 threads/rank, on    1 nodes
 distrk:  each k-point on  128 cores,    1 groups
 distr:  one band on NCORE=  16 cores,    8 groups


--------------------------------------------------------------------------------------------------------


 INCAR:
   SYSTEM = a-Si SPC
   NCORE = 16
   ISTART = 1
   ICHARG = 1
   ISPIN = 1
   ISYM = 1
   EDIFF = 1E-6
   NELM = 150
   EDIFFG = -0.01
   NSW = 0
   ISIF = 2
   IBRION = -1
   PREC = Accurate
   ENCUT = 1200
   KSPACING = 0.23
   KGAMMA = .TRUE.
   METAGGA = SCAN
   LASPH = .TRUE.
   LDIAG = .FALSE.
   LMIXTAU = .TRUE.
   ADDGRID = .TRUE.
   ALGO = Normal
   ISMEAR = 0
   SIGMA = 0.1
   LORBIT = 11
   NEDOS = 2000
   LWAVE = .FALSE.
   LCHARG = .FALSE.

 POTCAR:    PAW_PBE H 15Jun2001                   
 POTCAR:    PAW_PBE Si 05Jan2001                  
 POTCAR:    PAW_PBE H 15Jun2001                   
   SHA256 =  030f79b5d3ab3cf0e668861823c8fb652ff669f3e15e46930bd03bfd63a607b6 H/POTCAR              
   COPYR  = (c) Copyright 15Jun2001 Georg Kresse                                                    
   COPYR  = This file is part of the software VASP. Any use, copying, and all other rights are regul
   COPYR  = If you do not have a valid VASP license, you may not use, copy or distribute this file. 
   VRHFIN =H: ultrasoft test                                                                        
   LEXCH  = PE                                                                                      
   EATOM  =    12.4884 eV,    0.9179 Ry                                                             
                                                                                                    
   TITEL  = PAW_PBE H 15Jun2001                                                                     
   LULTRA =        F    use ultrasoft PP ?                                                          
   IUNSCR =        0    unscreen: 0-lin 1-nonlin 2-no                                               
   RPACOR =    0.000    partial core radius                                                         
   POMASS =    1.000; ZVAL   =    1.000    mass and valenz                                          
   RCORE  =    1.100    outmost cutoff radius                                                       
   RWIGS  =    0.700; RWIGS  =    0.370    wigner-seitz radius (au A)                               
   ENMAX  =  250.000; ENMIN  =  200.000 eV                                                          
   RCLOC  =    0.701    cutoff for local pot                                                        
   LCOR   =        T    correct aug charges                                                         
   LPAW   =        T    paw PP                                                                      
   EAUG   =  400.000                                                                                
   RMAX   =    1.123    core radius for proj-oper                                                   
   RAUG   =    1.200    factor for augmentation sphere                                              
   RDEP   =    1.112    radius for radial grids                                                     
   RDEPT  =    0.926    core radius for aug-charge                                                  
                                                                                                    
   Atomic configuration                                                                             
    2 entries                                                                                       
     n  l   j            E        occ.                                                              
     1  0  0.50        -6.4927   1.0000                                                             
     2  1  0.50        -3.4015   0.0000                                                             
   Description                                                                                      
     l       E           TYP  RCUT    TYP  RCUT                                                     
     0     -6.4927494     23  1.100                                                                 
     0      6.8029130     23  1.100                                                                 
     1     -4.0817478     23  1.100                                                                 
  local pseudopotential read in
  atomic valenz-charges read in
  non local Contribution for L=           0  read in
    real space projection operators read in
  non local Contribution for L=           0  read in
    real space projection operators read in
  non local Contribution for L=           1  read in
    real space projection operators read in
    PAW grid and wavefunctions read in

   number of l-projection  operators is LMAX  =           3
   number of lm-projection operators is LMMAX =           5

 POTCAR:    PAW_PBE Si 05Jan2001                  
   SHA256 =  79d9987ad8750f624c4d6acb2a16d13abf6a777132adc04dc6c8399be72b42bb Si/POTCAR             
   COPYR  = (c) Copyright 05Jan2001 Georg Kresse                                                    
   COPYR  = This file is part of the software VASP. Any use, copying, and all other rights are regul
   COPYR  = If you do not have a valid VASP license, you may not use, copy or distribute this file. 
   VRHFIN =Si: s2p2                                                                                 
   LEXCH  = PE                                                                                      
   EATOM  =   103.0669 eV,    7.5752 Ry                                                             
                                                                                                    
   TITEL  = PAW_PBE Si 05Jan2001                                                                    
   LULTRA =        F    use ultrasoft PP ?                                                          
   IUNSCR =        1    unscreen: 0-lin 1-nonlin 2-no                                               
   RPACOR =    1.500    partial core radius                                                         
   POMASS =   28.085; ZVAL   =    4.000    mass and valenz                                          
   RCORE  =    1.900    outmost cutoff radius                                                       
   RWIGS  =    2.480; RWIGS  =    1.312    wigner-seitz radius (au A)                               
   ENMAX  =  245.345; ENMIN  =  184.009 eV                                                          
   ICORE  =        2    local potential                                                             
   LCOR   =        T    correct aug charges                                                         
   LPAW   =        T    paw PP                                                                      
   EAUG   =  322.069                                                                                
   DEXC   =    0.000                                                                                
   RMAX   =    1.950    core radius for proj-oper                                                   
   RAUG   =    1.300    factor for augmentation sphere                                              
   RDEP   =    1.993    radius for radial grids                                                     
   RDEPT  =    1.837    core radius for aug-charge                                                  
                                                                                                    
   Atomic configuration                                                                             
    6 entries                                                                                       
     n  l   j            E        occ.                                                              
     1  0  0.50     -1785.8828   2.0000                                                             
     2  0  0.50      -139.4969   2.0000                                                             
     2  1  1.50       -95.5546   6.0000                                                             
     3  0  0.50       -10.8127   2.0000                                                             
     3  1  0.50        -4.0811   2.0000                                                             
     3  2  1.50        -4.0817   0.0000                                                             
   Description                                                                                      
     l       E           TYP  RCUT    TYP  RCUT                                                     
     0    -10.8127223     23  1.900                                                                 
     0     -7.6451159     23  1.900                                                                 
     1     -4.0811372     23  1.900                                                                 
     1      2.4879257     23  1.900                                                                 
     2     -4.0817478      7  1.900                                                                 
  local pseudopotential read in
  partial core-charges read in
  partial kinetic energy density read in
  atomic valenz-charges read in
  non local Contribution for L=           0  read in
    real space projection operators read in
  non local Contribution for L=           0  read in
    real space projection operators read in
  non local Contribution for L=           1  read in
    real space projection operators read in
  non local Contribution for L=           1  read in
    real space projection operators read in
    PAW grid and wavefunctions read in

   number of l-projection  operators is LMAX  =           4
   number of lm-projection operators is LMMAX =           8

 -----------------------------------------------------------------------------
|                                                                             |
|               ----> ADVICE to this user running VASP <----                  |
|                                                                             |
|     You have a (more or less) 'large supercell' and for larger cells it     |
|     might be more efficient to use real-space projection operators.         |
|     Therefore, try LREAL= Auto in the INCAR file.                           |
|     Mind: For very accurate calculation, you might also keep the            |
|     reciprocal projection scheme (i.e. LREAL=.FALSE.).                      |
|                                                                             |
 -----------------------------------------------------------------------------

 -----------------------------------------------------------------------------
|                                                                             |
|               ----> ADVICE to this user running VASP <----                  |
|                                                                             |
|     You enforced a specific xc type in the INCAR file but a different       |
|     type was found in the POTCAR file.                                      |
|     I HOPE YOU KNOW WHAT YOU ARE DOING!                                     |
|                                                                             |
 -----------------------------------------------------------------------------

  PAW_PBE H 15Jun2001                   :
 energy of atom  1       EATOM=  -12.4884
 kinetic energy error for atom=    0.0000 (will be added to EATOM!!)
  PAW_PBE Si 05Jan2001                  :
 energy of atom  2       EATOM= -103.0669
 kinetic energy error for atom=    0.0001 (will be added to EATOM!!)


 POSCAR:  H Si
  positions in cartesian coordinates
  No initial velocities read in


 exchange-correlation table for SCAN
   RHO(1)=    0.500       N(1)  =     2000
   RHO(2)=  100.500       N(2)  =     4000



--------------------------------------------------------------------------------------------------------


 ion  position               nearest neighbor table
   1  0.829  0.858  0.548-  65 1.44
   2  0.867  0.691  0.473-  17 1.50
   3  0.972  0.784  0.548-  38 1.48
   4  0.033  0.164  0.422-  59 2.32  31 2.37
   5  0.202  0.221  0.520-  63 2.31  57 2.38  59 2.43  54 2.66  30 2.86
   6  0.679  0.756  0.480-  17 2.27  23 2.27  11 2.31  25 2.44
   7  0.674  0.495  0.513-  51 2.21  43 2.29  23 2.31  22 2.33
   8  0.818  0.061  0.561-  32 2.31  55 2.38  65 2.45
   9  0.089  0.962  0.513-  59 2.38  32 2.43  28 2.45  24 2.51
  10  0.426  0.191  0.425-  33 2.28  61 2.33  54 2.34
  11  0.645  0.898  0.514-  65 2.21  48 2.28   6 2.31  29 2.41
  12  0.483  0.919  0.395-  29 2.21  72 2.35
  13  0.402  0.991  0.516-  42 2.27  33 2.31  72 2.32  48 2.34
  14  0.345  0.727  0.607-  40 2.26  44 2.30  60 2.42
  15  0.240  0.016  0.409-  72 2.31  59 2.40
  16  0.388  0.263  0.622-  46 2.42  63 2.49
  17  0.810  0.740  0.434-   2 1.50   6 2.27  53 2.35
  18  0.815  0.286  0.595-  64 2.30  34 2.40  39 2.50
  19  0.415  0.388  0.488-  54 2.27  62 2.30  46 2.35  49 2.45
  20  0.219  0.388  0.398-  21 2.29  54 2.38
  21  0.131  0.470  0.453-  69 2.25  20 2.29  57 2.42  41 2.44
  22  0.584  0.428  0.575-  64 2.29   7 2.33  46 2.45
  23  0.702  0.645  0.539-   6 2.27   7 2.31  37 2.35  58 2.42
  24  0.047  0.865  0.438-  50 2.27  53 2.36   9 2.51
  25  0.566  0.668  0.432-  27 2.32  43 2.32   6 2.44
  26  0.333  0.758  0.439-  66 2.25  72 2.34  27 2.44
  27  0.442  0.667  0.487-  25 2.32  62 2.35  40 2.40  26 2.44
  28  0.189  0.918  0.583-  42 2.30  44 2.34   9 2.45
  29  0.592  0.982  0.441-  12 2.21  52 2.29  33 2.33  11 2.41
  30  0.025  0.181  0.562-  32 2.29  31 2.38  39 2.38   5 2.86  57 2.92
  31  0.963  0.249  0.488-  34 2.26   4 2.37  30 2.38  57 2.41
  32  0.975  0.032  0.568-  30 2.29   8 2.31   9 2.43
  33  0.502  0.096  0.479-  10 2.28  13 2.31  29 2.33  70 2.35
  34  0.812  0.269  0.505-  55 2.24  31 2.26  51 2.28  18 2.40
  35  0.118  0.675  0.617-  36 2.26  44 2.33  38 2.39
  36  0.143  0.533  0.586-  35 2.26  67 2.34  69 2.39
  37  0.590  0.673  0.601-  40 2.29  23 2.35
  38  0.967  0.715  0.589-   3 1.48  58 2.34  35 2.39
  39  0.981  0.300  0.619-  67 2.32  30 2.38  18 2.50
  40  0.475  0.753  0.562-  14 2.26  37 2.29  48 2.35  27 2.40
  41  0.998  0.572  0.456-  68 2.31  50 2.39  71 2.44  21 2.44
  42  0.308  0.023  0.582-  13 2.27  28 2.30  63 2.39
  43  0.617  0.517  0.434-   7 2.29  49 2.30  25 2.32  47 2.55
  44  0.211  0.762  0.565-  14 2.30  35 2.33  28 2.34  66 2.46
  45  0.673  0.203  0.376-  61 2.20  52 2.32
  46  0.486  0.299  0.551-  70 2.31  19 2.35  16 2.42  22 2.45
  47  0.764  0.446  0.398-  51 2.31  68 2.38  43 2.55
  48  0.514  0.910  0.561-  11 2.28  13 2.34  40 2.35
  49  0.503  0.414  0.411-  61 2.22  43 2.30  19 2.45
  50  0.077  0.712  0.438-  66 2.24  24 2.27  41 2.39
  51  0.793  0.419  0.482-   7 2.21  34 2.28  47 2.31  71 2.38
  52  0.715  0.071  0.419-  29 2.29  55 2.32  45 2.32
  53  0.901  0.860  0.401-  17 2.35  24 2.36
  54  0.311  0.294  0.451-  19 2.27  10 2.34  20 2.38   5 2.66
  55  0.733  0.137  0.497-  34 2.24  52 2.32  70 2.32   8 2.38
  56  0.623  0.136  0.610-  70 2.29
  57  0.094  0.343  0.509-  67 2.38   5 2.38  31 2.41  21 2.42  30 2.92
  58  0.849  0.608  0.577-  71 2.27  38 2.34  23 2.42
  59  0.146  0.093  0.470-   4 2.32   9 2.38  15 2.40   5 2.43
  60  0.358  0.561  0.608-  14 2.42  62 2.45
  61  0.562  0.274  0.417-  45 2.20  49 2.22  10 2.33
  62  0.375  0.531  0.518-  19 2.30  69 2.33  27 2.35  60 2.45
  63  0.249  0.173  0.599-   5 2.31  42 2.39  16 2.49
  64  0.708  0.390  0.624-  22 2.29  18 2.30
  65  0.754  0.907  0.571-   1 1.44  11 2.21   8 2.45
  66  0.211  0.699  0.479-  50 2.24  26 2.25  69 2.26  44 2.46
  67  0.022  0.430  0.573-  39 2.32  71 2.32  36 2.34  57 2.38
  68  0.909  0.521  0.389-  41 2.31  47 2.38
  69  0.218  0.552  0.507-  21 2.25  66 2.26  62 2.33  36 2.39
  70  0.595  0.189  0.531-  56 2.29  46 2.31  55 2.32  33 2.35
  71  0.911  0.503  0.525-  58 2.27  67 2.32  51 2.38  41 2.44
  72  0.349  0.918  0.444-  15 2.31  13 2.32  26 2.34  12 2.35

  LATTYP: Found a simple tetragonal cell.
 ALAT       =    14.5307357155
 C/A-ratio  =     1.8313728720
  
  Lattice vectors:
  
 A1 = (  14.5307357155,   0.0000000000,   0.0000000000)
 A2 = (   0.0000000000,  14.5307357155,   0.0000000000)
 A3 = (   0.0000000000,   0.0000000000,  26.6111952000)


Analysis of symmetry for initial positions (statically):
=====================================================================
 Subroutine PRICEL returns:
 Original cell was already a primitive cell.
 

 Routine SETGRP: Setting up the symmetry group for a 
 simple tetragonal supercell.


 Subroutine GETGRP returns: Found  1 space group operations
 (whereof  1 operations were pure point group operations)
 out of a pool of 16 trial point group operations.


The static configuration has the point symmetry C_1 .


Analysis of symmetry for dynamics (positions and initial velocities):
=====================================================================
 Subroutine PRICEL returns:
 Original cell was already a primitive cell.
 

 Routine SETGRP: Setting up the symmetry group for a 
 simple tetragonal supercell.


 Subroutine GETGRP returns: Found  1 space group operations
 (whereof  1 operations were pure point group operations)
 out of a pool of 16 trial point group operations.


The dynamic configuration has the point symmetry C_1 .


 Subroutine INISYM returns: Found  1 space group operations
 (whereof  1 operations are pure point group operations),
 and found     1 'primitive' translations


----------------------------------------------------------------------------------------

                                     Primitive cell                                     

  volume of cell :    5618.7484

  direct lattice vectors                    reciprocal lattice vectors
    14.530735716  0.000000000  0.000000000     0.068819640  0.000000000  0.000000000
     0.000000000 14.530735716  0.000000000     0.000000000  0.068819640  0.000000000
     0.000000000  0.000000000 26.611195200     0.000000000  0.000000000  0.037578169

  length of vectors
    14.530735716 14.530735716 26.611195200     0.068819640  0.068819640  0.037578169

  position of ions in fractional coordinates (direct lattice)
     0.828905035  0.857761110  0.548266814
     0.867113699  0.691251991  0.472523880
     0.972132470  0.784055276  0.548070656
     0.032970595  0.163696460  0.422090219
     0.202470822  0.220992940  0.520191788
     0.679450111  0.755722230  0.480123689
     0.674409073  0.495471815  0.512906508
     0.818444450  0.061185753  0.561187316
     0.088643137  0.962208678  0.513401788
     0.426054821  0.190675824  0.424974343
     0.644826262  0.897834787  0.513820785
     0.483460723  0.918563262  0.394553951
     0.401802780  0.991415733  0.515682407
     0.345019006  0.726838627  0.607128882
     0.240095895  0.015543742  0.409161938
     0.388316195  0.263091978  0.622383364
     0.810151683  0.740224047  0.434081412
     0.814886475  0.286198860  0.595012553
     0.415476554  0.387658967  0.488193976
     0.219306858  0.387786972  0.397662943
     0.131025712  0.469550210  0.453466487
     0.584028928  0.428133174  0.575272365
     0.702029147  0.644623244  0.538929766
     0.047387071  0.865317507  0.438488580
     0.566075260  0.668385290  0.432278036
     0.332592244  0.757869403  0.438526534
     0.441718859  0.666964164  0.487103458
     0.189203771  0.918432505  0.583281025
     0.591685113  0.982421006  0.441421932
     0.025283441  0.181228952  0.561767523
     0.963123979  0.248951606  0.487857276
     0.974616859  0.032448942  0.567911929
     0.501812169  0.095721237  0.479296217
     0.812457141  0.268875580  0.505294298
     0.117713930  0.674844701  0.617345259
     0.143209542  0.532783071  0.585971997
     0.590478016  0.673201976  0.600990488
     0.967122400  0.715077351  0.589014702
     0.980858800  0.299983434  0.618617656
     0.474683466  0.752831805  0.562098210
     0.997650792  0.571762515  0.455618964
     0.308409711  0.022874822  0.581894766
     0.616765054  0.516690287  0.433703752
     0.211477936  0.762480319  0.564877116
     0.673138662  0.203448061  0.375781694
     0.485631295  0.298523770  0.550944258
     0.764338449  0.446272655  0.398449003
     0.513875563  0.909781876  0.560631535
     0.503223659  0.414347224  0.411104278
     0.077122041  0.711629487  0.437633677
     0.793387219  0.418914783  0.482495247
     0.715042941  0.071103076  0.418908475
     0.900683920  0.859873873  0.400655631
     0.311415064  0.293551551  0.450544784
     0.733025513  0.137343355  0.497458498
     0.622508053  0.135873368  0.610317766
     0.094406782  0.342601373  0.508533161
     0.848635626  0.608195633  0.577167808
     0.146152269  0.093254053  0.469935871
     0.357616442  0.561003253  0.608329129
     0.562110561  0.273807196  0.416896164
     0.375479956  0.530766656  0.518457555
     0.248727254  0.172663659  0.599107822
     0.707706767  0.389642349  0.624218306
     0.754043031  0.906740048  0.571220311
     0.210581216  0.699049257  0.479338681
     0.022083121  0.429700885  0.573365649
     0.909031742  0.520644663  0.389344339
     0.218138301  0.551924566  0.506872957
     0.594511535  0.188726163  0.530581024
     0.911378492  0.502648327  0.524662087
     0.348930027  0.917950767  0.443667603

  ion indices of the primitive-cell ions
   primitive index   ion index
                 1           1
                 2           2
                 3           3
                 4           4
                 5           5
                 6           6
                 7           7
                 8           8
                 9           9
                10          10
                11          11
                12          12
                13          13
                14          14
                15          15
                16          16
                17          17
                18          18
                19          19
                20          20
                21          21
                22          22
                23          23
                24          24
                25          25
                26          26
                27          27
                28          28
                29          29
                30          30
                31          31
                32          32
                33          33
                34          34
                35          35
                36          36
                37          37
                38          38
                39          39
                40          40
                41          41
                42          42
                43          43
                44          44
                45          45
                46          46
                47          47
                48          48
                49          49
                50          50
                51          51
                52          52
                53          53
                54          54
                55          55
                56          56
                57          57
                58          58
                59          59
                60          60
                61          61
                62          62
                63          63
                64          64
                65          65
                66          66
                67          67
                68          68
                69          69
                70          70
                71          71
                72          72

----------------------------------------------------------------------------------------


 -----------------------------------------------------------------------------
|                                                                             |
|           W    W    AA    RRRRR   N    N  II  N    N   GGGG   !!!           |
|           W    W   A  A   R    R  NN   N  II  NN   N  G    G  !!!           |
|           W    W  A    A  R    R  N N  N  II  N N  N  G       !!!           |
|           W WW W  AAAAAA  RRRRR   N  N N  II  N  N N  G  GGG   !            |
|           WW  WW  A    A  R   R   N   NN  II  N   NN  G    G                |
|           W    W  A    A  R    R  N    N  II  N    N   GGGG   !!!           |
|                                                                             |
|     The requested file  could not be found or opened for reading            |
|     k-point information. Automatic k-point generation is used as a          |
|     fallback, which may lead to unwanted results.                           |
|                                                                             |
 -----------------------------------------------------------------------------



Automatic generation of k-mesh.
 Grid dimensions derived from KSPACING:
 generate k-points for:    2    2    2

 Generating k-lattice:

  Cartesian coordinates                     Fractional coordinates (reciprocal lattice)
     0.034409820  0.000000000  0.000000000     0.500000000  0.000000000  0.000000000
     0.000000000  0.034409820  0.000000000     0.000000000  0.500000000  0.000000000
     0.000000000  0.000000000  0.018789085     0.000000000  0.000000000  0.500000000

  Length of vectors
     0.034409820  0.034409820  0.018789085

  Shift w.r.t. Gamma in fractional coordinates (k-lattice)
     0.000000000  0.000000000  0.000000000

 
 Subroutine IBZKPT returns following result:
 ===========================================
 
 Found      8 irreducible k-points:
 
 Following reciprocal coordinates:
            Coordinates               Weight
  0.000000  0.000000  0.000000      1.000000
  0.500000  0.000000  0.000000      1.000000
  0.000000  0.500000  0.000000      1.000000
  0.500000  0.500000  0.000000      1.000000
  0.000000  0.000000  0.500000      1.000000
  0.500000  0.000000  0.500000      1.000000
  0.000000  0.500000  0.500000      1.000000
  0.500000  0.500000  0.500000      1.000000
 
 Following cartesian coordinates:
            Coordinates               Weight
  0.000000  0.000000  0.000000      1.000000
  0.034410  0.000000  0.000000      1.000000
  0.000000  0.034410  0.000000      1.000000
  0.034410  0.034410  0.000000      1.000000
  0.000000  0.000000  0.018789      1.000000
  0.034410  0.000000  0.018789      1.000000
  0.000000  0.034410  0.018789      1.000000
  0.034410  0.034410  0.018789      1.000000
 


--------------------------------------------------------------------------------------------------------




 Dimension of arrays:
   k-points           NKPTS =      8   k-points in BZ     NKDIM =      8   number of bands    NBANDS=    176
   number of dos      NEDOS =   2000   number of ions     NIONS =     72
   non local maximal  LDIM  =      4   non local SUM 2l+1 LMDIM =      8
   total plane-waves  NPLWV = ******
   max r-space proj   IRMAX =      1   max aug-charges    IRDMAX= 430101
   dimension x,y,z NGX =   168 NGY =  168 NGZ =  320
   dimension x,y,z NGXF=   336 NGYF=  336 NGZF=  640
   support grid    NGXF=   672 NGYF=  672 NGZF= 1280
   ions per type =               3  69
   NGX,Y,Z   is equivalent  to a cutoff of  19.22, 19.22, 19.99 a.u.
   NGXF,Y,Z  is equivalent  to a cutoff of  38.44, 38.44, 39.98 a.u.

 SYSTEM =  a-Si SPC                                
 POSCAR =   H Si                                   

 Startparameter for this run:
   NWRITE =      2    write-flag & timer
   PREC   = accura    normal or accurate (medium, high low for compatibility)
   ISTART =      1    job   : 0-new  1-cont  2-samecut
   ICHARG =      1    charge: 1-file 2-atom 10-const
   ISPIN  =      1    spin polarized calculation?
   LNONCOLLINEAR =      F non collinear calculations
   LSORBIT =      F    spin-orbit coupling
   INIWAV =      1    electr: 0-lowe 1-rand  2-diag
   LASPH  =      T    aspherical Exc in radial PAW
 Electronic Relaxation 1
   ENCUT  = 1200.0 eV  88.20 Ry    9.39 a.u.  41.04 41.04 75.16*2*pi/ulx,y,z
   ENINI  = 1200.0     initial cutoff
   ENAUG  =  400.0 eV  augmentation charge cutoff
   NELM   =    150;   NELMIN=  2; NELMDL=  0     # of ELM steps 
   EDIFF  = 0.1E-05   stopping-criterion for ELM
   LREAL  =      F    real-space projection
   NLSPLINE    = F    spline interpolate recip. space projectors
   LCOMPAT=      F    compatible to vasp.4.4
   GGA_COMPAT  = T    GGA compatible to vasp.4.4-vasp.4.6
   LMAXPAW     = -100 max onsite density
   LMAXMIX     =    2 max onsite mixed and CHGCAR
   VOSKOWN=      0    Vosko Wilk Nusair interpolation
   ROPT   =    0.00000   0.00000
 Ionic relaxation
   EDIFFG = -.1E-01   stopping-criterion for IOM
   NSW    =      0    number of steps for IOM
   NBLOCK =      1;   KBLOCK =      1    inner block; outer block 
   IBRION =     -1    ionic relax: 0-MD 1-quasi-New 2-CG
   NFREE  =      0    steps in history (QN), initial steepest desc. (CG)
   ISIF   =      2    stress and relaxation
   IWAVPR =     10    prediction:  0-non 1-charg 2-wave 3-comb
   ISYM   =      1    0-nonsym 1-usesym 2-fastsym
   LCORR  =      T    Harris-Foulkes like correction to forces

   POTIM  = 0.5000    time-step for ionic-motion
   TEIN   =    0.0    initial temperature
   TEBEG  =    0.0;   TEEND  =   0.0 temperature during run
   SMASS  =  -3.00    Nose mass-parameter (am)
   estimated Nose-frequenzy (Omega)   =  0.10E-29 period in steps = 0.13E+47 mass=  -0.483E-26a.u.
   SCALEE = 1.0000    scale energy and forces
   NPACO  =    256;   APACO  = 10.0  distance and # of slots for P.C.
   PSTRESS=    0.0 pullay stress

  Mass of Ions in am
   POMASS =   1.00 28.09
  Ionic Valenz
   ZVAL   =   1.00  4.00
  Atomic Wigner-Seitz radii
   RWIGS  =  -1.00 -1.00
  virtual crystal weights 
   VCA    =   1.00  1.00
   NELECT =     279.0000    total number of electrons
   NUPDOWN=      -1.0000    fix difference up-down

 DOS related values:
   EMIN   =  10.00;   EMAX   =-10.00  energy-range for DOS
   EFERMI =   0.00;   METHOD = LEGACY      
   ISMEAR =     0;   SIGMA  =   0.10  broadening in eV -4-tet -1-fermi 0-gaus
   EFERMI_NEDOS =   21; number of points for ismear=-14 and -15

 Electronic relaxation 2 (details)
   IALGO  =     38    algorithm
   LDIAG  =      F    sub-space diagonalisation (order eigenvalues)
   LSUBROT=      F    optimize rotation matrix (better conditioning)
   TURBO    =      0    0=normal 1=particle mesh
   IRESTART =      0    0=no restart 2=restart with 2 vectors
   NREBOOT  =      0    no. of reboots
   NMIN     =      0    reboot dimension
   EREF     =   0.00    reference energy to select bands
   IMIX   =      4    mixing-type and parameters
     AMIX     =   0.40;   BMIX     =  1.00
     AMIX_MAG =   1.60;   BMIX_MAG =  1.00
     AMIN     =   0.10
     WC   =   100.;   INIMIX=   1;  MIXPRE=   1;  MAXMIX= -45

 Intra band minimization:
   WEIMIN = 0.0000     energy-eigenvalue tresh-hold
   EBREAK =  0.14E-08  absolut break condition
   DEPER  =   0.30     relativ break condition  

   TIME   =   0.40     timestep for ELM

  volume/ion in A,a.u.               =      78.04       526.63
  Fermi-wavevector in a.u.,A,eV,Ry     =   0.601723  1.137091  4.926264  0.362070
  Thomas-Fermi vector in A             =   1.654063

 Write flags
   LWAVE        =      F    write WAVECAR
   LDOWNSAMPLE  =      F    k-point downsampling of WAVECAR
   LCHARG       =      F    write CHGCAR
   LVTOT        =      F    write LOCPOT, total local potential
   LVHAR        =      F    write LOCPOT, Hartree potential only
   WRT_POTENTIAL= false  ! write potential to hdf5 file
   LELF         =      F    write electronic localiz. function (ELF)
   LORBIT       =     11    0 simple, 1 ext, 2 COOP (PROOUT), +10 PAW based schemes


 Python interface
   PLUGINS active      =      F    recompile with -DPLUGINS to activate

 Dipole corrections
   LMONO      =      F    monopole corrections only (constant potential shift)
   LDIPOL     =      F    correct potential (dipole corrections)
   IDIPOL     =      0    1-x, 2-y, 3-z, 4-all directions 
   EPSILON    =  1.0000000 bulk dielectric constant
   LVACPOTAV  =      F  vacuum potentials using an averaging scheme for the charge density
   VACPOTFLAT =  0.1000000 required flatness to determine vacuum potential

Coulomb truncation method
  LTRUNCATE          =      F  Coulomb kernel truncation to be used
  IDIMENSIONALITY    =      3  Dimensionality of cutoff (0 molecules / 2 surfaces)
  ISURFACE           =     -1  Direction of surface normal
  LCOARSEN           =      F  Coarsen the charge grid before padding, preferred


 Exchange correlation treatment:
   METAGGA = SCAN    functional components
   XC_C    = 1    coefficients multiplying the functional components
   LIBXC   =     F    Libxc                    
   VOSKOWN =     0    Vosko Wilk Nusair interpolation
   LHFCALC =     F    Hartree Fock is set to
   LHFONE  =     F    Hartree Fock one center treatment
   AEXX    =    0.0000 exact exchange contribution

 Parameters of functionals:
   SCAN:
     P1 =  0.000000E+00
     P2 =  0.000000E+00
     P3 =  0.000000E+00

 Accuracy and mixing parameters for tau-dependent meta-GGA functionals:
   LMAXTAU = 6
   LMIXTAU = T

 Van der Waals corrections
   IVDW    =     0    specifies the selected vdW correction

 Linear response parameters
   LEPSILON=     F    determine dielectric tensor
   LRPA    =     F    only Hartree local field effects (RPA)
   LNABLA  =     F    use nabla operator in PAW spheres
   LVEL    =     F    velocity operator in full k-point grid
   CSHIFT  =0.1000    complex shift for real part using Kramers Kronig
   OMEGAMAX=  -1.0    maximum frequency
   DEG_THRESHOLD= 0.2000000E-02 threshold for treating states as degnerate
   RTIME   =   -0.100 relaxation time in fs
  (WPLASMAI=    0.000 imaginary part of plasma frequency in eV, 0.658/RTIME)
   DFIELD  = 0.0000000 0.0000000 0.0000000 field for delta impulse in time

  Optional k-point grid parameters
   LKPOINTS_OPT  =     F    use optional k-point grid
   KPOINTS_OPT_MODE=     1    mode for optional k-point grid

 Orbital magnetization related:
   ORBITALMAG=     F  switch on orbital magnetization
   LCHIMAG   =     F  perturbation theory with respect to B field
   DQ        =  0.001000  dq finite difference perturbation B field
   LLRAUG    =     F  two centre corrections for induced B field
   LBONE     =     F  B-component reconstruction in AE one-centre
   LVGVCALC  =     T  calculate vGv susceptibility
   LVGVAPPL  =     F  apply vGv susceptibility instead of pGv for G=0

 Random number generation:
   RANDOM_GENERATOR = DEFAULT
   PCG_SEED         = not used


--------------------------------------------------------------------------------------------------------


 Static calculation
 charge density and potential will be updated during run
 non-spin polarized calculation
 Variant of blocked Davidson
 perform Loewdin sub-space diagonalisation
    ordering is kept fixed
    before iterative eigenvector-optimisation
 modified Broyden-mixing scheme, WC =      100.0
 initial mixing is a Kerker type mixing with AMIX =  0.4000 and BMIX =      1.0000
 Hartree-type preconditioning will be used
 using additional bands           36
 reciprocal scheme for non local part
 use partial core corrections
 calculate Harris-corrections to forces   (improved forces if not selfconsistent)
 use gradient corrections 
 use of overlap-Matrix (Vanderbilt PP)
 Gauss-broadening in eV      SIGMA  =   0.10


--------------------------------------------------------------------------------------------------------


  energy-cutoff  :     1200.00
  volume of cell :     5618.75
      direct lattice vectors                 reciprocal lattice vectors
    14.530735716  0.000000000  0.000000000     0.068819640  0.000000000  0.000000000
     0.000000000 14.530735716  0.000000000     0.000000000  0.068819640  0.000000000
     0.000000000  0.000000000 26.611195200     0.000000000  0.000000000  0.037578169

  length of vectors
    14.530735716 14.530735716 26.611195200     0.068819640  0.068819640  0.037578169



 old parameters found on file WAVECAR:
  energy-cutoff  :     1200.00
  volume of cell :     5618.75
      direct lattice vectors                 reciprocal lattice vectors
    14.530735716  0.000000000  0.000000000     0.068819640  0.000000000  0.000000000
     0.000000000 14.530735716  0.000000000     0.000000000  0.068819640  0.000000000
     0.000000000  0.000000000 26.611195200     0.000000000  0.000000000  0.037578169

  length of vectors


 k-points in units of 2pi/SCALE and weight: read from INCAR                         
   0.00000000  0.00000000  0.00000000       0.125
   0.03440982  0.00000000  0.00000000       0.125
   0.00000000  0.03440982  0.00000000       0.125
   0.03440982  0.03440982  0.00000000       0.125
   0.00000000  0.00000000  0.01878908       0.125
   0.03440982  0.00000000  0.01878908       0.125
   0.00000000  0.03440982  0.01878908       0.125
   0.03440982  0.03440982  0.01878908       0.125

 k-points in reciprocal lattice and weights: read from INCAR                         
   0.00000000  0.00000000  0.00000000       0.125
   0.50000000  0.00000000  0.00000000       0.125
   0.00000000  0.50000000  0.00000000       0.125
   0.50000000  0.50000000  0.00000000       0.125
   0.00000000  0.00000000  0.50000000       0.125
   0.50000000  0.00000000  0.50000000       0.125
   0.00000000  0.50000000  0.50000000       0.125
   0.50000000  0.50000000  0.50000000       0.125

 position of ions in fractional coordinates (direct lattice) 
   0.82890504  0.85776111  0.54826681
   0.86711370  0.69125199  0.47252388
   0.97213247  0.78405528  0.54807066
   0.03297059  0.16369646  0.42209022
   0.20247082  0.22099294  0.52019179
   0.67945011  0.75572223  0.48012369
   0.67440907  0.49547182  0.51290651
   0.81844445  0.06118575  0.56118732
   0.08864314  0.96220868  0.51340179
   0.42605482  0.19067582  0.42497434
   0.64482626  0.89783479  0.51382078
   0.48346072  0.91856326  0.39455395
   0.40180278  0.99141573  0.51568241
   0.34501901  0.72683863  0.60712888
   0.24009590  0.01554374  0.40916194
   0.38831619  0.26309198  0.62238336
   0.81015168  0.74022405  0.43408141
   0.81488647  0.28619886  0.59501255
   0.41547655  0.38765897  0.48819398
   0.21930686  0.38778697  0.39766294
   0.13102571  0.46955021  0.45346649
   0.58402893  0.42813317  0.57527237
   0.70202915  0.64462324  0.53892977
   0.04738707  0.86531751  0.43848858
   0.56607526  0.66838529  0.43227804
   0.33259224  0.75786940  0.43852653
   0.44171886  0.66696416  0.48710346
   0.18920377  0.91843250  0.58328102
   0.59168511  0.98242101  0.44142193
   0.02528344  0.18122895  0.56176752
   0.96312398  0.24895161  0.48785728
   0.97461686  0.03244894  0.56791193
   0.50181217  0.09572124  0.47929622
   0.81245714  0.26887558  0.50529430
   0.11771393  0.67484470  0.61734526
   0.14320954  0.53278307  0.58597200
   0.59047802  0.67320198  0.60099049
   0.96712240  0.71507735  0.58901470
   0.98085880  0.29998343  0.61861766
   0.47468347  0.75283181  0.56209821
   0.99765079  0.57176252  0.45561896
   0.30840971  0.02287482  0.58189477
   0.61676505  0.51669029  0.43370375
   0.21147794  0.76248032  0.56487712
   0.67313866  0.20344806  0.37578169
   0.48563129  0.29852377  0.55094426
   0.76433845  0.44627265  0.39844900
   0.51387556  0.90978188  0.56063153
   0.50322366  0.41434722  0.41110428
   0.07712204  0.71162949  0.43763368
   0.79338722  0.41891478  0.48249525
   0.71504294  0.07110308  0.41890848
   0.90068392  0.85987387  0.40065563
   0.31141506  0.29355155  0.45054478
   0.73302551  0.13734336  0.49745850
   0.62250805  0.13587337  0.61031777
   0.09440678  0.34260137  0.50853316
   0.84863563  0.60819563  0.57716781
   0.14615227  0.09325405  0.46993587
   0.35761644  0.56100325  0.60832913
   0.56211056  0.27380720  0.41689616
   0.37547996  0.53076666  0.51845756
   0.24872725  0.17266366  0.59910782
   0.70770677  0.38964235  0.62421831
   0.75404303  0.90674005  0.57122031
   0.21058122  0.69904926  0.47933868
   0.02208312  0.42970089  0.57336565
   0.90903174  0.52064466  0.38934434
   0.21813830  0.55192457  0.50687296
   0.59451154  0.18872616  0.53058102
   0.91137849  0.50264833  0.52466209
   0.34893003  0.91795077  0.44366760

 position of ions in cartesian coordinates  (Angst):
  12.04460000 12.46390000 14.59003520
  12.59980000 10.04440000 12.57442520
  14.12580000 11.39290000 14.58481520
   0.47908700  2.37863000 11.23232520
   2.94205000  3.21119000 13.84292520
   9.87291000 10.98120000 12.77666520
   9.79966000  7.19957000 13.64905520
  11.89260000  0.88907400 14.93386520
   1.28805000 13.98160000 13.66223520
   6.19089000  2.77066000 11.30907520
   9.36980000 13.04620000 13.67338520
   7.02504000 13.34740000 10.49955220
   5.83849000 14.40600000 13.72292520
   5.01338000 10.56150000 16.15642520
   3.48877000  0.22586200 10.88828820
   5.64252000  3.82292000 16.56236520
  11.77210000 10.75600000 11.55142520
  11.84090000  4.15868000 15.83399520
   6.03718000  5.63297000 12.99142520
   3.18669000  5.63483000 10.58228620
   1.90390000  6.82291000 12.06728520
   8.48637000  6.22109000 15.30868520
  10.20100000  9.36685000 14.34156520
   0.68856900 12.57370000 11.66870520
   8.22549000  9.71213000 11.50343520
   4.83281000 11.01240000 11.66971520
   6.41850000  9.69148000 12.96240520
   2.74927000 13.34550000 15.52180520
   8.59762000 14.27530000 11.74676520
   0.36738700  2.63339000 14.94930520
  13.99490000  3.61745000 12.98246520
  14.16190000  0.47150700 15.11281520
   7.29170000  1.39090000 12.75464520
  11.80560000  3.90696000 13.44648520
   1.71047000  9.80599000 16.42829520
   2.08094000  7.74173000 15.59341520
   8.58008000  9.78212000 15.99307520
  14.05300000 10.39060000 15.67438520
  14.25260000  4.35898000 16.46215520
   6.89750000 10.93920000 14.95810520
  14.49660000  8.30813000 12.12456520
   4.48142000  0.33238800 15.48491520
   8.96205000  7.50789000 11.54137520
   3.07293000 11.07940000 15.03205520
   9.78120000  2.95625000 10.00000000
   7.05658000  4.33777000 14.66128520
  11.10640000  6.48467000 10.60320420
   7.46699000 13.21980000 14.91907520
   7.31221000  6.02077000 10.93997620
   1.12064000 10.34050000 11.64595520
  11.52850000  6.08714000 12.83977520
  10.39010000  1.03318000 11.14765520
  13.08760000 12.49460000 10.66192520
   4.52509000  4.26552000 11.98953520
  10.65140000  1.99570000 13.23796520
   9.04550000  1.97434000 16.24128520
   1.37180000  4.97825000 13.53267520
  12.33130000  8.83753000 15.35912520
   2.12370000  1.35505000 12.50555520
   5.19643000  8.15179000 16.18836520
   8.16788000  3.97862000 11.09410520
   5.45600000  7.71243000 13.79677520
   3.61419000  2.50893000 15.94297520
  10.28350000  5.66179000 16.61119520
  10.95680000 13.17560000 15.20085520
   3.05990000 10.15770000 12.75577520
   0.32088400  6.24387000 15.25794520
  13.20890000  7.56535000 10.36091820
   3.16971000  8.01987000 13.48849520
   8.63869000  2.74233000 14.11939520
  13.24300000  7.30385000 13.96188520
   5.07021000 13.33850000 11.80652520



--------------------------------------------------------------------------------------------------------


 k-point     1 :   0.0000 0.0000 0.0000  plane waves:  530159
 k-point     2 :   0.5000 0.0000 0.0000  plane waves:  530454
 k-point     3 :   0.0000 0.5000 0.0000  plane waves:  530454
 k-point     4 :   0.5000 0.5000 0.0000  plane waves:  530364
 k-point     5 :   0.0000 0.0000 0.5000  plane waves:  530150
 k-point     6 :   0.5000 0.0000 0.5000  plane waves:  530300
 k-point     7 :   0.0000 0.5000 0.5000  plane waves:  530300
 k-point     8 :   0.5000 0.5000 0.5000  plane waves:  530504

 maximum and minimum number of plane-waves per node :     33224    33062

 maximum number of plane-waves:    530504
 maximum index in each direction: 
   IXMAX=   41   IYMAX=   41   IZMAX=   75
   IXMIN=  -41   IYMIN=  -41   IZMIN=  -75


 parallel 3D FFT for wavefunctions:
    minimum data exchange during FFTs selected (reduces bandwidth)
 parallel 3D FFT for charge:
    minimum data exchange during FFTs selected (reduces bandwidth)


 total amount of memory used by VASP MPI-rank0   388791. kBytes
=======================================================================

   base                                    :      30000. kBytes
   nonl-proj                               :      72295. kBytes
   fftplans                                :     108819. kBytes
   grid                                    :      83991. kBytes
   one-center                              :         15. kBytes
   wavefun                                 :      93671. kBytes

     INWAV:  cpu time     28.6380: real time     28.6583
 Broyden mixing: mesh for mixing (old mesh)
   NGX = 83   NGY = 83   NGZ =151
  (NGX  =336   NGY  =336   NGZ  =640)
  gives a total of ****** points

 initial charge density was supplied:
 number of electron     278.9999999 magnetization 
 keeping initial charge density in first step


--------------------------------------------------------------------------------------------------------


 Maximum index for augmentation-charges        12002 (set IRDMAX)


--------------------------------------------------------------------------------------------------------


 First call to EWALD:  gamma=   0.100
 Maximum number of real-space cells   3x   3x   2
 Maximum number of reciprocal cells   2x   2x   4

    FEWALD:  cpu time      0.0134: real time      0.0136


--------------------------------------- Ionic step        1  -------------------------------------------




--------------------------------------- Iteration      1(   1)  ---------------------------------------


    POTLOK:  cpu time      2.1784: real time      2.1795
    SETDIJ:  cpu time      1.4934: real time      1.4946
    EDDIAG:  cpu time     58.1046: real time     58.1374
     EDDAV:  cpu time    256.2074: real time    256.3683
       DOS:  cpu time      0.0086: real time      0.0086
    CHARGE:  cpu time     33.0123: real time     33.0441
    MIXING:  cpu time      0.0516: real time      0.0528
    --------------------------------------------
      LOOP:  cpu time    351.0565: real time    351.2853

 eigenvalue-minimisations  :  2816
 total energy-change (2. order) :-0.6831893E+03  (-0.7985043E+00)
 number of electron     278.9999999 magnetization 
 augmentation part      -15.9820654 magnetization 

 Broyden mixing:
  rms(total) = 0.97276E+00    rms(broyden)= 0.21172E+02
  rms(prec ) = 0.99705E+00
  weight for this iteration     100.00
  WARNING: grid for Broyden might be to small

 Free energy of the ion-electron system (eV)
  ---------------------------------------------------
  alpha Z        PSCENC =        29.19712579
  Ewald energy   TEWEN  =     34682.55490562
  -Hartree energ DENC   =    -40833.43309463
  -exchange      EXHF   =         0.00000000
  -V(xc)+E(xc)   XCENC  =      -343.65818699
  PAW double counting   =     23765.01380671   -23076.59731266
  entropy T*S    EENTRO =        -0.20815701
  eigenvalues    EBANDS =     -2055.13511607
  atomic energy  EATOM  =      7149.07675483
  Solvation  Ediel_sol  =         0.00000000
  ---------------------------------------------------
  free energy    TOTEN  =      -683.18927442 eV

  energy without entropy =     -682.98111741  energy(sigma->0) =     -683.08519591


--------------------------------------------------------------------------------------------------------




--------------------------------------- Iteration      1(   2)  ---------------------------------------


    POTLOK:  cpu time      2.1353: real time      2.1572
    SETDIJ:  cpu time      1.5013: real time      1.5020
    EDDIAG:  cpu time     58.0941: real time     58.1260
     EDDAV:  cpu time    255.6238: real time    255.7800
       DOS:  cpu time      0.0030: real time      0.0030
    CHARGE:  cpu time     32.9056: real time     32.9351
    MIXING:  cpu time      0.0457: real time      0.0457
    --------------------------------------------
      LOOP:  cpu time    350.3087: real time    350.5489

 eigenvalue-minimisations  :  2816
 total energy-change (2. order) : 0.4969593E+02  (-0.7447897E+00)
 number of electron     278.9999999 magnetization 
 augmentation part      -15.9386684 magnetization 

 Broyden mixing:
  rms(total) = 0.65817E+00    rms(broyden)= 0.12234E+02
  rms(prec ) = 0.67074E+00
  weight for this iteration     100.00
  WARNING: grid for Broyden might be to small

 eigenvalues of (default mixing * dielectric matrix)
  average eigenvalue GAMMA=   0.6339
  0.6339

 Free energy of the ion-electron system (eV)
  ---------------------------------------------------
  alpha Z        PSCENC =        29.19712579
  Ewald energy   TEWEN  =     34682.55490562
  -Hartree energ DENC   =    -40823.14445249
  -exchange      EXHF   =         0.00000000
  -V(xc)+E(xc)   XCENC  =      -336.08565274
  PAW double counting   =     28313.14855494   -27624.57143509
  entropy T*S    EENTRO =        -0.19707283
  eigenvalues    EBANDS =     -2023.47207622
  atomic energy  EATOM  =      7149.07675483
  Solvation  Ediel_sol  =         0.00000000
  ---------------------------------------------------
  free energy    TOTEN  =      -633.49334820 eV

  energy without entropy =     -633.29627537  energy(sigma->0) =     -633.39481178


--------------------------------------------------------------------------------------------------------




--------------------------------------- Iteration      1(   3)  ---------------------------------------


    POTLOK:  cpu time      2.1421: real time      2.1696
    SETDIJ:  cpu time      1.4951: real time      1.4962
    EDDIAG:  cpu time     58.0882: real time     58.1261
     EDDAV:  cpu time    255.6541: real time    255.8125
       DOS:  cpu time      0.0027: real time      0.0027
    CHARGE:  cpu time     32.8967: real time     32.9271
    MIXING:  cpu time      0.0423: real time      0.0423
    --------------------------------------------
      LOOP:  cpu time    350.3211: real time    350.5765

 eigenvalue-minimisations  :  2816
 total energy-change (2. order) :-0.2537813E+01  (-0.6297814E+00)
 number of electron     278.9999999 magnetization 
 augmentation part      -15.8862294 magnetization 

 Broyden mixing:
  rms(total) = 0.25766E+00    rms(broyden)= 0.19827E+02
  rms(prec ) = 0.33139E+00
  weight for this iteration     100.00
  WARNING: grid for Broyden might be to small

 eigenvalues of (default mixing * dielectric matrix)
  average eigenvalue GAMMA=   0.8058
  0.9856  0.6260

 Free energy of the ion-electron system (eV)
  ---------------------------------------------------
  alpha Z        PSCENC =        29.19712579
  Ewald energy   TEWEN  =     34682.55490562
  -Hartree energ DENC   =    -40820.47503794
  -exchange      EXHF   =         0.00000000
  -V(xc)+E(xc)   XCENC  =      -338.61349003
  PAW double counting   =     34014.66141555   -33326.22399448
  entropy T*S    EENTRO =        -0.20324611
  eigenvalues    EBANDS =     -2026.00559487
  atomic energy  EATOM  =      7149.07675483
  Solvation  Ediel_sol  =         0.00000000
  ---------------------------------------------------
  free energy    TOTEN  =      -636.03116165 eV

  energy without entropy =     -635.82791554  energy(sigma->0) =     -635.92953860


--------------------------------------------------------------------------------------------------------




--------------------------------------- Iteration      1(   4)  ---------------------------------------


    POTLOK:  cpu time      2.1308: real time      2.1633
    SETDIJ:  cpu time      1.4959: real time      1.4965
    EDDIAG:  cpu time     58.1362: real time     58.1706
     EDDAV:  cpu time    268.6480: real time    268.8125
       DOS:  cpu time      0.0033: real time      0.0033
    CHARGE:  cpu time     32.9638: real time     32.9937
    MIXING:  cpu time      0.0435: real time      0.0435
    --------------------------------------------
      LOOP:  cpu time    363.4215: real time    363.6834

 eigenvalue-minimisations  :  3072
 total energy-change (2. order) : 0.3407017E+00  (-0.7434229E-01)
 number of electron     278.9999999 magnetization 
 augmentation part      -15.8804986 magnetization 

 Broyden mixing:
  rms(total) = 0.68401E-01    rms(broyden)= 0.17227E+01
  rms(prec ) = 0.94034E-01
  weight for this iteration     100.00
  WARNING: grid for Broyden might be to small

 eigenvalues of (default mixing * dielectric matrix)
  average eigenvalue GAMMA=   1.0413
  1.7997  0.7095  0.6148

 Free energy of the ion-electron system (eV)
  ---------------------------------------------------
  alpha Z        PSCENC =        29.19712579
  Ewald energy   TEWEN  =     34682.55490562
  -Hartree energ DENC   =    -40821.40110675
  -exchange      EXHF   =         0.00000000
  -V(xc)+E(xc)   XCENC  =      -339.44315721
  PAW double counting   =     37818.30154017   -37129.91808309
  entropy T*S    EENTRO =        -0.19555798
  eigenvalues    EBANDS =     -2023.86288131
  atomic energy  EATOM  =      7149.07675483
  Solvation  Ediel_sol  =         0.00000000
  ---------------------------------------------------
  free energy    TOTEN  =      -635.69045993 eV

  energy without entropy =     -635.49490195  energy(sigma->0) =     -635.59268094


--------------------------------------------------------------------------------------------------------




--------------------------------------- Iteration      1(   5)  ---------------------------------------


    POTLOK:  cpu time      2.1399: real time      2.1686
    SETDIJ:  cpu time      1.4944: real time      1.4958
    EDDIAG:  cpu time     58.0715: real time     58.1096
     EDDAV:  cpu time    273.7551: real time    273.9158
       DOS:  cpu time      0.0029: real time      0.0029
    CHARGE:  cpu time     32.8594: real time     32.8922
    MIXING:  cpu time      0.0436: real time      0.0436
    --------------------------------------------
      LOOP:  cpu time    368.3666: real time    368.6284

 eigenvalue-minimisations  :  3168
 total energy-change (2. order) :-0.1607927E-01  (-0.1289593E-01)
 number of electron     278.9999999 magnetization 
 augmentation part      -15.8833893 magnetization 

 Broyden mixing:
  rms(total) = 0.48582E-01    rms(broyden)= 0.84810E+00
  rms(prec ) = 0.64211E-01
  weight for this iteration     100.00
  WARNING: grid for Broyden might be to small

 eigenvalues of (default mixing * dielectric matrix)
  average eigenvalue GAMMA=   1.0905
  2.4286  0.8087  0.6252  0.4996

 Free energy of the ion-electron system (eV)
  ---------------------------------------------------
  alpha Z        PSCENC =        29.19712579
  Ewald energy   TEWEN  =     34682.55490562
  -Hartree energ DENC   =    -40820.84762349
  -exchange      EXHF   =         0.00000000
  -V(xc)+E(xc)   XCENC  =      -340.25601004
  PAW double counting   =     37591.27052093   -36902.86947845
  entropy T*S    EENTRO =        -0.20123490
  eigenvalues    EBANDS =     -2023.63149948
  atomic energy  EATOM  =      7149.07675483
  Solvation  Ediel_sol  =         0.00000000
  ---------------------------------------------------
  free energy    TOTEN  =      -635.70653920 eV

  energy without entropy =     -635.50530430  energy(sigma->0) =     -635.60592175


--------------------------------------------------------------------------------------------------------




--------------------------------------- Iteration      1(   6)  ---------------------------------------


    POTLOK:  cpu time      2.1330: real time      2.1619
    SETDIJ:  cpu time      1.4984: real time      1.4994
    EDDIAG:  cpu time     58.1238: real time     58.1631
     EDDAV:  cpu time    266.2903: real time    266.4453
       DOS:  cpu time      0.0027: real time      0.0027
    CHARGE:  cpu time     32.8570: real time     32.8864
    MIXING:  cpu time      0.0439: real time      0.0439
    --------------------------------------------
      LOOP:  cpu time    360.9493: real time    361.2027

 eigenvalue-minimisations  :  3024
 total energy-change (2. order) :-0.2667251E-02  (-0.5163451E-02)
 number of electron     278.9999999 magnetization 
 augmentation part      -15.8825774 magnetization 

 Broyden mixing:
  rms(total) = 0.28742E-01    rms(broyden)= 0.13338E+00
  rms(prec ) = 0.35199E-01
  weight for this iteration     100.00
  WARNING: grid for Broyden might be to small

 eigenvalues of (default mixing * dielectric matrix)
  average eigenvalue GAMMA=   1.0228
  2.5303  0.9079  0.6252  0.6252  0.4252

 Free energy of the ion-electron system (eV)
  ---------------------------------------------------
  alpha Z        PSCENC =        29.19712579
  Ewald energy   TEWEN  =     34682.55490562
  -Hartree energ DENC   =    -40821.18932157
  -exchange      EXHF   =         0.00000000
  -V(xc)+E(xc)   XCENC  =      -340.40886540
  PAW double counting   =     37429.09578319   -36740.68338382
  entropy T*S    EENTRO =        -0.20078046
  eigenvalues    EBANDS =     -2023.15142463
  atomic energy  EATOM  =      7149.07675483
  Solvation  Ediel_sol  =         0.00000000
  ---------------------------------------------------
  free energy    TOTEN  =      -635.70920645 eV

  energy without entropy =     -635.50842599  energy(sigma->0) =     -635.60881622


--------------------------------------------------------------------------------------------------------




--------------------------------------- Iteration      1(   7)  ---------------------------------------


    POTLOK:  cpu time      2.1457: real time      2.1684
    SETDIJ:  cpu time      1.4931: real time      1.4941
    EDDIAG:  cpu time     58.0950: real time     58.1297
     EDDAV:  cpu time    262.3545: real time    262.5118
       DOS:  cpu time      0.0134: real time      0.0141
    CHARGE:  cpu time     32.9082: real time     32.9385
    MIXING:  cpu time      0.0586: real time      0.0597
    --------------------------------------------
      LOOP:  cpu time    357.0686: real time    357.3164

 eigenvalue-minimisations  :  2944
 total energy-change (2. order) : 0.7470063E-03  (-0.1630737E-02)
 number of electron     278.9999999 magnetization 
 augmentation part      -15.8817677 magnetization 

 Broyden mixing:
  rms(total) = 0.18166E-01    rms(broyden)= 0.18487E+00
  rms(prec ) = 0.21231E-01
  weight for this iteration     100.00
  WARNING: grid for Broyden might be to small

 eigenvalues of (default mixing * dielectric matrix)
  average eigenvalue GAMMA=   0.9690
  2.5665  1.0607  0.7047  0.6224  0.5082  0.3517

 Free energy of the ion-electron system (eV)
  ---------------------------------------------------
  alpha Z        PSCENC =        29.19712579
  Ewald energy   TEWEN  =     34682.55490562
  -Hartree energ DENC   =    -40820.91669915
  -exchange      EXHF   =         0.00000000
  -V(xc)+E(xc)   XCENC  =      -340.37671123
  PAW double counting   =     37399.44117906   -36711.02190247
  entropy T*S    EENTRO =        -0.20010570
  eigenvalues    EBANDS =     -2023.46300619
  atomic energy  EATOM  =      7149.07675483
  Solvation  Ediel_sol  =         0.00000000
  ---------------------------------------------------
  free energy    TOTEN  =      -635.70845945 eV

  energy without entropy =     -635.50835374  energy(sigma->0) =     -635.60840659


--------------------------------------------------------------------------------------------------------




--------------------------------------- Iteration      1(   8)  ---------------------------------------


    POTLOK:  cpu time      2.1374: real time      2.1646
    SETDIJ:  cpu time      1.5067: real time      1.5081
    EDDIAG:  cpu time     58.1920: real time     58.2297
     EDDAV:  cpu time    263.5584: real time    263.7192
       DOS:  cpu time      0.0040: real time      0.0040
    CHARGE:  cpu time     32.8595: real time     32.8913
    MIXING:  cpu time      0.0450: real time      0.0450
    --------------------------------------------
      LOOP:  cpu time    358.3028: real time    358.5617

 eigenvalue-minimisations  :  2968
 total energy-change (2. order) :-0.6374853E-03  (-0.8861750E-03)
 number of electron     278.9999999 magnetization 
 augmentation part      -15.8793821 magnetization 

 Broyden mixing:
  rms(total) = 0.80047E-02    rms(broyden)= 0.72349E-01
  rms(prec ) = 0.10138E-01
  weight for this iteration     100.00
  WARNING: grid for Broyden might be to small

 eigenvalues of (default mixing * dielectric matrix)
  average eigenvalue GAMMA=   0.9989
  2.5653  1.4353  0.8873  0.6298  0.6298  0.4947  0.3499

 Free energy of the ion-electron system (eV)
  ---------------------------------------------------
  alpha Z        PSCENC =        29.19712579
  Ewald energy   TEWEN  =     34682.55490562
  -Hartree energ DENC   =    -40820.33831599
  -exchange      EXHF   =         0.00000000
  -V(xc)+E(xc)   XCENC  =      -340.17121099
  PAW double counting   =     37414.47741857   -36726.04818662
  entropy T*S    EENTRO =        -0.20009576
  eigenvalues    EBANDS =     -2024.25749238
  atomic energy  EATOM  =      7149.07675483
  Solvation  Ediel_sol  =         0.00000000
  ---------------------------------------------------
  free energy    TOTEN  =      -635.70909693 eV

  energy without entropy =     -635.50900117  energy(sigma->0) =     -635.60904905


--------------------------------------------------------------------------------------------------------




--------------------------------------- Iteration      1(   9)  ---------------------------------------


    POTLOK:  cpu time      2.1416: real time      2.1670
    SETDIJ:  cpu time      1.5017: real time      1.5026
    EDDIAG:  cpu time     58.0584: real time     58.0946
     EDDAV:  cpu time    264.2009: real time    264.3612
       DOS:  cpu time      0.0029: real time      0.0029
    CHARGE:  cpu time     32.8582: real time     32.8872
    MIXING:  cpu time      0.0467: real time      0.0467
    --------------------------------------------
      LOOP:  cpu time    358.8105: real time    359.0624

 eigenvalue-minimisations  :  2984
 total energy-change (2. order) : 0.7201672E-04  (-0.2695492E-03)
 number of electron     278.9999999 magnetization 
 augmentation part      -15.8797664 magnetization 

 Broyden mixing:
  rms(total) = 0.31067E-02    rms(broyden)= 0.22729E-01
  rms(prec ) = 0.38236E-02
  weight for this iteration     100.00
  WARNING: grid for Broyden might be to small

 eigenvalues of (default mixing * dielectric matrix)
  average eigenvalue GAMMA=   1.0237
  2.5615  1.8202  0.9551  0.7717  0.6228  0.6228  0.4775  0.3577

 Free energy of the ion-electron system (eV)
  ---------------------------------------------------
  alpha Z        PSCENC =        29.19712579
  Ewald energy   TEWEN  =     34682.55490562
  -Hartree energ DENC   =    -40820.02366645
  -exchange      EXHF   =         0.00000000
  -V(xc)+E(xc)   XCENC  =      -340.18693150
  PAW double counting   =     37434.16440794   -36745.73209099
  entropy T*S    EENTRO =        -0.20048735
  eigenvalues    EBANDS =     -2024.55904280
  atomic energy  EATOM  =      7149.07675483
  Solvation  Ediel_sol  =         0.00000000
  ---------------------------------------------------
  free energy    TOTEN  =      -635.70902491 eV

  energy without entropy =     -635.50853756  energy(sigma->0) =     -635.60878124


--------------------------------------------------------------------------------------------------------




--------------------------------------- Iteration      1(  10)  ---------------------------------------


    POTLOK:  cpu time      2.1315: real time      2.1618
    SETDIJ:  cpu time      1.4940: real time      1.4950
    EDDIAG:  cpu time     58.1333: real time     58.1685
     EDDAV:  cpu time    264.1780: real time    264.3327
       DOS:  cpu time      0.0084: real time      0.0084
    CHARGE:  cpu time     32.8616: real time     32.8951
    MIXING:  cpu time      0.0475: real time      0.0475
    --------------------------------------------
      LOOP:  cpu time    358.8539: real time    359.1087

 eigenvalue-minimisations  :  2984
 total energy-change (2. order) : 0.4782869E-05  (-0.9344488E-04)
 number of electron     278.9999999 magnetization 
 augmentation part      -15.8799148 magnetization 

 Broyden mixing:
  rms(total) = 0.17850E-02    rms(broyden)= 0.16214E-01
  rms(prec ) = 0.22254E-02
  weight for this iteration     100.00
  WARNING: grid for Broyden might be to small

 eigenvalues of (default mixing * dielectric matrix)
  average eigenvalue GAMMA=   1.0781
  2.5373  2.5373  1.0987  0.8448  0.6738  0.5966  0.5966  0.4464  0.3715

 Free energy of the ion-electron system (eV)
  ---------------------------------------------------
  alpha Z        PSCENC =        29.19712579
  Ewald energy   TEWEN  =     34682.55490562
  -Hartree energ DENC   =    -40819.71394211
  -exchange      EXHF   =         0.00000000
  -V(xc)+E(xc)   XCENC  =      -340.20541221
  PAW double counting   =     37440.10198472   -36751.66803334
  entropy T*S    EENTRO =        -0.20033604
  eigenvalues    EBANDS =     -2024.85206739
  atomic energy  EATOM  =      7149.07675483
  Solvation  Ediel_sol  =         0.00000000
  ---------------------------------------------------
  free energy    TOTEN  =      -635.70902013 eV

  energy without entropy =     -635.50868409  energy(sigma->0) =     -635.60885211


--------------------------------------------------------------------------------------------------------




--------------------------------------- Iteration      1(  11)  ---------------------------------------


    POTLOK:  cpu time      2.1371: real time      2.1663
    SETDIJ:  cpu time      1.4969: real time      1.4983
    EDDIAG:  cpu time     58.1230: real time     58.1597
     EDDAV:  cpu time    269.9485: real time    270.1087
       DOS:  cpu time      0.0030: real time      0.0030
    CHARGE:  cpu time     32.8525: real time     32.8844
    MIXING:  cpu time      0.0693: real time      0.0709
    --------------------------------------------
      LOOP:  cpu time    364.6302: real time    364.8913

 eigenvalue-minimisations  :  3096
 total energy-change (2. order) :-0.5373400E-04  (-0.4102650E-04)
 number of electron     278.9999999 magnetization 
 augmentation part      -15.8800251 magnetization 

 Broyden mixing:
  rms(total) = 0.11509E-02    rms(broyden)= 0.78802E-02
  rms(prec ) = 0.15096E-02
  weight for this iteration     100.00
  WARNING: grid for Broyden might be to small

 eigenvalues of (default mixing * dielectric matrix)
  average eigenvalue GAMMA=   1.0659
  2.6431  2.6431  1.1360  0.9325  0.3781  0.4393  0.6750  0.6467  0.6201  0.5448

 Free energy of the ion-electron system (eV)
  ---------------------------------------------------
  alpha Z        PSCENC =        29.19712579
  Ewald energy   TEWEN  =     34682.55490562
  -Hartree energ DENC   =    -40819.40838878
  -exchange      EXHF   =         0.00000000
  -V(xc)+E(xc)   XCENC  =      -340.21409020
  PAW double counting   =     37439.73862738   -36751.30357164
  entropy T*S    EENTRO =        -0.20037270
  eigenvalues    EBANDS =     -2025.15006417
  atomic energy  EATOM  =      7149.07675483
  Solvation  Ediel_sol  =         0.00000000
  ---------------------------------------------------
  free energy    TOTEN  =      -635.70907386 eV

  energy without entropy =     -635.50870117  energy(sigma->0) =     -635.60888752


--------------------------------------------------------------------------------------------------------




--------------------------------------- Iteration      1(  12)  ---------------------------------------


    POTLOK:  cpu time      2.1400: real time      2.1670
    SETDIJ:  cpu time      1.4965: real time      1.4982
    EDDIAG:  cpu time     58.1160: real time     58.1516
     EDDAV:  cpu time    262.4207: real time    262.5764
       DOS:  cpu time      0.0091: real time      0.0093
    CHARGE:  cpu time     32.9185: real time     32.9704
    MIXING:  cpu time      0.0483: real time      0.0483
    --------------------------------------------
      LOOP:  cpu time    357.1490: real time    357.4212

 eigenvalue-minimisations  :  2944
 total energy-change (2. order) :-0.1664328E-03  (-0.3551026E-04)
 number of electron     278.9999999 magnetization 
 augmentation part      -15.8801627 magnetization 

 Broyden mixing:
  rms(total) = 0.57373E-03    rms(broyden)= 0.42774E-02
  rms(prec ) = 0.88843E-03
  weight for this iteration     100.00
  WARNING: grid for Broyden might be to small

 eigenvalues of (default mixing * dielectric matrix)
  average eigenvalue GAMMA=   1.0848
  2.7333  2.7333  1.3307  1.0374  0.8733  0.6847  0.3781  0.6311  0.4392  0.5684
  0.5238

 Free energy of the ion-electron system (eV)
  ---------------------------------------------------
  alpha Z        PSCENC =        29.19712579
  Ewald energy   TEWEN  =     34682.55490562
  -Hartree energ DENC   =    -40819.01825535
  -exchange      EXHF   =         0.00000000
  -V(xc)+E(xc)   XCENC  =      -340.22424847
  PAW double counting   =     37436.54292554   -36748.10695621
  entropy T*S    EENTRO =        -0.20038594
  eigenvalues    EBANDS =     -2025.53110611
  atomic energy  EATOM  =      7149.07675483
  Solvation  Ediel_sol  =         0.00000000
  ---------------------------------------------------
  free energy    TOTEN  =      -635.70924030 eV

  energy without entropy =     -635.50885435  energy(sigma->0) =     -635.60904733


--------------------------------------------------------------------------------------------------------




--------------------------------------- Iteration      1(  13)  ---------------------------------------


    POTLOK:  cpu time      2.1273: real time      2.1584
    SETDIJ:  cpu time      1.4954: real time      1.4963
    EDDIAG:  cpu time     58.1536: real time     58.1886
     EDDAV:  cpu time    262.3140: real time    262.4677
       DOS:  cpu time      0.0047: real time      0.0047
    CHARGE:  cpu time     32.8905: real time     32.9196
    MIXING:  cpu time      0.0488: real time      0.0488
    --------------------------------------------
      LOOP:  cpu time    357.0344: real time    357.2841

 eigenvalue-minimisations  :  2944
 total energy-change (2. order) :-0.1847500E-03  (-0.2444217E-04)
 number of electron     278.9999999 magnetization 
 augmentation part      -15.8802506 magnetization 

 Broyden mixing:
  rms(total) = 0.40566E-03    rms(broyden)= 0.24345E-02
  rms(prec ) = 0.65563E-03
  weight for this iteration     100.00
  WARNING: grid for Broyden might be to small

 eigenvalues of (default mixing * dielectric matrix)
  average eigenvalue GAMMA=   1.1183
  2.8052  2.8052  1.7213  1.1473  0.9284  0.7781  0.3773  0.4418  0.6436  0.6363
  0.6013  0.5338

 Free energy of the ion-electron system (eV)
  ---------------------------------------------------
  alpha Z        PSCENC =        29.19712579
  Ewald energy   TEWEN  =     34682.55490562
  -Hartree energ DENC   =    -40818.75708501
  -exchange      EXHF   =         0.00000000
  -V(xc)+E(xc)   XCENC  =      -340.23153051
  PAW double counting   =     37435.31332823   -36746.87731725
  entropy T*S    EENTRO =        -0.20037566
  eigenvalues    EBANDS =     -2025.78523107
  atomic energy  EATOM  =      7149.07675483
  Solvation  Ediel_sol  =         0.00000000
  ---------------------------------------------------
  free energy    TOTEN  =      -635.70942505 eV

  energy without entropy =     -635.50904938  energy(sigma->0) =     -635.60923722


--------------------------------------------------------------------------------------------------------




--------------------------------------- Iteration      1(  14)  ---------------------------------------


    POTLOK:  cpu time      2.1466: real time      2.1687
    SETDIJ:  cpu time      1.4936: real time      1.4944
    EDDIAG:  cpu time     58.1654: real time     58.2018
     EDDAV:  cpu time    261.7022: real time    261.8571
       DOS:  cpu time      0.0035: real time      0.0036
    CHARGE:  cpu time     32.9770: real time     33.0064
    MIXING:  cpu time      0.0501: real time      0.0509
    --------------------------------------------
      LOOP:  cpu time    356.5383: real time    356.7829

 eigenvalue-minimisations  :  2928
 total energy-change (2. order) :-0.1860836E-03  (-0.2962428E-04)
 number of electron     278.9999999 magnetization 
 augmentation part      -15.8803202 magnetization 

 Broyden mixing:
  rms(total) = 0.26608E-03    rms(broyden)= 0.16331E-02
  rms(prec ) = 0.46473E-03
  weight for this iteration     100.00
  WARNING: grid for Broyden might be to small

 eigenvalues of (default mixing * dielectric matrix)
  average eigenvalue GAMMA=   1.1305
  2.9363  2.8171  2.0195  1.2101  0.9058  0.9058  0.3773  0.7255  0.4418  0.6255
  0.6255  0.5530  0.5530

 Free energy of the ion-electron system (eV)
  ---------------------------------------------------
  alpha Z        PSCENC =        29.19712579
  Ewald energy   TEWEN  =     34682.55490562
  -Hartree energ DENC   =    -40818.50205891
  -exchange      EXHF   =         0.00000000
  -V(xc)+E(xc)   XCENC  =      -340.23723896
  PAW double counting   =     37435.66154970   -36747.22589875
  entropy T*S    EENTRO =        -0.20037554
  eigenvalues    EBANDS =     -2026.03437492
  atomic energy  EATOM  =      7149.07675483
  Solvation  Ediel_sol  =         0.00000000
  ---------------------------------------------------
  free energy    TOTEN  =      -635.70961113 eV

  energy without entropy =     -635.50923559  energy(sigma->0) =     -635.60942336


--------------------------------------------------------------------------------------------------------




--------------------------------------- Iteration      1(  15)  ---------------------------------------


    POTLOK:  cpu time      2.1375: real time      2.1695
    SETDIJ:  cpu time      1.5010: real time      1.5016
    EDDIAG:  cpu time     58.1373: real time     58.1750
     EDDAV:  cpu time    262.3457: real time    262.5018
       DOS:  cpu time      0.0028: real time      0.0028
    CHARGE:  cpu time     32.9003: real time     32.9323
    MIXING:  cpu time      0.0502: real time      0.0502
    --------------------------------------------
      LOOP:  cpu time    357.0746: real time    357.3332

 eigenvalue-minimisations  :  2944
 total energy-change (2. order) :-0.1832715E-03  (-0.2682608E-04)
 number of electron     278.9999999 magnetization 
 augmentation part      -15.8803815 magnetization 

 Broyden mixing:
  rms(total) = 0.19831E-03    rms(broyden)= 0.14404E-02
  rms(prec ) = 0.32186E-03
  weight for this iteration     100.00
  WARNING: grid for Broyden might be to small

 eigenvalues of (default mixing * dielectric matrix)
  average eigenvalue GAMMA=   1.1764
  3.2854  2.7202  2.3823  1.4254  1.0500  0.8734  0.8734  0.3773  0.4423  0.6902
  0.6518  0.6166  0.5405  0.5405

 Free energy of the ion-electron system (eV)
  ---------------------------------------------------
  alpha Z        PSCENC =        29.19712579
  Ewald energy   TEWEN  =     34682.55490562
  -Hartree energ DENC   =    -40818.25864043
  -exchange      EXHF   =         0.00000000
  -V(xc)+E(xc)   XCENC  =      -340.24160567
  PAW double counting   =     37436.13597081   -36747.70073192
  entropy T*S    EENTRO =        -0.20038671
  eigenvalues    EBANDS =     -2026.27318672
  atomic energy  EATOM  =      7149.07675483
  Solvation  Ediel_sol  =         0.00000000
  ---------------------------------------------------
  free energy    TOTEN  =      -635.70979440 eV

  energy without entropy =     -635.50940769  energy(sigma->0) =     -635.60960105


--------------------------------------------------------------------------------------------------------




--------------------------------------- Iteration      1(  16)  ---------------------------------------


    POTLOK:  cpu time      2.1682: real time      2.1699
    SETDIJ:  cpu time      1.4929: real time      1.4940
    EDDIAG:  cpu time     58.1227: real time     58.1587
     EDDAV:  cpu time    261.6402: real time    261.7961
       DOS:  cpu time      0.0067: real time      0.0067
    CHARGE:  cpu time     32.8973: real time     32.9278
    MIXING:  cpu time      0.0518: real time      0.0519
    --------------------------------------------
      LOOP:  cpu time    356.3799: real time    356.6050

 eigenvalue-minimisations  :  2928
 total energy-change (2. order) :-0.1318822E-03  (-0.1744452E-04)
 number of electron     278.9999999 magnetization 
 augmentation part      -15.8804196 magnetization 

 Broyden mixing:
  rms(total) = 0.14512E-03    rms(broyden)= 0.83288E-03
  rms(prec ) = 0.21691E-03
  weight for this iteration     100.00
  WARNING: grid for Broyden might be to small

 eigenvalues of (default mixing * dielectric matrix)
  average eigenvalue GAMMA=   1.2204
  3.7208  2.6801  2.6801  1.6785  1.1594  0.8898  0.8898  0.7749  0.3773  0.4420
  0.6679  0.6342  0.6342  0.5385  0.5385

 Free energy of the ion-electron system (eV)
  ---------------------------------------------------
  alpha Z        PSCENC =        29.19712579
  Ewald energy   TEWEN  =     34682.55490562
  -Hartree energ DENC   =    -40818.06236946
  -exchange      EXHF   =         0.00000000
  -V(xc)+E(xc)   XCENC  =      -340.24381264
  PAW double counting   =     37436.14796807   -36747.71299518
  entropy T*S    EENTRO =        -0.20038688
  eigenvalues    EBANDS =     -2026.46711643
  atomic energy  EATOM  =      7149.07675483
  Solvation  Ediel_sol  =         0.00000000
  ---------------------------------------------------
  free energy    TOTEN  =      -635.70992628 eV

  energy without entropy =     -635.50953940  energy(sigma->0) =     -635.60973284


--------------------------------------------------------------------------------------------------------




--------------------------------------- Iteration      1(  17)  ---------------------------------------


    POTLOK:  cpu time      2.1364: real time      2.1656
    SETDIJ:  cpu time      1.4883: real time      1.4891
    EDDIAG:  cpu time     58.0458: real time     58.0790
     EDDAV:  cpu time    261.3894: real time    261.5512
       DOS:  cpu time      0.0035: real time      0.0035
    CHARGE:  cpu time     32.9236: real time     32.9531
    MIXING:  cpu time      0.0520: real time      0.0520
    --------------------------------------------
      LOOP:  cpu time    356.0390: real time    356.2935

 eigenvalue-minimisations  :  2928
 total energy-change (2. order) :-0.7506089E-04  (-0.8851226E-05)
 number of electron     278.9999999 magnetization 
 augmentation part      -15.8804455 magnetization 

 Broyden mixing:
  rms(total) = 0.97836E-04    rms(broyden)= 0.93433E-03
  rms(prec ) = 0.13866E-03
  weight for this iteration     100.00
  WARNING: grid for Broyden might be to small

 eigenvalues of (default mixing * dielectric matrix)
  average eigenvalue GAMMA=   1.3020
  4.4612  2.7830  2.7830  1.9844  1.3598  1.0832  0.9088  0.9088  0.3773  0.7577
  0.4418  0.6479  0.6479  0.5993  0.5437  0.5437

 Free energy of the ion-electron system (eV)
  ---------------------------------------------------
  alpha Z        PSCENC =        29.19712579
  Ewald energy   TEWEN  =     34682.55490562
  -Hartree energ DENC   =    -40817.93542716
  -exchange      EXHF   =         0.00000000
  -V(xc)+E(xc)   XCENC  =      -340.24493629
  PAW double counting   =     37436.08487681   -36747.64997629
  entropy T*S    EENTRO =        -0.20038787
  eigenvalues    EBANDS =     -2026.59293678
  atomic energy  EATOM  =      7149.07675483
  Solvation  Ediel_sol  =         0.00000000
[...]
   -.250E+02 -.365E+01 -.167E+02   0.251E+02 0.312E+01 0.196E+02   -.940E+00 0.817E+00 -.388E+01   -.952E-05 -.518E-04 0.212E-04
   -.196E+01 0.288E+02 0.293E+03   0.171E+01 -.282E+02 -.295E+03   -.403E+00 -.107E+01 0.111E+01   -.202E-04 -.244E-04 -.135E-03
   0.219E+02 -.148E+01 -.390E+02   -.204E+02 0.154E+01 0.396E+02   -.117E+01 -.272E+00 -.129E+00   -.109E-03 0.179E-04 0.924E-04
   -.430E+01 -.253E+02 -.273E+03   0.461E+01 0.257E+02 0.270E+03   -.611E+00 -.104E+01 0.255E+01   -.386E-04 -.174E-04 0.950E-04
   0.221E+02 -.181E+01 0.258E+03   -.227E+02 0.222E+01 -.261E+03   0.184E+00 -.146E+00 0.238E+01   -.770E-04 0.256E-04 -.413E-04
   0.701E+01 -.466E+01 -.275E+03   -.561E+01 0.572E+01 0.280E+03   -.133E+01 -.134E+01 -.487E+01   -.110E-04 0.456E-04 0.971E-04
   -.420E+01 -.164E+02 0.205E+03   0.506E+01 0.168E+02 -.202E+03   0.331E+00 -.365E+00 -.320E+01   0.135E-03 -.211E-03 -.103E-03
   0.148E+01 0.247E+02 -.237E+03   -.183E+01 -.224E+02 0.236E+03   0.776E+00 -.268E+01 0.125E+01   -.327E-04 0.192E-03 0.692E-04
   0.143E+02 -.132E+02 0.362E+02   -.150E+02 0.126E+02 -.366E+02   0.143E+01 0.962E+00 -.326E+00   -.194E-04 0.441E-04 0.886E-04
   0.534E+01 -.317E+01 0.288E+03   -.578E+01 0.318E+01 -.291E+03   0.576E+00 -.452E+00 0.278E+01   -.143E-03 0.489E-04 -.907E-04
   0.672E+01 -.201E+00 0.174E+03   -.390E+01 -.701E+00 -.173E+03   -.324E+01 0.254E+00 -.160E+01   -.232E-03 0.389E-04 -.709E-04
   0.298E+02 -.167E+02 -.195E+03   -.274E+02 0.147E+02 0.194E+03   -.277E+01 0.166E+01 0.136E+01   0.845E-04 -.325E-04 0.115E-03
   -.189E+02 -.239E+02 -.103E+03   0.172E+02 0.238E+02 0.103E+03   0.225E+01 -.359E-03 0.119E+01   0.649E-04 -.132E-03 0.263E-04
   0.147E+01 -.291E+02 0.173E+03   -.392E+01 0.273E+02 -.173E+03   0.198E+01 0.221E+01 0.127E+00   0.527E-05 -.287E-04 -.301E-04
   0.810E+01 -.250E+02 0.232E+03   -.794E+01 0.240E+02 -.230E+03   0.314E+00 0.169E+01 -.117E+01   0.597E-04 -.899E-04 -.432E-04
   0.344E+01 0.518E+01 0.216E+03   -.457E+01 -.631E+01 -.215E+03   0.190E+01 0.832E+00 -.430E+00   -.670E-04 -.468E-04 -.623E-05
   0.244E+01 -.147E+00 0.702E+02   -.176E+01 0.487E+00 -.716E+02   -.769E+00 0.161E+00 0.712E+00   -.172E-04 -.638E-04 0.506E-04
   0.256E+02 -.798E+01 -.211E+03   -.253E+02 0.732E+01 0.211E+03   -.900E+00 0.514E+00 -.546E+00   -.187E-04 0.411E-05 0.659E-04
   -.303E+02 0.293E+02 0.177E+03   0.280E+02 -.291E+02 -.177E+03   0.297E+01 -.531E-01 0.720E+00   0.150E-04 -.724E-05 -.568E-04
   -.178E+02 0.315E+02 -.159E+03   0.128E+02 -.322E+02 0.159E+03   0.519E+01 0.968E+00 0.956E+00   0.372E-04 0.110E-03 0.325E-04
   0.991E+01 0.130E+02 0.954E+02   -.870E+01 -.150E+02 -.952E+02   0.383E+00 0.123E+01 -.857E+00   -.419E-06 0.164E-03 -.570E-04
   0.655E+01 0.475E+02 -.172E+03   -.606E+01 -.462E+02 0.172E+03   0.356E-01 -.160E+01 -.122E+00   0.100E-03 -.144E-04 0.304E-04
   0.130E+02 0.173E+01 0.547E+02   -.140E+02 -.219E+01 -.544E+02   0.376E+00 0.538E+00 0.179E+00   -.725E-04 0.355E-04 0.562E-04
   -.331E+00 0.135E+02 0.275E+02   0.792E+00 -.136E+02 -.272E+02   -.375E+00 0.818E+00 0.340E+00   0.621E-04 0.188E-03 0.156E-04
   0.202E+02 -.207E+02 -.288E+03   -.186E+02 0.201E+02 0.285E+03   -.259E+01 0.139E+01 0.253E+01   -.201E-05 -.235E-04 0.596E-04
   -.112E+02 0.251E+02 -.219E+03   0.102E+02 -.230E+02 0.218E+03   0.140E+01 -.211E+01 0.142E+01   -.343E-04 -.276E-04 0.366E-04
   -.176E+02 -.177E+01 -.268E+03   0.179E+02 0.283E+01 0.270E+03   0.685E-01 -.174E+01 -.143E+01   0.190E-05 -.960E-04 0.121E-03
   0.230E+02 -.390E+02 -.215E+03   -.208E+02 0.373E+02 0.212E+03   -.119E+01 0.328E+00 0.291E+01   0.383E-04 -.630E-04 0.199E-04
   -.116E+02 0.114E+02 -.299E+03   0.132E+02 -.117E+02 0.300E+03   -.232E+01 -.162E+00 -.692E+00   -.681E-05 0.772E-04 0.119E-03
   -.844E+01 -.197E+02 -.143E+03   0.846E+01 0.188E+02 0.145E+03   0.192E+00 0.143E+01 -.180E+01   -.475E-04 -.627E-04 0.837E-04
   -.173E+01 -.233E+02 0.136E+03   0.358E+00 0.219E+02 -.137E+03   0.174E+01 0.131E+01 0.893E+00   -.191E-03 -.166E-03 -.218E-03
   -.931E+01 -.581E+00 -.215E+03   0.863E+01 -.241E+00 0.212E+03   0.675E-01 0.145E+01 0.295E+01   -.518E-04 -.498E-05 0.909E-04
   0.357E+01 -.198E+02 0.208E+03   -.563E+01 0.191E+02 -.205E+03   0.230E+01 0.590E+00 -.357E+01   0.164E-03 -.426E-04 -.455E-04
   0.176E+02 -.301E+02 -.130E+03   -.164E+02 0.297E+02 0.132E+03   -.108E+01 0.776E+00 -.192E+01   -.423E-04 0.190E-04 0.907E-04
   -.421E+02 0.887E+00 0.306E+03   0.401E+02 -.980E+00 -.308E+03   0.275E+01 -.420E-03 0.860E+00   0.992E-04 0.106E-03 -.114E-03
   0.177E+02 0.457E+01 -.133E+03   -.188E+02 -.445E+01 0.133E+03   0.986E+00 0.779E+00 0.661E+00   0.217E-04 0.708E-04 0.118E-03
   -.594E+01 0.111E+02 0.285E+03   0.566E+01 -.117E+02 -.285E+03   -.122E+00 0.102E+01 -.990E+00   0.334E-03 0.152E-03 -.483E-04
   -.439E+01 -.143E+02 -.190E+03   0.520E+01 0.140E+02 0.187E+03   -.123E+01 0.140E+00 0.234E+01   -.863E-04 -.928E-05 0.115E-03
   0.317E+02 -.347E+02 0.261E+03   -.307E+02 0.325E+02 -.261E+03   -.152E+01 0.247E+01 0.215E+00   0.395E-04 0.618E-04 -.507E-04
   0.118E+02 -.119E+02 0.202E+03   -.875E+01 0.131E+02 -.200E+03   -.332E+01 -.149E+01 -.157E+01   -.121E-03 -.169E-03 -.621E-04
   -.179E+02 0.124E+02 0.744E+02   0.158E+02 -.121E+02 -.741E+02   0.327E+01 -.695E+00 -.524E+00   0.139E-03 0.821E-04 -.116E-03
   -.673E+02 0.377E+02 0.233E+03   0.655E+02 -.370E+02 -.232E+03   0.245E+01 -.799E+00 -.213E+01   0.780E-04 0.355E-04 -.866E-04
   0.718E+01 -.344E+02 0.247E+03   -.780E+01 0.359E+02 -.249E+03   0.301E+00 -.896E+00 0.155E+01   0.609E-04 -.695E-04 -.104E-03
   0.302E+02 0.156E+02 0.149E+03   -.296E+02 -.134E+02 -.148E+03   -.186E+01 -.250E+01 -.477E+00   -.987E-04 0.177E-04 0.172E-04
   -.284E+02 0.302E+02 0.314E+02   0.285E+02 -.290E+02 -.321E+02   0.169E+00 -.125E+01 0.175E+00   0.702E-04 0.154E-03 0.431E-04
   -.117E-01 0.294E+02 -.278E+03   -.128E+01 -.306E+02 0.282E+03   0.180E+01 0.876E+00 -.243E+01   -.107E-04 0.114E-03 0.141E-03
   -.196E+02 0.296E+01 0.103E+02   0.181E+02 -.157E+01 -.922E+01   0.708E+00 -.122E+01 -.136E+01   -.788E-04 0.800E-04 -.473E-04
   0.802E+01 -.268E+02 -.214E+03   -.809E+01 0.251E+02 0.212E+03   -.701E+00 0.211E+01 0.222E+01   0.325E-04 -.121E-03 -.105E-04
   -.221E+00 0.129E+02 0.106E+03   -.168E+01 -.131E+02 -.108E+03   0.216E+01 0.219E+00 0.157E+01   -.412E-04 0.167E-04 -.156E-04
   -.995E+01 0.350E+02 -.267E+03   0.949E+01 -.357E+02 0.268E+03   -.744E-01 0.335E+00 -.156E+01   -.541E-05 -.405E-04 0.745E-04
   -.122E+02 -.377E+01 0.212E+03   0.118E+02 0.458E+01 -.214E+03   -.102E+00 -.866E+00 0.188E+01   0.518E-04 0.113E-03 -.361E-04
   -.956E+01 0.120E+02 -.266E+02   0.765E+01 -.120E+02 0.273E+02   0.161E+01 0.424E+00 0.124E+00   -.177E-04 -.397E-04 0.662E-04
   0.118E+02 -.186E+01 -.248E+03   -.125E+02 0.175E+01 0.248E+03   0.122E+01 0.294E+00 0.265E+00   -.216E-04 0.141E-04 0.849E-04
   0.559E+00 -.142E+02 -.296E+03   -.339E+00 0.151E+02 0.296E+03   -.157E-01 -.707E+00 -.965E-01   0.495E-04 0.142E-04 0.935E-04
   -.179E+02 0.693E+01 -.210E+03   0.183E+02 -.809E+01 0.206E+03   -.202E-01 0.264E+01 0.432E+01   0.728E-04 -.400E-04 0.598E-04
   0.673E+01 -.206E+02 0.925E+02   -.729E+01 0.201E+02 -.939E+02   0.223E+00 0.114E+01 0.184E+01   -.107E-03 -.694E-04 -.185E-04
   -.451E+01 -.105E+02 -.195E+03   0.453E+01 0.877E+01 0.193E+03   0.557E+00 0.124E+01 0.178E+01   -.571E-04 0.527E-05 -.197E-04
   -.171E+02 -.445E+01 0.291E+03   0.180E+02 0.417E+01 -.292E+03   -.186E+01 0.380E+00 0.517E+00   0.652E-04 -.262E-04 -.111E-03
   -.699E+01 0.111E+02 0.911E+01   0.701E+01 -.101E+02 -.109E+02   0.736E+00 -.118E+01 0.252E+01   -.100E-03 -.523E-04 0.227E-05
   -.250E+01 -.429E+01 -.751E+02   0.166E+01 0.788E+00 0.777E+02   0.296E+00 0.306E+01 -.252E+01   0.116E-04 0.141E-03 0.114E-03
   -.234E+01 -.110E+02 -.434E+02   0.190E+01 0.119E+02 0.449E+02   0.704E+00 -.755E+00 -.165E+01   0.308E-04 -.293E-04 -.172E-03
   0.282E+02 0.126E+02 0.162E+03   -.276E+02 -.113E+02 -.162E+03   -.513E+00 -.186E+01 -.465E-01   -.103E-03 0.191E-04 0.139E-04
 -----------------------------------------------------------------------------------------------
   -.100E-01 -.136E+02 -.973E+01   0.853E-13 -.533E-14 -.796E-12   0.177E-02 0.136E+02 0.973E+01   0.168E-04 0.232E-03 0.444E-03


 POSITION                                       TOTAL-FORCE (eV/Angst)
 -----------------------------------------------------------------------------------
     12.04460     12.46390     14.59004         1.076479     -0.760813     -0.354893
     12.59980     10.04440     12.57443         0.229205     -0.040519      0.081704
     14.12580     11.39290     14.58482        -0.077801      0.356864      0.050203
      0.47909      2.37863     11.23233        -0.498134      0.377745      0.084014
      2.94205      3.21119     13.84293         0.142315     -0.068154     -0.971061
      9.87291     10.98120     12.77667        -0.909831     -0.314922     -1.119352
      9.79966      7.19957     13.64906        -1.355998      0.425278      0.989848
     11.89260      0.88907     14.93387        -1.097400     -0.820912      0.412929
      1.28805     13.98160     13.66224        -0.119029      0.089260     -0.050878
      6.19089      2.77066     11.30908        -0.308365     -0.424872     -0.679116
      9.36980     13.04620     13.67339        -0.876748      0.278611     -1.134481
      7.02504     13.34740     10.49955        -0.652599     -0.485841     -0.871128
      5.83849     14.40600     13.72293         0.297587     -0.231178      0.508207
      5.01338     10.56150     16.15643        -0.319155     -0.858506     -0.042169
      3.48877      0.22586     10.88829        -0.398984      0.202045      0.097757
      5.64252      3.82292     16.56237        -0.025281     -0.440073     -0.256062
     11.77210     10.75600     11.55143         1.305662     -0.014979     -0.207719
     11.84090      4.15868     15.83400         0.481971     -0.430842     -0.145973
      6.03718      5.63297     12.99143         0.784739      0.414409     -0.736186
      3.18669      5.63483     10.58229         0.168071     -0.462173     -0.278700
      1.90390      6.82291     12.06729        -0.554740     -0.642319     -0.082073
      8.48637      6.22109     15.30869        -0.313596     -0.260458      0.016965
     10.20100      9.36685     14.34157         0.675797     -0.100927      1.256859
      0.68857     12.57370     11.66871        -0.460463      0.403918      0.390108
      8.22549      9.71213     11.50344         0.502946      0.748472      0.512078
      4.83281     11.01240     11.66972         0.833896     -0.219389      0.467107
      6.41850      9.69148     12.96241        -0.135720      0.520917     -0.613608
      2.74927     13.34550     15.52181        -0.577121     -0.121244     -0.697037
      8.59762     14.27530     11.74677         0.842723      0.215053      0.859921
      0.36739      2.63339     14.94931         0.569978      0.400296      0.487742
     13.99490      3.61745     12.98247         1.653887     -0.704508     -0.633370
     14.16190      0.47151     15.11282         0.520052     -0.187406     -0.271304
      7.29170      1.39090     12.75465        -0.617603      0.102855      0.508537
     11.80560      3.90696     13.44649         0.123777      0.811842      0.716884
      1.71047      9.80599     16.42830        -1.190114      0.773685     -0.327245
      2.08094      7.74173     15.59342         0.381002      0.010402      0.056875
      8.58008      9.78212     15.99308         0.310712     -0.736847      0.099175
     14.05300     10.39060     15.67439         0.956665     -1.296612     -0.111650
     14.25260      4.35898     16.46216        -0.910964     -0.518292      0.093584
      6.89750     10.93920     14.95811         0.201462      0.595445      0.105362
     14.49660      8.30813     12.12457         0.506466     -0.124491     -0.079977
      4.48142      0.33239     15.48492        -0.725920      0.700623      0.074403
      8.96205      7.50789     11.54138         0.390316     -0.061986     -1.204945
      3.07293     11.07940     15.03206         0.069602      0.384861      0.488675
      9.78120      2.95625     10.00000         0.728702     -0.145283     -0.472924
      7.05658      4.33777     14.66129         0.014926      0.989371      0.672930
     11.10640      6.48467     10.60320        -0.295515      0.549708     -0.202901
      7.46699     13.21980     14.91908        -0.505975     -0.331093     -0.052645
      7.31221      6.02077     10.93998        -0.476698      0.328857      0.617968
      1.12064     10.34050     11.64596        -0.436019     -0.307816      0.221382
     11.52850      6.08714     12.83978         1.323796     -0.410521     -0.165117
     10.39010      1.03318     11.14766         0.618444      0.003119     -0.237297
     13.08760     12.49460     10.66193        -0.218937      0.422967      0.207921
      4.52509      4.26552     11.98954        -1.247740     -0.391359      0.570298
     10.65140      1.99570     13.23797         0.280788     -0.075890     -0.430746
      9.04550      1.97434     16.24129         0.602153     -0.121037      0.356945
      1.37180      4.97825     13.53268        -0.801806      0.074444     -0.343154
     12.33130      8.83753     15.35913        -0.711257      0.622147      0.016391
      2.12370      1.35505     12.50556         0.355201     -0.015781      0.132756
      5.19643      8.15179     16.18837        -0.554328     -0.268966     -0.808378
      8.16788      3.97862     11.09411        -0.593565     -0.147987      0.148231
      5.45600      7.71243     13.79678        -0.267212      0.451649      0.787033
      3.61419      2.50893     15.94298         0.758954      0.176883     -0.114968
     10.28350      5.66179     16.61120         0.168644      0.039914      0.029494
     10.95680     13.17560     15.20086         0.547636      1.662724      0.855524
      3.05990     10.15770     12.75578        -0.340874      0.667839      0.544708
      0.32088      6.24387     15.25795         0.646473     -0.389662     -0.114405
     13.20890      7.56535     10.36092        -1.109251      0.141921     -0.128306
      3.16971      8.01987     13.48850         0.781359     -0.218424      0.866561
      8.63869      2.74233     14.11940        -0.568621     -0.332353     -0.104683
     13.24300      7.30385     13.96189         0.317114      0.181735     -0.263305
      5.07021     13.33850     11.80653         0.083865     -0.641426     -0.079324
 -----------------------------------------------------------------------------------
    total drift:                               -0.008236      0.000056     -0.000585


--------------------------------------------------------------------------------------------------------



  FREE ENERGIE OF THE ION-ELECTRON SYSTEM (eV)
  ---------------------------------------------------
  free  energy   TOTEN  =      -635.71003642 eV

  energy  without entropy=     -635.50964672  energy(sigma->0) =     -635.60984157



--------------------------------------------------------------------------------------------------------


    POTLOK:  cpu time      3.5992: real time      3.6171


--------------------------------------------------------------------------------------------------------


     LOOP+:  cpu time   7675.5721: real time   7681.1271
    4ORBIT:  cpu time      0.0000: real time      0.0000



 total charge

# of ion       s       p       d       tot
------------------------------------------
    1        0.587   0.019   0.000   0.606
    2        0.568   0.017   0.000   0.585
    3        0.558   0.017   0.000   0.575
    4        0.865   0.736   0.000   1.601
    5        0.766   0.859   0.000   1.625
    6        0.764   0.949   0.000   1.712
    7        0.775   0.967   0.000   1.742
    8        0.780   0.832   0.000   1.611
    9        0.789   0.817   0.000   1.606
   10        0.785   0.884   0.000   1.669
   11        0.762   0.971   0.000   1.733
   12        0.862   0.768   0.000   1.630
   13        0.774   0.940   0.000   1.714
   14        0.807   0.870   0.000   1.677
   15        0.859   0.726   0.000   1.585
   16        0.877   0.675   0.000   1.552
   17        0.787   0.893   0.000   1.679
   18        0.788   0.818   0.000   1.607
   19        0.766   0.930   0.000   1.696
   20        0.864   0.733   0.000   1.597
   21        0.766   0.945   0.000   1.712
   22        0.797   0.840   0.000   1.637
   23        0.765   0.940   0.000   1.705
   24        0.791   0.827   0.000   1.618
   25        0.805   0.841   0.000   1.646
   26        0.804   0.857   0.000   1.662
   27        0.768   0.893   0.000   1.661
   28        0.802   0.833   0.000   1.635
   29        0.771   0.960   0.000   1.732
   30        0.794   0.832   0.000   1.626
   31        0.772   0.930   0.000   1.702
   32        0.804   0.836   0.000   1.640
   33        0.769   0.936   0.000   1.704
   34        0.761   0.984   0.000   1.746
   35        0.795   0.870   0.000   1.665
   36        0.781   0.866   0.000   1.647
   37        0.860   0.750   0.000   1.609
   38        0.781   0.862   0.000   1.643
   39        0.816   0.808   0.000   1.624
   40        0.765   0.948   0.000   1.713
   41        0.776   0.869   0.000   1.645
   42        0.791   0.857   0.000   1.647
   43        0.776   0.900   0.000   1.676
   44        0.776   0.898   0.000   1.675
   45        0.850   0.785   0.000   1.635
   46        0.776   0.882   0.000   1.657
   47        0.816   0.807   0.000   1.623
   48        0.803   0.863   0.000   1.667
   49        0.812   0.872   0.000   1.683
   50        0.782   0.892   0.000   1.674
   51        0.769   0.970   0.000   1.739
   52        0.797   0.872   0.000   1.669
   53        0.852   0.731   0.000   1.583
   54        0.774   0.894   0.000   1.668
   55        0.785   0.910   0.000   1.695
   56        0.919   0.617   0.000   1.536
   57        0.775   0.869   0.000   1.643
   58        0.787   0.870   0.000   1.657
   59        0.766   0.904   0.000   1.670
   60        0.857   0.695   0.000   1.552
   61        0.795   0.910   0.000   1.705
   62        0.757   0.939   0.000   1.696
   63        0.802   0.824   0.000   1.627
   64        0.842   0.774   0.000   1.616
   65        0.796   0.919   0.000   1.715
   66        0.771   0.974   0.000   1.745
   67        0.762   0.932   0.000   1.695
   68        0.856   0.731   0.000   1.587
   69        0.768   0.966   0.000   1.735
   70        0.761   0.968   0.000   1.729
   71        0.778   0.906   0.000   1.684
   72        0.763   0.937   0.000   1.700
--------------------------------------------------
tot         56.639  59.718   0.000 116.356


 total amount of memory used by VASP MPI-rank0   388791. kBytes
=======================================================================

   base                                    :      30000. kBytes
   nonl-proj                               :      72295. kBytes
   fftplans                                :     108819. kBytes
   grid                                    :      83991. kBytes
   one-center                              :         15. kBytes
   wavefun                                 :      93671. kBytes

  
  
 General timing and accounting informations for this job:
 ========================================================
  
                  Total CPU time used (sec):     7832.908
                            User time (sec):     6925.441
                          System time (sec):      907.467
                         Elapsed time (sec):     7838.543
  
                   Maximum memory used (kb):      659712.
                   Average memory used (kb):          N/A
  
                          Minor page faults:     12714186
                          Major page faults:         1180
                 Voluntary context switches:         2953
