 vasp.6.5.0 16Dec24 (build Jan 20 2025 08:32:48) complex                         
 executed on        HPECrayEX_GCC date 2025.07.22  05:16:26
 running  128 mpi-ranks, with    1 threads/rank, on    1 nodes
 distrk:  each k-point on  128 cores,    1 groups
 distr:  one band on NCORE=  16 cores,    8 groups


--------------------------------------------------------------------------------------------------------


 INCAR:
   SYSTEM = a-Si SPC
   NCORE = 16
   ISTART = 1
   ICHARG = 1
   ISPIN = 1
   ISYM = 1
   EDIFF = 1E-6
   NELM = 150
   EDIFFG = -0.01
   NSW = 0
   ISIF = 2
   IBRION = -1
   PREC = Accurate
   ENCUT = 1200
   KSPACING = 0.23
   KGAMMA = .TRUE.
   METAGGA = SCAN
   LASPH = .TRUE.
   LDIAG = .FALSE.
   LMIXTAU = .TRUE.
   ADDGRID = .TRUE.
   ALGO = Normal
   ISMEAR = 0
   SIGMA = 0.1
   LORBIT = 11
   NEDOS = 2000
   LWAVE = .FALSE.
   LCHARG = .FALSE.

 POTCAR:    PAW_PBE H 15Jun2001                   
 POTCAR:    PAW_PBE Si 05Jan2001                  
 POTCAR:    PAW_PBE H 15Jun2001                   
   SHA256 =  030f79b5d3ab3cf0e668861823c8fb652ff669f3e15e46930bd03bfd63a607b6 H/POTCAR              
   COPYR  = (c) Copyright 15Jun2001 Georg Kresse                                                    
   COPYR  = This file is part of the software VASP. Any use, copying, and all other rights are regul
   COPYR  = If you do not have a valid VASP license, you may not use, copy or distribute this file. 
   VRHFIN =H: ultrasoft test                                                                        
   LEXCH  = PE                                                                                      
   EATOM  =    12.4884 eV,    0.9179 Ry                                                             
                                                                                                    
   TITEL  = PAW_PBE H 15Jun2001                                                                     
   LULTRA =        F    use ultrasoft PP ?                                                          
   IUNSCR =        0    unscreen: 0-lin 1-nonlin 2-no                                               
   RPACOR =    0.000    partial core radius                                                         
   POMASS =    1.000; ZVAL   =    1.000    mass and valenz                                          
   RCORE  =    1.100    outmost cutoff radius                                                       
   RWIGS  =    0.700; RWIGS  =    0.370    wigner-seitz radius (au A)                               
   ENMAX  =  250.000; ENMIN  =  200.000 eV                                                          
   RCLOC  =    0.701    cutoff for local pot                                                        
   LCOR   =        T    correct aug charges                                                         
   LPAW   =        T    paw PP                                                                      
   EAUG   =  400.000                                                                                
   RMAX   =    1.123    core radius for proj-oper                                                   
   RAUG   =    1.200    factor for augmentation sphere                                              
   RDEP   =    1.112    radius for radial grids                                                     
   RDEPT  =    0.926    core radius for aug-charge                                                  
                                                                                                    
   Atomic configuration                                                                             
    2 entries                                                                                       
     n  l   j            E        occ.                                                              
     1  0  0.50        -6.4927   1.0000                                                             
     2  1  0.50        -3.4015   0.0000                                                             
   Description                                                                                      
     l       E           TYP  RCUT    TYP  RCUT                                                     
     0     -6.4927494     23  1.100                                                                 
     0      6.8029130     23  1.100                                                                 
     1     -4.0817478     23  1.100                                                                 
  local pseudopotential read in
  atomic valenz-charges read in
  non local Contribution for L=           0  read in
    real space projection operators read in
  non local Contribution for L=           0  read in
    real space projection operators read in
  non local Contribution for L=           1  read in
    real space projection operators read in
    PAW grid and wavefunctions read in

   number of l-projection  operators is LMAX  =           3
   number of lm-projection operators is LMMAX =           5

 POTCAR:    PAW_PBE Si 05Jan2001                  
   SHA256 =  79d9987ad8750f624c4d6acb2a16d13abf6a777132adc04dc6c8399be72b42bb Si/POTCAR             
   COPYR  = (c) Copyright 05Jan2001 Georg Kresse                                                    
   COPYR  = This file is part of the software VASP. Any use, copying, and all other rights are regul
   COPYR  = If you do not have a valid VASP license, you may not use, copy or distribute this file. 
   VRHFIN =Si: s2p2                                                                                 
   LEXCH  = PE                                                                                      
   EATOM  =   103.0669 eV,    7.5752 Ry                                                             
                                                                                                    
   TITEL  = PAW_PBE Si 05Jan2001                                                                    
   LULTRA =        F    use ultrasoft PP ?                                                          
   IUNSCR =        1    unscreen: 0-lin 1-nonlin 2-no                                               
   RPACOR =    1.500    partial core radius                                                         
   POMASS =   28.085; ZVAL   =    4.000    mass and valenz                                          
   RCORE  =    1.900    outmost cutoff radius                                                       
   RWIGS  =    2.480; RWIGS  =    1.312    wigner-seitz radius (au A)                               
   ENMAX  =  245.345; ENMIN  =  184.009 eV                                                          
   ICORE  =        2    local potential                                                             
   LCOR   =        T    correct aug charges                                                         
   LPAW   =        T    paw PP                                                                      
   EAUG   =  322.069                                                                                
   DEXC   =    0.000                                                                                
   RMAX   =    1.950    core radius for proj-oper                                                   
   RAUG   =    1.300    factor for augmentation sphere                                              
   RDEP   =    1.993    radius for radial grids                                                     
   RDEPT  =    1.837    core radius for aug-charge                                                  
                                                                                                    
   Atomic configuration                                                                             
    6 entries                                                                                       
     n  l   j            E        occ.                                                              
     1  0  0.50     -1785.8828   2.0000                                                             
     2  0  0.50      -139.4969   2.0000                                                             
     2  1  1.50       -95.5546   6.0000                                                             
     3  0  0.50       -10.8127   2.0000                                                             
     3  1  0.50        -4.0811   2.0000                                                             
     3  2  1.50        -4.0817   0.0000                                                             
   Description                                                                                      
     l       E           TYP  RCUT    TYP  RCUT                                                     
     0    -10.8127223     23  1.900                                                                 
     0     -7.6451159     23  1.900                                                                 
     1     -4.0811372     23  1.900                                                                 
     1      2.4879257     23  1.900                                                                 
     2     -4.0817478      7  1.900                                                                 
  local pseudopotential read in
  partial core-charges read in
  partial kinetic energy density read in
  atomic valenz-charges read in
  non local Contribution for L=           0  read in
    real space projection operators read in
  non local Contribution for L=           0  read in
    real space projection operators read in
  non local Contribution for L=           1  read in
    real space projection operators read in
  non local Contribution for L=           1  read in
    real space projection operators read in
    PAW grid and wavefunctions read in

   number of l-projection  operators is LMAX  =           4
   number of lm-projection operators is LMMAX =           8

 -----------------------------------------------------------------------------
|                                                                             |
|               ----> ADVICE to this user running VASP <----                  |
|                                                                             |
|     You have a (more or less) 'large supercell' and for larger cells it     |
|     might be more efficient to use real-space projection operators.         |
|     Therefore, try LREAL= Auto in the INCAR file.                           |
|     Mind: For very accurate calculation, you might also keep the            |
|     reciprocal projection scheme (i.e. LREAL=.FALSE.).                      |
|                                                                             |
 -----------------------------------------------------------------------------

 -----------------------------------------------------------------------------
|                                                                             |
|               ----> ADVICE to this user running VASP <----                  |
|                                                                             |
|     You enforced a specific xc type in the INCAR file but a different       |
|     type was found in the POTCAR file.                                      |
|     I HOPE YOU KNOW WHAT YOU ARE DOING!                                     |
|                                                                             |
 -----------------------------------------------------------------------------

  PAW_PBE H 15Jun2001                   :
 energy of atom  1       EATOM=  -12.4884
 kinetic energy error for atom=    0.0000 (will be added to EATOM!!)
  PAW_PBE Si 05Jan2001                  :
 energy of atom  2       EATOM= -103.0669
 kinetic energy error for atom=    0.0001 (will be added to EATOM!!)


 POSCAR:  H Si
  positions in cartesian coordinates
  No initial velocities read in


 exchange-correlation table for SCAN
   RHO(1)=    0.500       N(1)  =     2000
   RHO(2)=  100.500       N(2)  =     4000



--------------------------------------------------------------------------------------------------------


 ion  position               nearest neighbor table
   1  0.005  0.084  0.455-  19 0.77
   2  0.201  0.072  0.448-  85 1.54
   3  0.066  0.743  0.594-   6 0.73
   4  0.058  0.963  0.599-
   5  0.994  0.204  0.491-  81 1.52
   6  0.049  0.733  0.569-   3 0.73
   7  0.649  0.070  0.512-  11 0.75
   8  0.772  0.879  0.575-  59 1.48
   9  0.933  0.837  0.599-  25 0.72
  10  0.985  0.101  0.559-  47 1.54
  11  0.693  0.081  0.499-   7 0.75
  12  0.876  0.795  0.517-  50 1.48
  13  0.874  0.983  0.622-
  14  0.838  0.026  0.530-  47 1.52
  15  0.055  0.816  0.432-  82 1.55
  16  0.029  0.870  0.535-  32 1.57
  17  0.868  0.187  0.510-  47 1.46
  18  0.688  0.048  0.589-  76 1.52
  19  0.987  0.060  0.479-   1 0.77
  20  0.098  0.030  0.533-  32 1.51
  21  0.894  0.138  0.408-  95 1.51
  22  0.753  0.286  0.554-  26 0.73
  23  0.042  0.196  0.421-  83 1.43
  24  0.774  0.162  0.468-  95 1.48
  25  0.907  0.827  0.577-   9 0.72
  26  0.755  0.238  0.560-  22 0.73
  27  0.002  0.973  0.406-
  28  0.084  0.955  0.459-  32 1.46
  29  0.882  0.905  0.465-  40 1.43
  30  0.842  0.134  0.595-  47 1.46
  31  0.360  0.916  0.456-  62 2.33  91 2.35  78 2.42  45 2.47
  32  0.101  0.935  0.511-  28 1.46  20 1.51  16 1.57  91 2.33
  33  0.261  0.760  0.551-  51 2.26  91 2.28  61 2.36  71 2.41
  34  0.398  0.553  0.404-  41 2.30  72 2.30  57 2.34
  35  0.643  0.325  0.405-  73 2.37  94 2.38
  36  0.154  0.508  0.517-  37 2.21  71 2.33  64 2.35  43 2.41
  37  0.034  0.496  0.567-  36 2.21  77 2.40  46 2.42
  38  0.438  0.112  0.525-  93 2.22  78 2.31  80 2.34  84 2.38
  39  0.658  0.411  0.540-  94 2.31  55 2.31  74 2.39  48 2.42
  40  0.788  0.893  0.453-  29 1.43  63 2.22  59 2.27  52 2.31
  41  0.299  0.670  0.424-  34 2.30  45 2.36  71 2.44
  42  0.203  0.388  0.401-  49 2.22  72 2.35  64 2.35
  43  0.238  0.404  0.570-  56 2.21  36 2.41  88 2.47
  44  0.452  0.550  0.568-  74 2.26  61 2.42  56 2.45  86 2.83  55 3.09
  45  0.423  0.759  0.453-  75 2.30  41 2.36  31 2.47  61 2.49  79 2.74
  46  0.946  0.356  0.560-  48 2.38  37 2.42  81 2.42
  47  0.883  0.115  0.547-  17 1.46  30 1.46  14 1.52  10 1.54
  48  0.819  0.449  0.536-  92 2.37  46 2.38  39 2.42  77 2.46
  49  0.201  0.248  0.368-  42 2.22  85 2.27  83 2.36
  50  0.922  0.709  0.501-  12 1.48  70 2.23  82 2.29  77 2.33
  51  0.252  0.715  0.630-  33 2.26
  52  0.786  0.773  0.397-  40 2.31  70 2.43
  53  0.463  0.296  0.603-  93 2.32  56 2.43  55 2.47
  54  0.485  0.940  0.604-  89 2.30  84 2.41
  55  0.585  0.411  0.616-  39 2.31  53 2.47  44 3.09
  56  0.384  0.400  0.548-  43 2.21  53 2.43  44 2.45  60 2.48
  57  0.549  0.568  0.433-  34 2.34  74 2.34  75 2.37  73 2.37
  58  0.017  0.626  0.389-  65 2.31  82 2.39
  59  0.726  0.859  0.528-   8 1.48  40 2.27  89 2.44  66 2.49  79 2.77
  60  0.439  0.330  0.470-  72 2.24  80 2.45  56 2.48  94 2.53
  61  0.411  0.702  0.540-  33 2.36  79 2.40  44 2.42  45 2.49  86 2.57
  62  0.321  0.927  0.373-  31 2.33
  63  0.749  0.998  0.397-  40 2.22  95 2.23  67 2.25
  64  0.082  0.418  0.456-  42 2.35  36 2.35  81 2.38  65 2.50
  65  0.958  0.481  0.403-  58 2.31  92 2.41  64 2.50
  66  0.697  0.690  0.531-  87 2.28  79 2.36  70 2.43  59 2.49  74 2.78  86 3.03
  67  0.594  0.995  0.398-  63 2.25  90 2.35  78 2.44
  68  0.163  0.179  0.610-  88 2.29  69 2.37
  69  0.257  0.052  0.632-  84 2.26  68 2.37
  70  0.797  0.658  0.461-  50 2.23  92 2.41  52 2.43  66 2.43
  71  0.192  0.656  0.493-  36 2.33  82 2.40  33 2.41  41 2.44
  72  0.363  0.400  0.409-  60 2.24  34 2.30  42 2.35
  73  0.679  0.484  0.407-  35 2.37  57 2.37  92 2.39
  74  0.575  0.546  0.517-  44 2.26  57 2.34  39 2.39  66 2.78
  75  0.574  0.729  0.435-  45 2.30  57 2.37  90 2.37  79 2.48
  76  0.660  0.140  0.611-  18 1.52  93 2.49
  77  0.900  0.591  0.558-  50 2.33  37 2.40  48 2.46
  78  0.498  0.005  0.471-  38 2.31  89 2.33  31 2.42  67 2.44
  79  0.558  0.771  0.523-  89 2.26  66 2.36  86 2.38  61 2.40  75 2.48  45 2.74  59 2.77
  80  0.328  0.209  0.490-  85 2.27  38 2.34  88 2.34  60 2.45
  81  0.056  0.284  0.505-   5 1.52  88 2.36  64 2.38  46 2.42
  82  0.056  0.721  0.457-  15 1.55  50 2.29  58 2.39  71 2.40
  83  0.041  0.224  0.371-  23 1.43  49 2.36
  84  0.347  0.004  0.569-  69 2.26  91 2.28  38 2.38  54 2.41
  85  0.261  0.145  0.422-   2 1.54  49 2.27  80 2.27
  86  0.541  0.709  0.604-  79 2.38  61 2.57  87 2.67  44 2.83  66 3.03
  87  0.715  0.653  0.612-  66 2.28  86 2.67
  88  0.202  0.250  0.538-  68 2.29  80 2.34  81 2.36  43 2.47
  89  0.572  0.924  0.533-  79 2.26  54 2.30  78 2.33  59 2.44
  90  0.559  0.844  0.373-  67 2.35  75 2.37
  91  0.257  0.908  0.523-  33 2.28  84 2.28  32 2.33  31 2.35
  92  0.820  0.495  0.452-  48 2.37  73 2.39  70 2.41  65 2.41
  93  0.549  0.205  0.551-  38 2.22  94 2.30  53 2.32  76 2.49
  94  0.606  0.295  0.489-  93 2.30  39 2.31  35 2.38  60 2.53
  95  0.792  0.141  0.415-  24 1.48  21 1.51  63 2.23

  LATTYP: Found a simple tetragonal cell.
 ALAT       =    14.5641956660
 C/A-ratio  =     1.8635278406
  
  Lattice vectors:
  
 A1 = (  14.5641956660,   0.0000000000,   0.0000000000)
 A2 = (   0.0000000000,  14.5641956660,   0.0000000000)
 A3 = (   0.0000000000,   0.0000000000,  27.1407841000)


Analysis of symmetry for initial positions (statically):
=====================================================================
 Subroutine PRICEL returns:
 Original cell was already a primitive cell.
 

 Routine SETGRP: Setting up the symmetry group for a 
 simple tetragonal supercell.


 Subroutine GETGRP returns: Found  1 space group operations
 (whereof  1 operations were pure point group operations)
 out of a pool of 16 trial point group operations.


The static configuration has the point symmetry C_1 .


Analysis of symmetry for dynamics (positions and initial velocities):
=====================================================================
 Subroutine PRICEL returns:
 Original cell was already a primitive cell.
 

 Routine SETGRP: Setting up the symmetry group for a 
 simple tetragonal supercell.


 Subroutine GETGRP returns: Found  1 space group operations
 (whereof  1 operations were pure point group operations)
 out of a pool of 16 trial point group operations.


The dynamic configuration has the point symmetry C_1 .


 Subroutine INISYM returns: Found  1 space group operations
 (whereof  1 operations are pure point group operations),
 and found     1 'primitive' translations


----------------------------------------------------------------------------------------

                                     Primitive cell                                     

  volume of cell :    5756.9890

  direct lattice vectors                    reciprocal lattice vectors
    14.564195666  0.000000000  0.000000000     0.068661533  0.000000000  0.000000000
     0.000000000 14.564195666  0.000000000     0.000000000  0.068661533  0.000000000
     0.000000000  0.000000000 27.140784100     0.000000000  0.000000000  0.036844919

  length of vectors
    14.564195666 14.564195666 27.140784100     0.068661533  0.068661533  0.036844919

  position of ions in fractional coordinates (direct lattice)
     0.004781246  0.084321855  0.455498045
     0.201461177  0.071632517  0.447945942
     0.065751039  0.742636274  0.593930302
     0.058443736  0.963396834  0.599256972
     0.993721260  0.204447954  0.490933278
     0.048637564  0.732961864  0.569310895
     0.649292293  0.070037510  0.512204218
     0.772133268  0.879313921  0.575087073
     0.933055303  0.836956622  0.598852046
     0.984990886  0.101428190  0.559355030
     0.693199970  0.081287702  0.498750296
     0.876340877  0.795320268  0.516708510
     0.874294763  0.983047765  0.621757796
     0.838226860  0.026322223  0.529508066
     0.055074033  0.815705877  0.431958563
     0.028800149  0.869536519  0.534941218
     0.868259414  0.186873348  0.509881883
     0.688297537  0.048365733  0.588651899
     0.987291048  0.059805500  0.478652129
     0.098379618  0.030276372  0.532800160
     0.894254671  0.138021354  0.408118058
     0.753326874  0.286341251  0.553597274
     0.042019485  0.195915385  0.421088575
     0.773980264  0.161631995  0.467583916
     0.906606881  0.827467598  0.576898001
     0.755201334  0.237861402  0.560492801
     0.001535038  0.972686740  0.406150908
     0.083775310  0.955116254  0.458600019
     0.882156509  0.905123791  0.465080303
     0.842051307  0.133687438  0.594817896
     0.360160638  0.916295023  0.456171939
     0.101154230  0.935019023  0.510535143
     0.261393769  0.759945846  0.550826168
     0.398335763  0.553321322  0.403664981
     0.643347578  0.325124717  0.404741700
     0.153733859  0.507926436  0.517362875
     0.033769115  0.495761672  0.566722908
     0.437870388  0.111889461  0.524863764
     0.658103628  0.410587727  0.540047187
     0.787527184  0.893396402  0.452970852
     0.298540345  0.669993059  0.423540236
     0.202620184  0.387747468  0.401122755
     0.237976067  0.404248895  0.569911468
     0.451586215  0.549651363  0.567818308
     0.422512862  0.758648143  0.453133707
     0.945853813  0.355740208  0.559748534
     0.882705801  0.115391199  0.546640217
     0.819303741  0.449495472  0.535699486
     0.200788294  0.247844102  0.368449193
     0.921781079  0.709232438  0.500832402
     0.252444425  0.714546841  0.630249813
     0.786373670  0.773149459  0.397319144
     0.462721743  0.296121399  0.603395762
     0.485357390  0.939763535  0.603669520
     0.585041577  0.411128780  0.615738073
     0.383958725  0.400435433  0.547742985
     0.548670190  0.567944169  0.433065753
     0.016893346  0.626194553  0.388596957
     0.726130041  0.858516343  0.527657714
     0.438764361  0.329876095  0.470071684
     0.411318973  0.701679669  0.539512935
     0.321284478  0.926882631  0.373148361
     0.748877607  0.997803129  0.397057766
     0.082064264  0.417885762  0.456458961
     0.957897046  0.481451236  0.402774181
     0.697285331  0.689966012  0.530887908
     0.594371306  0.994651564  0.397729449
     0.163450152  0.178536464  0.609870520
     0.256993252  0.051712502  0.631550807
     0.797469374  0.657631236  0.461472817
     0.192392362  0.656216122  0.492592036
     0.362828138  0.399632780  0.408625044
     0.679271292  0.483511082  0.407429795
     0.574859072  0.545799451  0.517309082
     0.574077017  0.728601856  0.434868943
     0.660427820  0.140046869  0.610986184
     0.900296886  0.591432592  0.557945343
     0.497510482  0.005070098  0.470867166
     0.557679956  0.770773770  0.522985410
     0.328290014  0.208802468  0.489590649
     0.055779805  0.284448939  0.504836708
     0.055810978  0.720719512  0.457361661
     0.040609108  0.224477209  0.370789372
     0.346744174  0.003575591  0.568950921
     0.261151394  0.144669163  0.422211240
     0.540838655  0.708511492  0.603627516
     0.715061802  0.653304186  0.612074583
     0.201777707  0.250109246  0.537640108
     0.572383823  0.924246028  0.533291302
     0.559068979  0.843795310  0.373463348
     0.257276137  0.907616205  0.522829188
     0.820374861  0.494770200  0.451897191
     0.548987406  0.204553692  0.550909806
     0.605553523  0.295447143  0.488639682
     0.791722404  0.140745157  0.414901576

  ion indices of the primitive-cell ions
   primitive index   ion index
                 1           1
                 2           2
                 3           3
                 4           4
                 5           5
                 6           6
                 7           7
                 8           8
                 9           9
                10          10
                11          11
                12          12
                13          13
                14          14
                15          15
                16          16
                17          17
                18          18
                19          19
                20          20
                21          21
                22          22
                23          23
                24          24
                25          25
                26          26
                27          27
                28          28
                29          29
                30          30
                31          31
                32          32
                33          33
                34          34
                35          35
                36          36
                37          37
                38          38
                39          39
                40          40
                41          41
                42          42
                43          43
                44          44
                45          45
                46          46
                47          47
                48          48
                49          49
                50          50
                51          51
                52          52
                53          53
                54          54
                55          55
                56          56
                57          57
                58          58
                59          59
                60          60
                61          61
                62          62
                63          63
                64          64
                65          65
                66          66
                67          67
                68          68
                69          69
                70          70
                71          71
                72          72
                73          73
                74          74
                75          75
                76          76
                77          77
                78          78
                79          79
                80          80
                81          81
                82          82
                83          83
                84          84
                85          85
                86          86
                87          87
                88          88
                89          89
                90          90
                91          91
                92          92
                93          93
                94          94
                95          95

----------------------------------------------------------------------------------------


 -----------------------------------------------------------------------------
|                                                                             |
|           W    W    AA    RRRRR   N    N  II  N    N   GGGG   !!!           |
|           W    W   A  A   R    R  NN   N  II  NN   N  G    G  !!!           |
|           W    W  A    A  R    R  N N  N  II  N N  N  G       !!!           |
|           W WW W  AAAAAA  RRRRR   N  N N  II  N  N N  G  GGG   !            |
|           WW  WW  A    A  R   R   N   NN  II  N   NN  G    G                |
|           W    W  A    A  R    R  N    N  II  N    N   GGGG   !!!           |
|                                                                             |
|     The requested file  could not be found or opened for reading            |
|     k-point information. Automatic k-point generation is used as a          |
|     fallback, which may lead to unwanted results.                           |
|                                                                             |
 -----------------------------------------------------------------------------



Automatic generation of k-mesh.
 Grid dimensions derived from KSPACING:
 generate k-points for:    2    2    2

 Generating k-lattice:

  Cartesian coordinates                     Fractional coordinates (reciprocal lattice)
     0.034330766  0.000000000  0.000000000     0.500000000  0.000000000  0.000000000
     0.000000000  0.034330766  0.000000000     0.000000000  0.500000000  0.000000000
     0.000000000  0.000000000  0.018422460     0.000000000  0.000000000  0.500000000

  Length of vectors
     0.034330766  0.034330766  0.018422460

  Shift w.r.t. Gamma in fractional coordinates (k-lattice)
     0.000000000  0.000000000  0.000000000

 
 Subroutine IBZKPT returns following result:
 ===========================================
 
 Found      8 irreducible k-points:
 
 Following reciprocal coordinates:
            Coordinates               Weight
  0.000000  0.000000  0.000000      1.000000
  0.500000  0.000000  0.000000      1.000000
  0.000000  0.500000  0.000000      1.000000
  0.500000  0.500000  0.000000      1.000000
  0.000000  0.000000  0.500000      1.000000
  0.500000  0.000000  0.500000      1.000000
  0.000000  0.500000  0.500000      1.000000
  0.500000  0.500000  0.500000      1.000000
 
 Following cartesian coordinates:
            Coordinates               Weight
  0.000000  0.000000  0.000000      1.000000
  0.034331  0.000000  0.000000      1.000000
  0.000000  0.034331  0.000000      1.000000
  0.034331  0.034331  0.000000      1.000000
  0.000000  0.000000  0.018422      1.000000
  0.034331  0.000000  0.018422      1.000000
  0.000000  0.034331  0.018422      1.000000
  0.034331  0.034331  0.018422      1.000000
 


--------------------------------------------------------------------------------------------------------




 Dimension of arrays:
   k-points           NKPTS =      8   k-points in BZ     NKDIM =      8   number of bands    NBANDS=    200
   number of dos      NEDOS =   2000   number of ions     NIONS =     95
   non local maximal  LDIM  =      4   non local SUM 2l+1 LMDIM =      8
   total plane-waves  NPLWV = ******
   max r-space proj   IRMAX =      1   max aug-charges    IRDMAX= 419778
   dimension x,y,z NGX =   168 NGY =  168 NGZ =  320
   dimension x,y,z NGXF=   336 NGYF=  336 NGZF=  640
   support grid    NGXF=   672 NGYF=  672 NGZF= 1280
   ions per type =              30  65
   NGX,Y,Z   is equivalent  to a cutoff of  19.18, 19.18, 19.60 a.u.
   NGXF,Y,Z  is equivalent  to a cutoff of  38.35, 38.35, 39.20 a.u.

 SYSTEM =  a-Si SPC                                
 POSCAR =   H Si                                   

 Startparameter for this run:
   NWRITE =      2    write-flag & timer
   PREC   = accura    normal or accurate (medium, high low for compatibility)
   ISTART =      1    job   : 0-new  1-cont  2-samecut
   ICHARG =      1    charge: 1-file 2-atom 10-const
   ISPIN  =      1    spin polarized calculation?
   LNONCOLLINEAR =      F non collinear calculations
   LSORBIT =      F    spin-orbit coupling
   INIWAV =      1    electr: 0-lowe 1-rand  2-diag
   LASPH  =      T    aspherical Exc in radial PAW
 Electronic Relaxation 1
   ENCUT  = 1200.0 eV  88.20 Ry    9.39 a.u.  41.14 41.14 76.66*2*pi/ulx,y,z
   ENINI  = 1200.0     initial cutoff
   ENAUG  =  400.0 eV  augmentation charge cutoff
   NELM   =    150;   NELMIN=  2; NELMDL=  0     # of ELM steps 
   EDIFF  = 0.1E-05   stopping-criterion for ELM
   LREAL  =      F    real-space projection
   NLSPLINE    = F    spline interpolate recip. space projectors
   LCOMPAT=      F    compatible to vasp.4.4
   GGA_COMPAT  = T    GGA compatible to vasp.4.4-vasp.4.6
   LMAXPAW     = -100 max onsite density
   LMAXMIX     =    2 max onsite mixed and CHGCAR
   VOSKOWN=      0    Vosko Wilk Nusair interpolation
   ROPT   =    0.00000   0.00000
 Ionic relaxation
   EDIFFG = -.1E-01   stopping-criterion for IOM
   NSW    =      0    number of steps for IOM
   NBLOCK =      1;   KBLOCK =      1    inner block; outer block 
   IBRION =     -1    ionic relax: 0-MD 1-quasi-New 2-CG
   NFREE  =      0    steps in history (QN), initial steepest desc. (CG)
   ISIF   =      2    stress and relaxation
   IWAVPR =     10    prediction:  0-non 1-charg 2-wave 3-comb
   ISYM   =      1    0-nonsym 1-usesym 2-fastsym
   LCORR  =      T    Harris-Foulkes like correction to forces

   POTIM  = 0.5000    time-step for ionic-motion
   TEIN   =    0.0    initial temperature
   TEBEG  =    0.0;   TEEND  =   0.0 temperature during run
   SMASS  =  -3.00    Nose mass-parameter (am)
   estimated Nose-frequenzy (Omega)   =  0.10E-29 period in steps = 0.13E+47 mass=  -0.485E-26a.u.
   SCALEE = 1.0000    scale energy and forces
   NPACO  =    256;   APACO  = 10.0  distance and # of slots for P.C.
   PSTRESS=    0.0 pullay stress

  Mass of Ions in am
   POMASS =   1.00 28.09
  Ionic Valenz
   ZVAL   =   1.00  4.00
  Atomic Wigner-Seitz radii
   RWIGS  =  -1.00 -1.00
  virtual crystal weights 
   VCA    =   1.00  1.00
   NELECT =     290.0000    total number of electrons
   NUPDOWN=      -1.0000    fix difference up-down

 DOS related values:
   EMIN   =  10.00;   EMAX   =-10.00  energy-range for DOS
   EFERMI =   0.00;   METHOD = LEGACY      
   ISMEAR =     0;   SIGMA  =   0.10  broadening in eV -4-tet -1-fermi 0-gaus
   EFERMI_NEDOS =   21; number of points for ismear=-14 and -15

 Electronic relaxation 2 (details)
   IALGO  =     38    algorithm
   LDIAG  =      F    sub-space diagonalisation (order eigenvalues)
   LSUBROT=      F    optimize rotation matrix (better conditioning)
   TURBO    =      0    0=normal 1=particle mesh
   IRESTART =      0    0=no restart 2=restart with 2 vectors
   NREBOOT  =      0    no. of reboots
   NMIN     =      0    reboot dimension
   EREF     =   0.00    reference energy to select bands
   IMIX   =      4    mixing-type and parameters
     AMIX     =   0.40;   BMIX     =  1.00
     AMIX_MAG =   1.60;   BMIX_MAG =  1.00
     AMIN     =   0.10
     WC   =   100.;   INIMIX=   1;  MIXPRE=   1;  MAXMIX= -45

 Intra band minimization:
   WEIMIN = 0.0000     energy-eigenvalue tresh-hold
   EBREAK =  0.13E-08  absolut break condition
   DEPER  =   0.30     relativ break condition  

   TIME   =   0.40     timestep for ELM

  volume/ion in A,a.u.               =      60.60       408.95
  Fermi-wavevector in a.u.,A,eV,Ry     =   0.604611  1.142548  4.973662  0.365554
  Thomas-Fermi vector in A             =   1.658028

 Write flags
   LWAVE        =      F    write WAVECAR
   LDOWNSAMPLE  =      F    k-point downsampling of WAVECAR
   LCHARG       =      F    write CHGCAR
   LVTOT        =      F    write LOCPOT, total local potential
   LVHAR        =      F    write LOCPOT, Hartree potential only
   WRT_POTENTIAL= false  ! write potential to hdf5 file
   LELF         =      F    write electronic localiz. function (ELF)
   LORBIT       =     11    0 simple, 1 ext, 2 COOP (PROOUT), +10 PAW based schemes


 Python interface
   PLUGINS active      =      F    recompile with -DPLUGINS to activate

 Dipole corrections
   LMONO      =      F    monopole corrections only (constant potential shift)
   LDIPOL     =      F    correct potential (dipole corrections)
   IDIPOL     =      0    1-x, 2-y, 3-z, 4-all directions 
   EPSILON    =  1.0000000 bulk dielectric constant
   LVACPOTAV  =      F  vacuum potentials using an averaging scheme for the charge density
   VACPOTFLAT =  0.1000000 required flatness to determine vacuum potential

Coulomb truncation method
  LTRUNCATE          =      F  Coulomb kernel truncation to be used
  IDIMENSIONALITY    =      3  Dimensionality of cutoff (0 molecules / 2 surfaces)
  ISURFACE           =     -1  Direction of surface normal
  LCOARSEN           =      F  Coarsen the charge grid before padding, preferred


 Exchange correlation treatment:
   METAGGA = SCAN    functional components
   XC_C    = 1    coefficients multiplying the functional components
   LIBXC   =     F    Libxc                    
   VOSKOWN =     0    Vosko Wilk Nusair interpolation
   LHFCALC =     F    Hartree Fock is set to
   LHFONE  =     F    Hartree Fock one center treatment
   AEXX    =    0.0000 exact exchange contribution

 Parameters of functionals:
   SCAN:
     P1 =  0.000000E+00
     P2 =  0.000000E+00
     P3 =  0.000000E+00

 Accuracy and mixing parameters for tau-dependent meta-GGA functionals:
   LMAXTAU = 6
   LMIXTAU = T

 Van der Waals corrections
   IVDW    =     0    specifies the selected vdW correction

 Linear response parameters
   LEPSILON=     F    determine dielectric tensor
   LRPA    =     F    only Hartree local field effects (RPA)
   LNABLA  =     F    use nabla operator in PAW spheres
   LVEL    =     F    velocity operator in full k-point grid
   CSHIFT  =0.1000    complex shift for real part using Kramers Kronig
   OMEGAMAX=  -1.0    maximum frequency
   DEG_THRESHOLD= 0.2000000E-02 threshold for treating states as degnerate
   RTIME   =   -0.100 relaxation time in fs
  (WPLASMAI=    0.000 imaginary part of plasma frequency in eV, 0.658/RTIME)
   DFIELD  = 0.0000000 0.0000000 0.0000000 field for delta impulse in time

  Optional k-point grid parameters
   LKPOINTS_OPT  =     F    use optional k-point grid
   KPOINTS_OPT_MODE=     1    mode for optional k-point grid

 Orbital magnetization related:
   ORBITALMAG=     F  switch on orbital magnetization
   LCHIMAG   =     F  perturbation theory with respect to B field
   DQ        =  0.001000  dq finite difference perturbation B field
   LLRAUG    =     F  two centre corrections for induced B field
   LBONE     =     F  B-component reconstruction in AE one-centre
   LVGVCALC  =     T  calculate vGv susceptibility
   LVGVAPPL  =     F  apply vGv susceptibility instead of pGv for G=0

 Random number generation:
   RANDOM_GENERATOR = DEFAULT
   PCG_SEED         = not used


--------------------------------------------------------------------------------------------------------


 Static calculation
 charge density and potential will be updated during run
 non-spin polarized calculation
 Variant of blocked Davidson
 perform Loewdin sub-space diagonalisation
    ordering is kept fixed
    before iterative eigenvector-optimisation
 modified Broyden-mixing scheme, WC =      100.0
 initial mixing is a Kerker type mixing with AMIX =  0.4000 and BMIX =      1.0000
 Hartree-type preconditioning will be used
 using additional bands           55
 reciprocal scheme for non local part
 use partial core corrections
 calculate Harris-corrections to forces   (improved forces if not selfconsistent)
 use gradient corrections 
 use of overlap-Matrix (Vanderbilt PP)
 Gauss-broadening in eV      SIGMA  =   0.10


--------------------------------------------------------------------------------------------------------


  energy-cutoff  :     1200.00
  volume of cell :     5756.99
      direct lattice vectors                 reciprocal lattice vectors
    14.564195666  0.000000000  0.000000000     0.068661533  0.000000000  0.000000000
     0.000000000 14.564195666  0.000000000     0.000000000  0.068661533  0.000000000
     0.000000000  0.000000000 27.140784100     0.000000000  0.000000000  0.036844919

  length of vectors
    14.564195666 14.564195666 27.140784100     0.068661533  0.068661533  0.036844919



 old parameters found on file WAVECAR:
  energy-cutoff  :     1200.00
  volume of cell :     5756.99
      direct lattice vectors                 reciprocal lattice vectors
    14.564195666  0.000000000  0.000000000     0.068661533  0.000000000  0.000000000
     0.000000000 14.564195666  0.000000000     0.000000000  0.068661533  0.000000000
     0.000000000  0.000000000 27.140784100     0.000000000  0.000000000  0.036844919

  length of vectors


 k-points in units of 2pi/SCALE and weight: read from INCAR                         
   0.00000000  0.00000000  0.00000000       0.125
   0.03433077  0.00000000  0.00000000       0.125
   0.00000000  0.03433077  0.00000000       0.125
   0.03433077  0.03433077  0.00000000       0.125
   0.00000000  0.00000000  0.01842246       0.125
   0.03433077  0.00000000  0.01842246       0.125
   0.00000000  0.03433077  0.01842246       0.125
   0.03433077  0.03433077  0.01842246       0.125

 k-points in reciprocal lattice and weights: read from INCAR                         
   0.00000000  0.00000000  0.00000000       0.125
   0.50000000  0.00000000  0.00000000       0.125
   0.00000000  0.50000000  0.00000000       0.125
   0.50000000  0.50000000  0.00000000       0.125
   0.00000000  0.00000000  0.50000000       0.125
   0.50000000  0.00000000  0.50000000       0.125
   0.00000000  0.50000000  0.50000000       0.125
   0.50000000  0.50000000  0.50000000       0.125

 position of ions in fractional coordinates (direct lattice) 
   0.00478125  0.08432186  0.45549805
   0.20146118  0.07163252  0.44794594
   0.06575104  0.74263627  0.59393030
   0.05844374  0.96339683  0.59925697
   0.99372126  0.20444795  0.49093328
   0.04863756  0.73296186  0.56931090
   0.64929229  0.07003751  0.51220422
   0.77213327  0.87931392  0.57508707
   0.93305530  0.83695662  0.59885205
   0.98499089  0.10142819  0.55935503
   0.69319997  0.08128770  0.49875030
   0.87634088  0.79532027  0.51670851
   0.87429476  0.98304777  0.62175780
   0.83822686  0.02632222  0.52950807
   0.05507403  0.81570588  0.43195856
   0.02880015  0.86953652  0.53494122
   0.86825941  0.18687335  0.50988188
   0.68829754  0.04836573  0.58865190
   0.98729105  0.05980550  0.47865213
   0.09837962  0.03027637  0.53280016
   0.89425467  0.13802135  0.40811806
   0.75332687  0.28634125  0.55359727
   0.04201948  0.19591538  0.42108857
   0.77398026  0.16163199  0.46758392
   0.90660688  0.82746760  0.57689800
   0.75520133  0.23786140  0.56049280
   0.00153504  0.97268674  0.40615091
   0.08377531  0.95511625  0.45860002
   0.88215651  0.90512379  0.46508030
   0.84205131  0.13368744  0.59481790
   0.36016064  0.91629502  0.45617194
   0.10115423  0.93501902  0.51053514
   0.26139377  0.75994585  0.55082617
   0.39833576  0.55332132  0.40366498
   0.64334758  0.32512472  0.40474170
   0.15373386  0.50792644  0.51736288
   0.03376912  0.49576167  0.56672291
   0.43787039  0.11188946  0.52486376
   0.65810363  0.41058773  0.54004719
   0.78752718  0.89339640  0.45297085
   0.29854035  0.66999306  0.42354024
   0.20262018  0.38774747  0.40112276
   0.23797607  0.40424889  0.56991147
   0.45158622  0.54965136  0.56781831
   0.42251286  0.75864814  0.45313371
   0.94585381  0.35574021  0.55974853
   0.88270580  0.11539120  0.54664022
   0.81930374  0.44949547  0.53569949
   0.20078829  0.24784410  0.36844919
   0.92178108  0.70923244  0.50083240
   0.25244442  0.71454684  0.63024981
   0.78637367  0.77314946  0.39731914
   0.46272174  0.29612140  0.60339576
   0.48535739  0.93976353  0.60366952
   0.58504158  0.41112878  0.61573807
   0.38395873  0.40043543  0.54774299
   0.54867019  0.56794417  0.43306575
   0.01689335  0.62619455  0.38859696
   0.72613004  0.85851634  0.52765771
   0.43876436  0.32987610  0.47007168
   0.41131897  0.70167967  0.53951294
   0.32128448  0.92688263  0.37314836
   0.74887761  0.99780313  0.39705777
   0.08206426  0.41788576  0.45645896
   0.95789705  0.48145124  0.40277418
   0.69728533  0.68996601  0.53088791
   0.59437131  0.99465156  0.39772945
   0.16345015  0.17853646  0.60987052
   0.25699325  0.05171250  0.63155081
   0.79746937  0.65763124  0.46147282
   0.19239236  0.65621612  0.49259204
   0.36282814  0.39963278  0.40862504
   0.67927129  0.48351108  0.40742979
   0.57485907  0.54579945  0.51730908
   0.57407702  0.72860186  0.43486894
   0.66042782  0.14004687  0.61098618
   0.90029689  0.59143259  0.55794534
   0.49751048  0.00507010  0.47086717
   0.55767996  0.77077377  0.52298541
   0.32829001  0.20880247  0.48959065
   0.05577981  0.28444894  0.50483671
   0.05581098  0.72071951  0.45736166
   0.04060911  0.22447721  0.37078937
   0.34674417  0.00357559  0.56895092
   0.26115139  0.14466916  0.42221124
   0.54083866  0.70851149  0.60362752
   0.71506180  0.65330419  0.61207458
   0.20177771  0.25010925  0.53764011
   0.57238382  0.92424603  0.53329130
   0.55906898  0.84379531  0.37346335
   0.25727614  0.90761621  0.52282919
   0.82037486  0.49477020  0.45189719
   0.54898741  0.20455369  0.55090981
   0.60555352  0.29544714  0.48863968
   0.79172240  0.14074516  0.41490158

 position of ions in cartesian coordinates  (Angst):
   0.06963500  1.22808000 12.36257410
   2.93412000  1.04327000 12.15760410
   0.95761100 10.81590000 16.11973410
   0.85118600 14.03110000 16.26430410
  14.47275087  2.97762000 13.32431410
   0.70836700 10.67500000 15.45154410
   9.45642000  1.02004000 13.90162410
  11.24550000 12.80650000 15.60831410
  13.58920000 12.18960000 16.25331410
  14.34560000  1.47722000 15.18133410
  10.09590000  1.18389000 13.53647410
  12.76320000 11.58320000 14.02387410
  12.73340000 14.31730000 16.87499410
  12.20810000  0.38336200 14.37126410
   0.80210900 11.88010000 11.72369410
   0.41945100 12.66410000 14.51872410
  12.64550000  2.72166000 13.83859410
  10.02450000  0.70440800 15.97647410
  14.37910000  0.87101900 12.99099410
   1.43282000  0.44095100 14.46061410
  13.02410000  2.01017000 11.07664410
  10.97160000  4.17033000 15.02506410
   0.61198000  2.85335000 11.42867410
  11.27240000  2.35404000 12.69059410
  13.20400000 12.05140000 15.65746410
  10.99890000  3.46426000 15.21221410
   0.02235660 14.16640000 11.02325410
   1.22012000 13.91050000 12.44676410
  12.84790000 13.18240000 12.62264410
  12.26380000  1.94705000 16.14382410
   5.24545000 13.34510000 12.38086410
   1.47323000 13.61780000 13.85632410
   3.80699000 11.06800000 14.94985410
   5.80144000  8.05868000 10.95578410
   9.36984000  4.73518000 10.98500710
   2.23901000  7.39754000 14.04163410
   0.49182000  7.22037000 15.38130410
   6.37723000  1.62958000 14.24521410
   9.58475000  5.97988000 14.65730410
  11.46970000 13.01160000 12.29398410
   4.34800000  9.75791000 11.49521410
   2.95100000  5.64723000 10.88678610
   3.46593000  5.88756000 15.46784410
   6.57699000  8.00523000 15.41103410
   6.15356000 11.04910000 12.29840410
  13.77560000  5.18107000 15.19201410
  12.85590000  1.68058000 14.83624410
  11.93250000  6.54654000 14.53930410
   2.92432000  3.60965000 10.00000000
  13.42500000 10.32940000 13.59298410
   3.67665000 10.40680000 17.10547410
  11.45290000 11.26030000 10.78355310
   6.73917000  4.31277000 16.37663410
   7.06884000 13.68690000 16.38406410
   8.52066000  5.98776000 16.71161410
   5.59205000  5.83202000 14.86617410
   7.99094000  8.27165000 11.75374410
   0.24603800  9.12002000 10.54682610
  10.57550000 12.50360000 14.32104410
   6.39025000  4.80438000 12.75811410
   5.99053000 10.21940000 14.64280410
   4.67925000 13.49930000 10.12753910
  10.90680000 14.53220000 10.77645910
   1.19520000  6.08617000 12.38865410
  13.95100000  7.01195000 10.93160710
  10.15540000 10.04880000 14.40871410
   8.65654000 14.48630000 10.79468910
   2.38052000  2.60024000 16.55236410
   3.74290000  0.75315100 17.14078410
  11.61450000  9.57787000 12.52473410
   2.80204000  9.55726000 13.36933410
   5.28430000  5.82033000 11.09040410
   9.89304000  7.04195000 11.05796410
   8.37236000  7.94913000 14.04017410
   8.36097000 10.61150000 11.80268410
   9.61860000  2.03967000 16.58264410
  13.11210000  8.61374000 15.14307410
   7.24584000  0.07384190 12.77970410
   8.12216000 11.22570000 14.19423410
   4.78128000  3.04104000 13.28787410
   0.81238800  4.14277000 13.70166410
   0.81284200 10.49670000 12.41315410
   0.59143900  3.26933000 10.06351430
   5.05005000  0.05207560 15.44177410
   3.80346000  2.10699000 11.45914410
   7.87688000 10.31890000 16.38292410
  10.41430000  9.51485000 16.61218410
   2.93873000  3.64264000 14.59197410
   8.33631000 13.46090000 14.47394410
   8.14239000 12.28920000 10.13608810
   3.74702000 13.21870000 14.18999410
  11.94810000  7.20593000 12.26484410
   7.99556000  2.97916000 14.95212410
   8.81940000  4.30295000 13.26206410
  11.53080000  2.04984000 11.26075410



--------------------------------------------------------------------------------------------------------


 k-point     1 :   0.0000 0.0000 0.0000  plane waves:  543369
 k-point     2 :   0.5000 0.0000 0.0000  plane waves:  543626
 k-point     3 :   0.0000 0.5000 0.0000  plane waves:  543626
 k-point     4 :   0.5000 0.5000 0.0000  plane waves:  543404
 k-point     5 :   0.0000 0.0000 0.5000  plane waves:  543418
 k-point     6 :   0.5000 0.0000 0.5000  plane waves:  543396
 k-point     7 :   0.0000 0.5000 0.5000  plane waves:  543396
 k-point     8 :   0.5000 0.5000 0.5000  plane waves:  543328

 maximum and minimum number of plane-waves per node :     34060    33868

 maximum number of plane-waves:    543626
 maximum index in each direction: 
   IXMAX=   41   IYMAX=   41   IZMAX=   76
   IXMIN=  -41   IYMIN=  -41   IZMIN=  -77


 parallel 3D FFT for wavefunctions:
    minimum data exchange during FFTs selected (reduces bandwidth)
 parallel 3D FFT for charge:
    minimum data exchange during FFTs selected (reduces bandwidth)


 total amount of memory used by VASP MPI-rank0   418249. kBytes
=======================================================================

   base                                    :      30000. kBytes
   nonl-proj                               :      86475. kBytes
   fftplans                                :     108837. kBytes
   grid                                    :      83991. kBytes
   one-center                              :         18. kBytes
   wavefun                                 :     108928. kBytes

     INWAV:  cpu time     32.7244: real time     32.7452
 Broyden mixing: mesh for mixing (old mesh)
   NGX = 83   NGY = 83   NGZ =153
  (NGX  =336   NGY  =336   NGZ  =640)
  gives a total of ****** points

 initial charge density was supplied:
 number of electron     289.9999999 magnetization 
 keeping initial charge density in first step


--------------------------------------------------------------------------------------------------------


 Maximum index for augmentation-charges        10761 (set IRDMAX)


--------------------------------------------------------------------------------------------------------


 First call to EWALD:  gamma=   0.099
 Maximum number of real-space cells   3x   3x   2
 Maximum number of reciprocal cells   2x   2x   4

    FEWALD:  cpu time      0.0141: real time      0.0141


--------------------------------------- Ionic step        1  -------------------------------------------




--------------------------------------- Iteration      1(   1)  ---------------------------------------


    POTLOK:  cpu time      2.1766: real time      2.1783
    SETDIJ:  cpu time      1.6833: real time      1.6840
    EDDIAG:  cpu time     66.3467: real time     66.3881
     EDDAV:  cpu time    303.9608: real time    304.1292
       DOS:  cpu time      0.0103: real time      0.0104
    CHARGE:  cpu time     36.9768: real time     37.0107
    MIXING:  cpu time      0.0508: real time      0.0515
    --------------------------------------------
      LOOP:  cpu time    411.2053: real time    411.4521

 eigenvalue-minimisations  :  3296
 total energy-change (2. order) :-0.7310320E+03  (-0.8613577E+00)
 number of electron     289.9999999 magnetization 
 augmentation part      -14.4919801 magnetization 

 Broyden mixing:
  rms(total) = 0.94096E+00    rms(broyden)= 0.25458E+02
  rms(prec ) = 0.98106E+00
  weight for this iteration     100.00
  WARNING: grid for Broyden might be to small

 Free energy of the ion-electron system (eV)
  ---------------------------------------------------
  alpha Z        PSCENC =        31.23719030
  Ewald energy   TEWEN  =     37860.35246047
  -Hartree energ DENC   =    -43880.67048519
  -exchange      EXHF   =         0.00000000
  -V(xc)+E(xc)   XCENC  =      -239.31092741
  PAW double counting   =     22765.00642134   -22116.65637020
  entropy T*S    EENTRO =        -0.19721382
  eigenvalues    EBANDS =     -2224.78823620
  atomic energy  EATOM  =      7073.99518811
  Solvation  Ediel_sol  =         0.00000000
  ---------------------------------------------------
  free energy    TOTEN  =      -731.03197260 eV

  energy without entropy =     -730.83475877  energy(sigma->0) =     -730.93336569


--------------------------------------------------------------------------------------------------------




--------------------------------------- Iteration      1(   2)  ---------------------------------------


    POTLOK:  cpu time      2.1374: real time      2.1603
    SETDIJ:  cpu time      1.6763: real time      1.6777
    EDDIAG:  cpu time     66.2853: real time     66.3267
     EDDAV:  cpu time    298.6724: real time    298.8426
       DOS:  cpu time      0.0050: real time      0.0050
    CHARGE:  cpu time     36.9113: real time     36.9461
    MIXING:  cpu time      0.0432: real time      0.0439
    --------------------------------------------
      LOOP:  cpu time    405.7309: real time    406.0022

 eigenvalue-minimisations  :  3200
 total energy-change (2. order) : 0.5258753E+02  (-0.9037692E+00)
 number of electron     289.9999999 magnetization 
 augmentation part      -14.5251196 magnetization 

 Broyden mixing:
  rms(total) = 0.78685E+00    rms(broyden)= 0.14761E+02
  rms(prec ) = 0.84591E+00
  weight for this iteration     100.00
  WARNING: grid for Broyden might be to small

 eigenvalues of (default mixing * dielectric matrix)
  average eigenvalue GAMMA=   0.6334
  0.6334

 Free energy of the ion-electron system (eV)
  ---------------------------------------------------
  alpha Z        PSCENC =        31.23719030
  Ewald energy   TEWEN  =     37860.35246047
  -Hartree energ DENC   =    -43867.86145122
  -exchange      EXHF   =         0.00000000
  -V(xc)+E(xc)   XCENC  =      -233.25268934
  PAW double counting   =     26988.00201631   -26339.45172947
  entropy T*S    EENTRO =        -0.23178037
  eigenvalues    EBANDS =     -2191.23364567
  atomic energy  EATOM  =      7073.99518811
  Solvation  Ediel_sol  =         0.00000000
  ---------------------------------------------------
  free energy    TOTEN  =      -678.44444088 eV

  energy without entropy =     -678.21266050  energy(sigma->0) =     -678.32855069


--------------------------------------------------------------------------------------------------------




--------------------------------------- Iteration      1(   3)  ---------------------------------------


    POTLOK:  cpu time      2.1313: real time      2.1513
    SETDIJ:  cpu time      1.7302: real time      1.7316
    EDDIAG:  cpu time     66.3923: real time     66.4301
     EDDAV:  cpu time    300.3468: real time    300.5244
       DOS:  cpu time      0.0030: real time      0.0030
    CHARGE:  cpu time     36.9251: real time     36.9616
    MIXING:  cpu time      0.0412: real time      0.0412
    --------------------------------------------
      LOOP:  cpu time    407.5699: real time    407.8431

 eigenvalue-minimisations  :  3232
 total energy-change (2. order) :-0.2022081E+01  (-0.1202849E+01)
 number of electron     289.9999999 magnetization 
 augmentation part      -14.4046906 magnetization 

 Broyden mixing:
  rms(total) = 0.55313E+00    rms(broyden)= 0.20576E+01
  rms(prec ) = 0.57812E+00
  weight for this iteration     100.00
  WARNING: grid for Broyden might be to small

 eigenvalues of (default mixing * dielectric matrix)
  average eigenvalue GAMMA=   0.5014
  0.6375  0.3653

 Free energy of the ion-electron system (eV)
  ---------------------------------------------------
  alpha Z        PSCENC =        31.23719030
  Ewald energy   TEWEN  =     37860.35246047
  -Hartree energ DENC   =    -43871.29828017
  -exchange      EXHF   =         0.00000000
  -V(xc)+E(xc)   XCENC  =      -236.16888622
  PAW double counting   =     29171.24050879   -28522.80373867
  entropy T*S    EENTRO =        -0.17596385
  eigenvalues    EBANDS =     -2186.84500028
  atomic energy  EATOM  =      7073.99518811
  Solvation  Ediel_sol  =         0.00000000
  ---------------------------------------------------
  free energy    TOTEN  =      -680.46652152 eV

  energy without entropy =     -680.29055767  energy(sigma->0) =     -680.37853959


--------------------------------------------------------------------------------------------------------




--------------------------------------- Iteration      1(   4)  ---------------------------------------


    POTLOK:  cpu time      2.2084: real time      2.2279
    SETDIJ:  cpu time      1.6700: real time      1.6714
    EDDIAG:  cpu time     66.3573: real time     66.4008
     EDDAV:  cpu time    317.8179: real time    318.0059
       DOS:  cpu time      0.0102: real time      0.0106
    CHARGE:  cpu time     36.9029: real time     36.9375
    MIXING:  cpu time      0.0570: real time      0.0576
    --------------------------------------------
      LOOP:  cpu time    425.0236: real time    425.3116

 eigenvalue-minimisations  :  3568
 total energy-change (2. order) :-0.2689936E+00  (-0.8871337E-01)
 number of electron     289.9999999 magnetization 
 augmentation part      -14.3798602 magnetization 

 Broyden mixing:
  rms(total) = 0.37752E+00    rms(broyden)= 0.12408E+02
  rms(prec ) = 0.45194E+00
  weight for this iteration     100.00
  WARNING: grid for Broyden might be to small

 eigenvalues of (default mixing * dielectric matrix)
  average eigenvalue GAMMA=   0.6515
  0.8280  0.6177  0.5088

 Free energy of the ion-electron system (eV)
  ---------------------------------------------------
  alpha Z        PSCENC =        31.23719030
  Ewald energy   TEWEN  =     37860.35246047
  -Hartree energ DENC   =    -43872.00082481
  -exchange      EXHF   =         0.00000000
  -V(xc)+E(xc)   XCENC  =      -236.12799965
  PAW double counting   =     34157.93984868   -33509.60208206
  entropy T*S    EENTRO =        -0.16848099
  eigenvalues    EBANDS =     -2186.36081519
  atomic energy  EATOM  =      7073.99518811
  Solvation  Ediel_sol  =         0.00000000
  ---------------------------------------------------
  free energy    TOTEN  =      -680.73551514 eV

  energy without entropy =     -680.56703415  energy(sigma->0) =     -680.65127464


--------------------------------------------------------------------------------------------------------




--------------------------------------- Iteration      1(   5)  ---------------------------------------


    POTLOK:  cpu time      2.1411: real time      2.1617
    SETDIJ:  cpu time      1.7008: real time      1.7029
    EDDIAG:  cpu time     66.3538: real time     66.3976
     EDDAV:  cpu time    329.7380: real time    329.9262
       DOS:  cpu time      0.0040: real time      0.0040
    CHARGE:  cpu time     36.8782: real time     36.9137
    MIXING:  cpu time      0.0418: real time      0.0418
    --------------------------------------------
      LOOP:  cpu time    436.8577: real time    437.1479

 eigenvalue-minimisations  :  3792
 total energy-change (2. order) : 0.3364397E+00  (-0.5375852E-01)
 number of electron     289.9999999 magnetization 
 augmentation part      -14.4103026 magnetization 

 Broyden mixing:
  rms(total) = 0.25550E+00    rms(broyden)= 0.28338E+01
  rms(prec ) = 0.36983E+00
  weight for this iteration     100.00
  WARNING: grid for Broyden might be to small

 eigenvalues of (default mixing * dielectric matrix)
  average eigenvalue GAMMA=   0.7148
  1.4666  0.6348  0.4079  0.3500

 Free energy of the ion-electron system (eV)
  ---------------------------------------------------
  alpha Z        PSCENC =        31.23719030
  Ewald energy   TEWEN  =     37860.35246047
  -Hartree energ DENC   =    -43869.30018793
  -exchange      EXHF   =         0.00000000
  -V(xc)+E(xc)   XCENC  =      -236.35935050
  PAW double counting   =     35502.40577200   -34854.06738149
  entropy T*S    EENTRO =        -0.19857018
  eigenvalues    EBANDS =     -2188.46419621
  atomic energy  EATOM  =      7073.99518811
  Solvation  Ediel_sol  =         0.00000000
  ---------------------------------------------------
  free energy    TOTEN  =      -680.39907543 eV

  energy without entropy =     -680.20050526  energy(sigma->0) =     -680.29979035


--------------------------------------------------------------------------------------------------------




--------------------------------------- Iteration      1(   6)  ---------------------------------------


    POTLOK:  cpu time      2.2166: real time      2.2393
    SETDIJ:  cpu time      1.6658: real time      1.6667
    EDDIAG:  cpu time     66.3065: real time     66.3471
     EDDAV:  cpu time    318.3022: real time    318.4842
       DOS:  cpu time      0.0044: real time      0.0044
    CHARGE:  cpu time     36.9174: real time     36.9514
    MIXING:  cpu time      0.0426: real time      0.0426
    --------------------------------------------
      LOOP:  cpu time    425.4554: real time    425.7356

 eigenvalue-minimisations  :  3576
 total energy-change (2. order) : 0.1212949E+00  (-0.4012829E-01)
 number of electron     289.9999999 magnetization 
 augmentation part      -14.4211662 magnetization 

 Broyden mixing:
  rms(total) = 0.15795E+00    rms(broyden)= 0.10431E+01
  rms(prec ) = 0.18239E+00
  weight for this iteration     100.00
  WARNING: grid for Broyden might be to small

 eigenvalues of (default mixing * dielectric matrix)
  average eigenvalue GAMMA=   0.7453
  1.9357  0.6359  0.4525  0.4525  0.2497

 Free energy of the ion-electron system (eV)
  ---------------------------------------------------
  alpha Z        PSCENC =        31.23719030
  Ewald energy   TEWEN  =     37860.35246047
  -Hartree energ DENC   =    -43870.09377120
  -exchange      EXHF   =         0.00000000
  -V(xc)+E(xc)   XCENC  =      -236.49566587
  PAW double counting   =     35673.78374783   -35025.44003805
  entropy T*S    EENTRO =        -0.20335190
  eigenvalues    EBANDS =     -2187.41354021
  atomic energy  EATOM  =      7073.99518811
  Solvation  Ediel_sol  =         0.00000000
  ---------------------------------------------------
  free energy    TOTEN  =      -680.27778053 eV

  energy without entropy =     -680.07442863  energy(sigma->0) =     -680.17610458


--------------------------------------------------------------------------------------------------------




--------------------------------------- Iteration      1(   7)  ---------------------------------------


    POTLOK:  cpu time      2.1415: real time      2.1583
    SETDIJ:  cpu time      1.6742: real time      1.6756
    EDDIAG:  cpu time     66.3247: real time     66.3667
     EDDAV:  cpu time    298.7474: real time    298.9282
       DOS:  cpu time      0.0053: real time      0.0053
    CHARGE:  cpu time     36.8588: real time     36.8935
    MIXING:  cpu time      0.0430: real time      0.0430
    --------------------------------------------
      LOOP:  cpu time    405.7949: real time    406.0706

 eigenvalue-minimisations  :  3200
 total energy-change (2. order) :-0.2386885E-02  (-0.1768153E-01)
 number of electron     289.9999999 magnetization 
 augmentation part      -14.4276635 magnetization 

 Broyden mixing:
  rms(total) = 0.89777E-01    rms(broyden)= 0.52729E+00
  rms(prec ) = 0.10538E+00
  weight for this iteration     100.00
  WARNING: grid for Broyden might be to small

 eigenvalues of (default mixing * dielectric matrix)
  average eigenvalue GAMMA=   0.7387
  2.2259  0.6367  0.5463  0.5463  0.2598  0.2171

 Free energy of the ion-electron system (eV)
  ---------------------------------------------------
  alpha Z        PSCENC =        31.23719030
  Ewald energy   TEWEN  =     37860.35246047
  -Hartree energ DENC   =    -43869.64274295
  -exchange      EXHF   =         0.00000000
  -V(xc)+E(xc)   XCENC  =      -236.57653397
  PAW double counting   =     35693.79586282   -35045.44835542
  entropy T*S    EENTRO =        -0.21273710
  eigenvalues    EBANDS =     -2187.78049966
  atomic energy  EATOM  =      7073.99518811
  Solvation  Ediel_sol  =         0.00000000
  ---------------------------------------------------
  free energy    TOTEN  =      -680.28016741 eV

  energy without entropy =     -680.06743031  energy(sigma->0) =     -680.17379886


--------------------------------------------------------------------------------------------------------




--------------------------------------- Iteration      1(   8)  ---------------------------------------


    POTLOK:  cpu time      2.1433: real time      2.1648
    SETDIJ:  cpu time      1.6772: real time      1.6785
    EDDIAG:  cpu time     66.4584: real time     66.4981
     EDDAV:  cpu time    305.0948: real time    305.2689
       DOS:  cpu time      0.0048: real time      0.0048
    CHARGE:  cpu time     36.8790: real time     36.9116
    MIXING:  cpu time      0.0435: real time      0.0435
    --------------------------------------------
      LOOP:  cpu time    412.3008: real time    412.5701

 eigenvalue-minimisations  :  3328
 total energy-change (2. order) :-0.5829260E-02  (-0.4315844E-02)
 number of electron     289.9999999 magnetization 
 augmentation part      -14.4263082 magnetization 

 Broyden mixing:
  rms(total) = 0.34873E-01    rms(broyden)= 0.35784E+00
  rms(prec ) = 0.39320E-01
  weight for this iteration     100.00
  WARNING: grid for Broyden might be to small

 eigenvalues of (default mixing * dielectric matrix)
  average eigenvalue GAMMA=   0.7784
  2.4737  0.6814  0.6814  0.6537  0.4752  0.2940  0.1897

 Free energy of the ion-electron system (eV)
  ---------------------------------------------------
  alpha Z        PSCENC =        31.23719030
  Ewald energy   TEWEN  =     37860.35246047
  -Hartree energ DENC   =    -43869.31973189
  -exchange      EXHF   =         0.00000000
  -V(xc)+E(xc)   XCENC  =      -236.60661888
  PAW double counting   =     35672.01055230   -35023.66161818
  entropy T*S    EENTRO =        -0.21461259
  eigenvalues    EBANDS =     -2188.07880631
  atomic energy  EATOM  =      7073.99518811
  Solvation  Ediel_sol  =         0.00000000
  ---------------------------------------------------
  free energy    TOTEN  =      -680.28599667 eV

  energy without entropy =     -680.07138408  energy(sigma->0) =     -680.17869038


--------------------------------------------------------------------------------------------------------




--------------------------------------- Iteration      1(   9)  ---------------------------------------


    POTLOK:  cpu time      2.1441: real time      2.1648
    SETDIJ:  cpu time      1.6797: real time      1.6806
    EDDIAG:  cpu time     66.3856: real time     66.4288
     EDDAV:  cpu time    316.4668: real time    316.6456
       DOS:  cpu time      0.0042: real time      0.0042
    CHARGE:  cpu time     36.9165: real time     36.9501
    MIXING:  cpu time      0.0442: real time      0.0443
    --------------------------------------------
      LOOP:  cpu time    423.6413: real time    423.9185

 eigenvalue-minimisations  :  3544
 total energy-change (2. order) : 0.6765835E-02  (-0.8775546E-03)
 number of electron     289.9999999 magnetization 
 augmentation part      -14.4273350 magnetization 

 Broyden mixing:
  rms(total) = 0.34483E-01    rms(broyden)= 0.31649E+00
  rms(prec ) = 0.38269E-01
  weight for this iteration     100.00
  WARNING: grid for Broyden might be to small

 eigenvalues of (default mixing * dielectric matrix)
  average eigenvalue GAMMA=   0.8037
  2.5663  0.8755  0.8755  0.6263  0.4958  0.4958  0.3030  0.1917

 Free energy of the ion-electron system (eV)
  ---------------------------------------------------
  alpha Z        PSCENC =        31.23719030
  Ewald energy   TEWEN  =     37860.35246047
  -Hartree energ DENC   =    -43869.09589004
  -exchange      EXHF   =         0.00000000
  -V(xc)+E(xc)   XCENC  =      -236.60959519
  PAW double counting   =     35656.45548622   -35008.10450377
  entropy T*S    EENTRO =        -0.21568227
  eigenvalues    EBANDS =     -2188.29388467
  atomic energy  EATOM  =      7073.99518811
  Solvation  Ediel_sol  =         0.00000000
  ---------------------------------------------------
  free energy    TOTEN  =      -680.27923084 eV

  energy without entropy =     -680.06354857  energy(sigma->0) =     -680.17138970


--------------------------------------------------------------------------------------------------------




--------------------------------------- Iteration      1(  10)  ---------------------------------------


    POTLOK:  cpu time      2.1361: real time      2.1586
    SETDIJ:  cpu time      1.6794: real time      1.6800
    EDDIAG:  cpu time     66.3964: real time     66.4378
     EDDAV:  cpu time    311.5554: real time    311.7412
       DOS:  cpu time      0.0138: real time      0.0140
    CHARGE:  cpu time     36.8999: real time     36.9341
    MIXING:  cpu time      0.0599: real time      0.0604
    --------------------------------------------
      LOOP:  cpu time    418.7407: real time    419.0259

 eigenvalue-minimisations  :  3448
 total energy-change (2. order) :-0.6281083E-03  (-0.4879427E-03)
 number of electron     289.9999999 magnetization 
 augmentation part      -14.4214164 magnetization 

 Broyden mixing:
  rms(total) = 0.19777E-01    rms(broyden)= 0.35231E+00
  rms(prec ) = 0.24446E-01
  weight for this iteration     100.00
  WARNING: grid for Broyden might be to small

 eigenvalues of (default mixing * dielectric matrix)
  average eigenvalue GAMMA=   0.7802
  2.5854  0.9264  0.7487  0.7487  0.6213  0.4458  0.4458  0.3076  0.1920

 Free energy of the ion-electron system (eV)
  ---------------------------------------------------
  alpha Z        PSCENC =        31.23719030
  Ewald energy   TEWEN  =     37860.35246047
  -Hartree energ DENC   =    -43868.68722278
  -exchange      EXHF   =         0.00000000
  -V(xc)+E(xc)   XCENC  =      -236.54070985
  PAW double counting   =     35660.22516933   -35011.87255289
  entropy T*S    EENTRO =        -0.21190305
  eigenvalues    EBANDS =     -2188.77747859
  atomic energy  EATOM  =      7073.99518811
  Solvation  Ediel_sol  =         0.00000000
  ---------------------------------------------------
  free energy    TOTEN  =      -680.27985895 eV

  energy without entropy =     -680.06795590  energy(sigma->0) =     -680.17390742


--------------------------------------------------------------------------------------------------------




--------------------------------------- Iteration      1(  11)  ---------------------------------------


    POTLOK:  cpu time      2.1401: real time      2.1595
    SETDIJ:  cpu time      1.6861: real time      1.6879
    EDDIAG:  cpu time     66.2979: real time     66.3366
     EDDAV:  cpu time    302.4561: real time    302.6321
       DOS:  cpu time      0.0030: real time      0.0030
    CHARGE:  cpu time     36.9178: real time     36.9514
    MIXING:  cpu time      0.0459: real time      0.0459
    --------------------------------------------
      LOOP:  cpu time    409.5470: real time    409.8164

 eigenvalue-minimisations  :  3280
 total energy-change (2. order) : 0.1062366E-02  (-0.5415957E-03)
 number of electron     289.9999999 magnetization 
 augmentation part      -14.4247650 magnetization 

 Broyden mixing:
  rms(total) = 0.19981E-01    rms(broyden)= 0.93629E-01
  rms(prec ) = 0.22247E-01
  weight for this iteration     100.00
  WARNING: grid for Broyden might be to small

 eigenvalues of (default mixing * dielectric matrix)
  average eigenvalue GAMMA=   0.7874
  2.5753  1.0257  1.0257  0.6362  0.6362  0.6318  0.4203  0.4203  0.3105  0.1918

 Free energy of the ion-electron system (eV)
  ---------------------------------------------------
  alpha Z        PSCENC =        31.23719030
  Ewald energy   TEWEN  =     37860.35246047
  -Hartree energ DENC   =    -43867.83395866
  -exchange      EXHF   =         0.00000000
  -V(xc)+E(xc)   XCENC  =      -236.46508375
  PAW double counting   =     35628.06595946   -34979.70639230
  entropy T*S    EENTRO =        -0.21521672
  eigenvalues    EBANDS =     -2189.70894349
  atomic energy  EATOM  =      7073.99518811
  Solvation  Ediel_sol  =         0.00000000
  ---------------------------------------------------
  free energy    TOTEN  =      -680.27879658 eV

  energy without entropy =     -680.06357986  energy(sigma->0) =     -680.17118822


--------------------------------------------------------------------------------------------------------




--------------------------------------- Iteration      1(  12)  ---------------------------------------


    POTLOK:  cpu time      2.1366: real time      2.1527
    SETDIJ:  cpu time      1.6896: real time      1.6905
    EDDIAG:  cpu time     66.3039: real time     66.3487
     EDDAV:  cpu time    303.9305: real time    304.1049
       DOS:  cpu time      0.0032: real time      0.0032
    CHARGE:  cpu time     36.9264: real time     36.9623
    MIXING:  cpu time      0.0469: real time      0.0469
    --------------------------------------------
      LOOP:  cpu time    411.0371: real time    411.3093

 eigenvalue-minimisations  :  3296
 total energy-change (2. order) :-0.1624688E-02  (-0.3971823E-03)
 number of electron     289.9999999 magnetization 
 augmentation part      -14.4191078 magnetization 

 Broyden mixing:
  rms(total) = 0.27651E-01    rms(broyden)= 0.10738E+00
  rms(prec ) = 0.32694E-01
  weight for this iteration     100.00
  WARNING: grid for Broyden might be to small

 eigenvalues of (default mixing * dielectric matrix)
  average eigenvalue GAMMA=   0.8260
  2.5824  1.2451  1.2451  0.8534  0.6120  0.6120  0.6256  0.4040  0.4040  0.3110
  0.1918

 Free energy of the ion-electron system (eV)
  ---------------------------------------------------
  alpha Z        PSCENC =        31.23719030
  Ewald energy   TEWEN  =     37860.35246047
  -Hartree energ DENC   =    -43867.46534365
  -exchange      EXHF   =         0.00000000
  -V(xc)+E(xc)   XCENC  =      -236.42936220
  PAW double counting   =     35641.80817597   -34993.44681957
  entropy T*S    EENTRO =        -0.20999754
  eigenvalues    EBANDS =     -2190.12191316
  atomic energy  EATOM  =      7073.99518811
  Solvation  Ediel_sol  =         0.00000000
  ---------------------------------------------------
  free energy    TOTEN  =      -680.28042127 eV

  energy without entropy =     -680.07042373  energy(sigma->0) =     -680.17542250


--------------------------------------------------------------------------------------------------------




--------------------------------------- Iteration      1(  13)  ---------------------------------------


    POTLOK:  cpu time      2.1354: real time      2.1582
    SETDIJ:  cpu time      1.6785: real time      1.6794
    EDDIAG:  cpu time     66.2731: real time     66.3172
     EDDAV:  cpu time    304.5929: real time    304.7659
       DOS:  cpu time      0.0040: real time      0.0040
    CHARGE:  cpu time     36.9675: real time     37.0019
    MIXING:  cpu time      0.0486: real time      0.0486
    --------------------------------------------
      LOOP:  cpu time    411.6999: real time    411.9752

 eigenvalue-minimisations  :  3312
 total energy-change (2. order) : 0.8455749E-03  (-0.3427154E-03)
 number of electron     289.9999999 magnetization 
 augmentation part      -14.4231156 magnetization 

 Broyden mixing:
  rms(total) = 0.75998E-02    rms(broyden)= 0.37399E-01
  rms(prec ) = 0.88465E-02
  weight for this iteration     100.00
  WARNING: grid for Broyden might be to small

 eigenvalues of (default mixing * dielectric matrix)
  average eigenvalue GAMMA=   0.8506
  2.5407  1.8654  0.8352  0.8352  0.8719  0.6660  0.6660  0.6262  0.1918  0.3111
  0.3989  0.3989

 Free energy of the ion-electron system (eV)
  ---------------------------------------------------
  alpha Z        PSCENC =        31.23719030
  Ewald energy   TEWEN  =     37860.35246047
  -Hartree energ DENC   =    -43867.26285162
  -exchange      EXHF   =         0.00000000
  -V(xc)+E(xc)   XCENC  =      -236.45818872
  PAW double counting   =     35629.10668755   -34980.74370170
  entropy T*S    EENTRO =        -0.21298033
  eigenvalues    EBANDS =     -2190.29337976
  atomic energy  EATOM  =      7073.99518811
  Solvation  Ediel_sol  =         0.00000000
  ---------------------------------------------------
  free energy    TOTEN  =      -680.27957569 eV

  energy without entropy =     -680.06659536  energy(sigma->0) =     -680.17308553


--------------------------------------------------------------------------------------------------------




--------------------------------------- Iteration      1(  14)  ---------------------------------------


    POTLOK:  cpu time      2.1542: real time      2.1558
    SETDIJ:  cpu time      1.6825: real time      1.6835
    EDDIAG:  cpu time     66.3293: real time     66.3697
     EDDAV:  cpu time    303.4124: real time    303.5848
       DOS:  cpu time      0.0040: real time      0.0040
    CHARGE:  cpu time     36.9294: real time     36.9639
    MIXING:  cpu time      0.0480: real time      0.0480
    --------------------------------------------
      LOOP:  cpu time    410.5599: real time    410.8096

 eigenvalue-minimisations  :  3296
 total energy-change (2. order) : 0.7655633E-03  (-0.1486072E-03)
 number of electron     289.9999999 magnetization 
 augmentation part      -14.4243485 magnetization 

 Broyden mixing:
  rms(total) = 0.83010E-02    rms(broyden)= 0.26579E-01
  rms(prec ) = 0.94612E-02
  weight for this iteration     100.00
  WARNING: grid for Broyden might be to small

 eigenvalues of (default mixing * dielectric matrix)
  average eigenvalue GAMMA=   0.8699
  2.4052  2.4052  1.0282  0.8258  0.8258  0.6260  0.6260  0.6344  0.6344  0.1918
  0.3108  0.3978  0.3978

 Free energy of the ion-electron system (eV)
  ---------------------------------------------------
  alpha Z        PSCENC =        31.23719030
  Ewald energy   TEWEN  =     37860.35246047
  -Hartree energ DENC   =    -43866.99258883
  -exchange      EXHF   =         0.00000000
  -V(xc)+E(xc)   XCENC  =      -236.45684167
  PAW double counting   =     35626.73966113   -34978.37631992
  entropy T*S    EENTRO =        -0.21446876
  eigenvalues    EBANDS =     -2190.56309097
  atomic energy  EATOM  =      7073.99518811
  Solvation  Ediel_sol  =         0.00000000
  ---------------------------------------------------
  free energy    TOTEN  =      -680.27881013 eV

  energy without entropy =     -680.06434137  energy(sigma->0) =     -680.17157575


--------------------------------------------------------------------------------------------------------




--------------------------------------- Iteration      1(  15)  ---------------------------------------


    POTLOK:  cpu time      2.1399: real time      2.1604
    SETDIJ:  cpu time      1.6802: real time      1.6809
    EDDIAG:  cpu time     66.3135: real time     66.3534
     EDDAV:  cpu time    304.1059: real time    304.2809
       DOS:  cpu time      0.0031: real time      0.0031
    CHARGE:  cpu time     36.8885: real time     36.9233
    MIXING:  cpu time      0.0504: real time      0.0504
    --------------------------------------------
      LOOP:  cpu time    411.1815: real time    411.4524

 eigenvalue-minimisations  :  3312
 total energy-change (2. order) :-0.3276410E-03  (-0.8034571E-04)
 number of electron     289.9999999 magnetization 
 augmentation part      -14.4231759 magnetization 

 Broyden mixing:
  rms(total) = 0.40818E-02    rms(broyden)= 0.12633E-01
  rms(prec ) = 0.48679E-02
  weight for this iteration     100.00
  WARNING: grid for Broyden might be to small

 eigenvalues of (default mixing * dielectric matrix)
  average eigenvalue GAMMA=   0.9032
  2.5052  2.5052  1.2871  0.8263  0.8263  0.8172  0.6377  0.6377  0.6624  0.6415
  0.1918  0.3108  0.3976  0.3976

 Free energy of the ion-electron system (eV)
  ---------------------------------------------------
  alpha Z        PSCENC =        31.23719030
  Ewald energy   TEWEN  =     37860.35246047
  -Hartree energ DENC   =    -43866.72852252
  -exchange      EXHF   =         0.00000000
  -V(xc)+E(xc)   XCENC  =      -236.46354078
  PAW double counting   =     35626.48430015   -34978.12081833
  entropy T*S    EENTRO =        -0.21336428
  eigenvalues    EBANDS =     -2190.82203089
[...]
   0.167E+02 -.137E+02 -.125E+03   -.192E+02 0.124E+02 0.126E+03   0.394E+01 0.129E+01 -.786E+00   0.136E-04 0.935E-05 0.245E-04
   -.115E-01 0.239E+02 0.199E+03   -.551E+00 -.236E+02 -.197E+03   0.789E+00 -.130E-01 -.234E+01   0.489E-04 -.849E-04 -.861E-05
   -.143E+02 -.216E+02 0.281E+03   0.144E+02 0.229E+02 -.283E+03   -.282E+00 -.111E+01 0.168E+01   -.143E-04 -.120E-03 -.162E-04
   -.338E+02 -.317E+02 -.101E+03   0.357E+02 0.333E+02 0.101E+03   -.301E+01 -.132E+01 0.419E+00   -.574E-04 -.386E-04 0.632E-04
   -.147E+02 0.113E+02 0.102E+03   0.125E+02 -.108E+02 -.102E+03   0.241E+01 -.775E+00 0.452E+00   0.378E-04 0.541E-04 -.346E-07
   0.417E+02 0.109E+02 -.123E+03   -.421E+02 -.116E+02 0.121E+03   -.278E+00 -.333E+00 0.209E+01   0.147E-04 -.706E-04 0.429E-04
   0.364E+02 -.795E+01 0.296E+03   -.379E+02 0.795E+01 -.300E+03   0.166E+01 0.279E+00 0.356E+01   0.876E-04 -.766E-05 -.612E-04
   -.336E+02 -.175E+02 0.268E+03   0.345E+02 0.182E+02 -.266E+03   -.139E+01 -.332E+00 -.366E+01   -.136E-03 0.514E-04 -.188E-05
   0.211E+02 -.200E+01 0.115E+03   -.203E+02 0.159E+01 -.114E+03   -.156E+01 0.773E+00 -.161E+01   -.166E-04 0.435E-04 -.118E-04
   0.109E+02 0.304E+02 0.249E+03   -.107E+02 -.287E+02 -.249E+03   0.419E-01 -.212E+01 0.984E+00   -.301E-04 -.161E-04 -.559E-05
   -.323E+02 0.119E+02 -.926E+02   0.351E+02 -.117E+02 0.959E+02   -.244E+01 -.718E+00 -.381E+01   -.340E-04 -.747E-04 0.108E-04
   0.177E+02 -.559E+02 0.258E+03   -.141E+02 0.537E+02 -.256E+03   -.414E+01 0.143E+01 -.123E+01   -.546E-04 0.406E-04 -.223E-04
   0.424E+02 -.444E+01 -.270E+03   -.454E+02 0.569E+01 0.272E+03   0.250E+01 -.159E+01 -.744E+00   0.466E-04 0.210E-03 0.908E-04
   0.266E+02 0.908E+01 -.306E+03   -.254E+02 -.893E+01 0.307E+03   -.187E+01 0.264E+00 -.631E+00   0.177E-03 0.878E-04 0.119E-03
   -.907E+01 0.121E+02 0.124E+03   0.111E+02 -.102E+02 -.123E+03   -.305E+01 -.215E+01 -.184E+01   -.346E-04 -.137E-03 -.184E-04
   0.147E+02 0.426E+00 0.148E+02   -.146E+02 0.148E+00 -.150E+02   0.124E+00 -.690E-01 -.497E+00   0.455E-04 -.123E-03 0.104E-04
   -.909E+01 0.137E+02 0.244E+03   0.917E+01 -.124E+02 -.241E+03   -.556E+00 -.266E+00 -.287E+01   0.303E-04 0.151E-04 -.134E-04
   -.175E+02 0.135E+02 0.260E+03   0.179E+02 -.141E+02 -.260E+03   -.477E+00 -.686E-01 0.971E-01   0.122E-04 -.410E-04 -.170E-04
   -.133E+02 0.158E+02 -.458E+02   0.110E+02 -.173E+02 0.464E+02   0.350E+01 0.140E+01 -.533E+00   0.382E-05 -.429E-04 -.141E-04
   -.282E+02 0.443E+01 0.196E+03   0.266E+02 -.424E+01 -.196E+03   0.240E+01 0.133E+00 -.671E+00   -.181E-05 -.845E-04 -.145E-05
   -.270E+02 -.163E+01 -.283E+03   0.286E+02 0.329E+01 0.288E+03   -.175E+01 -.133E+01 -.463E+01   -.164E-04 0.364E-04 0.250E-04
   -.153E+02 -.639E+01 -.200E+03   0.170E+02 0.670E+01 0.200E+03   -.175E+01 -.672E+00 0.657E+00   -.230E-04 -.848E-04 0.200E-05
   -.422E+01 -.357E+02 0.108E+03   0.295E+01 0.352E+02 -.105E+03   0.897E+00 -.110E+00 -.384E+01   0.244E-04 0.345E-04 0.240E-04
   0.112E+01 -.126E+02 -.674E+02   -.251E+00 0.153E+02 0.689E+02   -.108E+01 -.238E+01 -.218E+01   -.463E-06 -.563E-04 0.340E-04
   0.110E+02 0.689E+01 0.328E+02   -.112E+02 -.899E+01 -.339E+02   0.122E+01 0.230E+01 0.733E+00   0.488E-04 0.103E-03 0.186E-04
   0.170E+02 0.210E+02 -.211E+02   -.191E+02 -.223E+02 0.207E+02   0.105E+01 0.101E+01 0.579E+00   0.763E-05 0.136E-03 0.562E-04
   -.174E+02 -.234E+02 0.113E+03   0.158E+02 0.233E+02 -.115E+03   0.187E+01 0.327E-01 0.953E+00   -.360E-06 -.228E-03 -.310E-04
   0.435E+02 0.141E+02 0.289E+03   -.459E+02 -.131E+02 -.289E+03   0.207E+01 -.179E+00 -.112E+01   0.551E-05 0.197E-03 -.565E-04
   0.208E+02 -.535E+01 -.181E+03   -.224E+02 0.569E+01 0.183E+03   0.242E+01 -.385E+00 -.227E+01   0.126E-03 0.261E-04 0.112E-03
   -.423E+01 0.357E+02 0.208E+03   0.419E+01 -.335E+02 -.205E+03   0.202E+00 -.298E+01 -.275E+01   0.956E-04 0.130E-03 -.375E-04
   0.458E+01 -.435E+01 -.310E+03   -.417E+01 0.607E+01 0.312E+03   -.425E+00 -.171E+01 -.209E+01   -.147E-04 -.461E-04 0.281E-04
   -.416E+02 0.802E+01 -.309E+03   0.422E+02 -.812E+01 0.312E+03   -.405E+00 -.342E+00 -.242E+01   -.308E-04 -.415E-04 0.145E-04
   0.193E+02 0.147E+02 -.101E+03   -.198E+02 -.159E+02 0.104E+03   0.463E+00 0.180E+01 -.287E+01   0.256E-04 0.128E-03 0.897E-04
   -.273E+02 -.351E+02 -.104E+03   0.253E+02 0.338E+02 0.105E+03   0.259E+01 0.125E+01 -.106E+01   -.192E-04 -.598E-06 0.398E-04
   0.680E+01 0.144E+01 0.315E+03   -.719E+01 -.142E+01 -.317E+03   0.966E-01 0.344E-01 0.153E+01   -.107E-04 -.339E-04 -.342E-05
   0.429E+02 -.939E+01 -.556E+02   -.431E+02 0.915E+01 0.557E+02   -.569E-01 0.655E-01 -.695E+00   0.242E-03 -.798E-04 0.567E-04
   -.175E+02 0.403E+02 0.138E+03   0.178E+02 -.386E+02 -.136E+03   -.113E+00 -.112E+01 -.234E+01   -.507E-04 -.328E-04 -.406E-04
   -.270E+02 0.144E+02 -.132E+03   0.262E+02 -.151E+02 0.134E+03   0.199E+01 0.877E-01 0.825E-01   -.153E-04 0.671E-04 0.955E-05
   -.299E+02 0.288E+02 0.621E+02   0.307E+02 -.284E+02 -.611E+02   -.154E+01 0.119E+00 -.208E+01   0.276E-05 0.636E-04 -.264E-04
   -.341E+01 -.436E+02 0.220E+03   0.532E+01 0.390E+02 -.216E+03   -.175E+01 0.549E+01 -.330E+01   -.120E-03 0.175E-03 -.737E-05
 -----------------------------------------------------------------------------------------------
   -.565E+01 0.107E+02 0.467E+02   0.835E-13 -.156E-12 -.171E-12   0.565E+01 -.107E+02 -.467E+02   0.123E-03 -.491E-04 0.124E-02


 POSITION                                       TOTAL-FORCE (eV/Angst)
 -----------------------------------------------------------------------------------
      0.06964      1.22808     12.36257        -0.430308     -0.386207      0.524629
      2.93412      1.04327     12.15760        -0.017174      0.533623     -0.671817
      0.95761     10.81590     16.11973         0.293845      0.122337      0.795151
      0.85119     14.03110     16.26430         0.208544      0.313549      0.185263
     14.47275      2.97762     13.32431         0.888167      0.726513     -0.190884
      0.70837     10.67500     15.45154        -0.217055     -0.210840     -0.578914
      9.45642      1.02004     13.90162         0.328966      0.108540     -0.163594
     11.24550     12.80650     15.60831         0.128470      0.148282      0.118676
     13.58920     12.18960     16.25331         0.366778      0.244196      0.799349
     14.34560      1.47722     15.18133        -0.969639      0.190890     -0.372472
     10.09590      1.18389     13.53647        -0.129287     -0.052283     -0.111584
     12.76320     11.58320     14.02387         0.262288      0.132186      0.217347
     12.73340     14.31730     16.87499         0.480466      0.063968     -0.181368
     12.20810      0.38336     14.37126         0.365065      0.607878     -0.006978
      0.80211     11.88010     11.72369         0.271123     -0.692693      0.512947
      0.41945     12.66410     14.51872         0.999457      0.760073     -0.644535
     12.64550      2.72166     13.83859        -0.016817      0.249573      0.069869
     10.02450      0.70441     15.97647        -0.164155      0.151315     -0.081587
     14.37910      0.87102     12.99099         0.161797      0.480151     -0.542661
      1.43282      0.44095     14.46061        -0.201683     -0.438935     -0.195291
     13.02410      2.01017     11.07664        -0.273877      0.457058     -0.030813
     10.97160      4.17033     15.02506         0.000174      0.709864     -0.149524
      0.61198      2.85335     11.42867         0.108688     -0.588262      1.352245
     11.27240      2.35404     12.69059        -0.114302      0.195338     -0.143980
     13.20400     12.05140     15.65746        -0.310366     -0.201481     -0.341180
     10.99890      3.46426     15.21221         0.021555     -0.868864      0.345589
      0.02236     14.16640     11.02325         0.231864     -0.022571      0.005446
      1.22012     13.91050     12.44676        -0.377772     -0.282448     -1.118089
     12.84790     13.18240     12.62264         1.271674      0.320434      0.109664
     12.26380      1.94705     16.14382        -0.526588      0.366611      0.427299
      5.24545     13.34510     12.38086         0.910814     -0.793529     -0.522856
      1.47323     13.61780     13.85632        -0.350213      0.689049      1.605273
      3.80699     11.06800     14.94985         0.266382     -0.565754      0.055891
      5.80144      8.05868     10.95578         0.066526     -0.883851      0.608616
      9.36984      4.73518     10.98501         0.504638     -0.648994      0.410035
      2.23901      7.39754     14.04163         1.147151     -0.383891     -0.088967
      0.49182      7.22037     15.38130        -2.568627     -0.286483      0.408350
      6.37723      1.62958     14.24521        -1.151625     -0.370294     -0.438110
      9.58475      5.97988     14.65730         0.351887      1.035666      0.047639
     11.46970     13.01160     12.29398        -0.234228     -0.613126      0.088574
      4.34800      9.75791     11.49521         0.279391      0.072991      0.065188
      2.95100      5.64723     10.88679         0.751775      0.003017      0.090970
      3.46593      5.88756     15.46784        -1.382633     -0.043559     -0.170202
      6.57699      8.00523     15.41103        -0.305842      0.419915      0.151097
      6.15356     11.04910     12.29840        -1.299354      0.945331      0.041434
     13.77560      5.18107     15.19201         1.190238      0.800874      0.068642
     12.85590      1.68058     14.83624         1.189687     -1.719374      0.810713
     11.93250      6.54654     14.53930         0.337553      0.226515     -0.509610
      2.92432      3.60965     10.00000        -0.803704     -0.546656     -0.315288
     13.42500     10.32940     13.59298         0.168599     -0.269465      0.483528
      3.67665     10.40680     17.10547         0.334768     -0.141989     -0.016113
     11.45290     11.26030     10.78355        -0.572947     -1.068903     -0.082264
      6.73917      4.31277     16.37663         0.337357      1.017425     -0.288304
      7.06884     13.68690     16.38406        -0.057946     -0.095653      0.128629
      8.52066      5.98776     16.71161        -1.189334      0.083776      0.071332
      5.59205      5.83202     14.86617         1.658398      0.155619      0.184986
      7.99094      8.27165     11.75374         0.307398      0.254323     -0.540523
      0.24604      9.12002     10.54683        -0.244375      0.094990      0.081124
     10.57550     12.50360     14.32104        -1.234232      0.211895      0.772483
      6.39025      4.80438     12.75811         0.210953     -0.333267      1.025658
      5.99053     10.21940     14.64280        -0.584305     -1.078856      0.545195
      4.67925     13.49930     10.12754         0.354766      0.273926      0.407087
     10.90680     14.53220     10.77646        -0.727767      0.439810     -1.180319
      1.19520      6.08617     12.38865        -0.749693      0.396932     -0.818177
     13.95100      7.01195     10.93161         0.353247     -0.366607      1.166766
     10.15540     10.04880     14.40871         0.112790     -0.516804     -0.726275
      8.65654     14.48630     10.79469        -0.772307     -0.987471      0.796715
      2.38052      2.60024     16.55236        -0.127053     -0.503030      0.498885
      3.74290      0.75315     17.14078        -0.790239      0.517111      0.302265
     11.61450      9.57787     12.52473        -1.090461     -0.396829     -1.066796
      2.80204      9.55726     13.36933         0.158439      0.504697     -0.699880
      5.28430      5.82033     11.09040        -0.559349      1.134948     -0.302045
      9.89304      7.04195     11.05796        -0.186980     -0.804174      0.165017
      8.37236      7.94913     14.04017         1.361287     -0.044641      0.009519
      8.36097     10.61150     11.80268         0.729098      0.337978     -0.148123
      9.61860      2.03967     16.58264        -0.330800      0.075429      0.101246
     13.11210      8.61374     15.14307        -0.123984     -0.515370      0.761064
      7.24584      0.07384     12.77970        -0.350938     -0.625500     -1.017498
      8.12216     11.22570     14.19423        -0.306331      0.137646     -0.763364
      4.78128      3.04104     13.28787         1.103009      0.323298     -0.380730
      0.81239      4.14277     13.70166        -0.965214     -0.269537      0.185995
      0.81284     10.49670     12.41315         0.310938      0.000683     -0.860703
      0.59144      3.26933     10.06351        -0.046989      0.734013     -1.693733
      5.05005      0.05208     15.44177         1.025987     -0.073626      0.504854
      3.80346      2.10699     11.45914         0.067921     -0.996388      0.239044
      7.87688     10.31890     16.38292        -0.029060     -0.087175      0.050982
     10.41430      9.51485     16.61218         0.109462     -0.386389      0.227615
      2.93873      3.64264     14.59197         0.034327      0.768074      0.357850
      8.33631     13.46090     14.47394         0.635882     -0.145760     -0.100786
      8.14239     12.28920     10.13609        -0.208615      0.123906      0.316464
      3.74702     13.21870     14.18999        -0.153351     -0.204043     -0.619406
     11.94810      7.20593     12.26484         0.064815      0.630220     -0.714090
      7.99556      2.97916     14.95212         1.179119     -0.583839      1.530502
      8.81940      4.30295     13.26206        -0.912788      0.656626     -1.236718
     11.53080      2.04984     11.26075         0.156785      1.146346     -0.004553
 -----------------------------------------------------------------------------------
    total drift:                               -0.001851     -0.012545      0.000380


--------------------------------------------------------------------------------------------------------



  FREE ENERGIE OF THE ION-ELECTRON SYSTEM (eV)
  ---------------------------------------------------
  free  energy   TOTEN  =      -680.27955286 eV

  energy  without entropy=     -680.06595420  energy(sigma->0) =     -680.17275353



--------------------------------------------------------------------------------------------------------


    POTLOK:  cpu time      3.8045: real time      3.8073


--------------------------------------------------------------------------------------------------------


     LOOP+:  cpu time  11375.2911: real time  11382.9279
    4ORBIT:  cpu time      0.0000: real time      0.0000



 total charge

# of ion       s       p       d       tot
------------------------------------------
    1        0.590   0.032   0.000   0.623
    2        0.538   0.014   0.000   0.552
    3        0.624   0.035   0.000   0.659
    4        0.369   0.001   0.000   0.371
    5        0.549   0.018   0.000   0.566
    6        0.625   0.036   0.000   0.661
    7        0.612   0.034   0.000   0.646
    8        0.556   0.017   0.000   0.573
    9        0.627   0.037   0.000   0.665
   10        0.550   0.014   0.000   0.563
   11        0.604   0.034   0.000   0.638
   12        0.576   0.019   0.000   0.595
   13        0.382   0.000   0.000   0.383
   14        0.564   0.014   0.000   0.578
   15        0.530   0.015   0.000   0.545
   16        0.525   0.014   0.000   0.539
   17        0.593   0.019   0.000   0.612
   18        0.564   0.015   0.000   0.580
   19        0.608   0.030   0.000   0.639
   20        0.557   0.016   0.000   0.572
   21        0.559   0.016   0.000   0.575
   22        0.621   0.038   0.000   0.660
   23        0.605   0.021   0.000   0.626
   24        0.575   0.018   0.000   0.593
   25        0.637   0.038   0.000   0.675
   26        0.625   0.037   0.000   0.661
   27        0.393   0.001   0.000   0.394
   28        0.567   0.020   0.000   0.587
   29        0.591   0.019   0.000   0.610
   30        0.585   0.017   0.000   0.602
   31        0.761   0.919   0.000   1.680
   32        0.741   0.988   0.000   1.729
   33        0.764   0.966   0.000   1.730
   34        0.781   0.878   0.000   1.659
   35        0.846   0.724   0.000   1.570
   36        0.758   0.957   0.000   1.716
   37        0.802   0.855   0.000   1.657
   38        0.764   0.959   0.000   1.723
   39        0.765   0.929   0.000   1.694
   40        0.761   1.022   0.000   1.782
   41        0.796   0.842   0.000   1.637
   42        0.796   0.871   0.000   1.667
   43        0.815   0.844   0.000   1.658
   44        0.782   0.851   0.000   1.633
   45        0.788   0.858   0.000   1.647
   46        0.804   0.816   0.000   1.620
   47        0.740   1.015   0.000   1.755
   48        0.758   0.871   0.000   1.630
   49        0.784   0.921   0.000   1.705
   50        0.756   1.005   0.000   1.761
   51        0.924   0.626   0.000   1.550
   52        0.869   0.717   0.000   1.587
   53        0.823   0.810   0.000   1.633
   54        0.863   0.724   0.000   1.586
   55        0.861   0.718   0.000   1.580
   56        0.789   0.859   0.000   1.648
   57        0.760   0.915   0.000   1.675
   58        0.854   0.740   0.000   1.594
   59        0.764   0.932   0.000   1.696
   60        0.778   0.863   0.000   1.641
   61        0.781   0.865   0.000   1.646
   62        0.921   0.604   0.000   1.525
   63        0.788   0.946   0.000   1.734
   64        0.777   0.858   0.000   1.635
   65        0.797   0.826   0.000   1.623
   66        0.764   0.895   0.000   1.659
   67        0.786   0.859   0.000   1.645
   68        0.868   0.736   0.000   1.603
   69        0.855   0.758   0.000   1.613
   70        0.775   0.912   0.000   1.688
   71        0.761   0.888   0.000   1.649
   72        0.785   0.889   0.000   1.674
   73        0.802   0.832   0.000   1.634
   74        0.793   0.856   0.000   1.649
   75        0.790   0.866   0.000   1.656
   76        0.883   0.704   0.000   1.587
   77        0.793   0.820   0.000   1.612
   78        0.775   0.884   0.000   1.659
   79        0.777   0.918   0.000   1.695
   80        0.760   0.939   0.000   1.699
   81        0.754   0.911   0.000   1.665
   82        0.749   0.941   0.000   1.691
   83        0.876   0.760   0.000   1.636
   84        0.764   0.942   0.000   1.707
   85        0.771   0.889   0.000   1.660
   86        0.868   0.692   0.000   1.560
   87        0.906   0.650   0.000   1.556
   88        0.765   0.920   0.000   1.685
   89        0.770   0.950   0.000   1.719
   90        0.853   0.730   0.000   1.583
   91        0.753   0.973   0.000   1.726
   92        0.764   0.874   0.000   1.637
   93        0.767   0.960   0.000   1.727
   94        0.780   0.883   0.000   1.663
   95        0.773   0.925   0.000   1.698
--------------------------------------------------
tot         68.694  56.489   0.000 125.182


 total amount of memory used by VASP MPI-rank0   418249. kBytes
=======================================================================

   base                                    :      30000. kBytes
   nonl-proj                               :      86475. kBytes
   fftplans                                :     108837. kBytes
   grid                                    :      83991. kBytes
   one-center                              :         18. kBytes
   wavefun                                 :     108928. kBytes

  
  
 General timing and accounting informations for this job:
 ========================================================
  
                  Total CPU time used (sec):    11541.271
                            User time (sec):    10201.709
                          System time (sec):     1339.561
                         Elapsed time (sec):    11548.980
  
                   Maximum memory used (kb):      691756.
                   Average memory used (kb):          N/A
  
                          Minor page faults:     16588127
                          Major page faults:         1210
                 Voluntary context switches:         3742
