LAMMPS data file via write_data, version 2 Apr 2025, timestep = 6560000, units = metal

1000 atoms
2 atom types

-1.1057824574786856 25.09852593299121 xlo xhi
-1.1057824574786856 25.09852593299121 ylo yhi
-1.1057824574786856 25.09852593299121 zlo zhi

Atom Type Labels

1 H
2 Si

Masses

1 1.00784
2 28.0855

Atoms # atomic

299 1 1.425997234422725 1.4424883458756592 -0.02728794066753637 2 -2 1
976 2 1.4408728504004853 2.615436448050804 -0.9926431423107288 0 0 0
218 1 0.2478128242756743 1.242913051632517 4.056382787330157 -3 2 1
233 1 2.936745115897418 0.4052374729866641 0.4291596944262315 -1 1 0
202 1 2.225978974356853 1.8939807681244702 4.335209365227399 0 0 1
214 1 2.923084677323015 -0.10950668043234779 -0.09887453916412858 -1 -1 1
286 1 0.2819139756239115 0.6129908377802278 3.745946460057186 1 0 0
346 2 9.975745538684516 7.883083759953724 2.698178510580744 0 1 1
251 1 4.7643934944181705 1.0463982756327699 4.04757860888775 1 -1 0
706 2 6.047070480809222 1.599892940599028 3.636447270637012 0 0 0
141 1 5.844381146777254 0.6710469760053592 0.5530292867704691 -1 2 1
750 2 6.751885539262858 1.2763929563036904 1.5595445586607157 1 1 0
239 1 7.699194934705311 0.2777311681222965 1.895406431260072 0 1 1
35 1 7.171114789861436 1.0213793535501132 4.387226368350064 1 -1 -1
246 1 -0.8955838309612054 8.801162355555565 -0.00973490653098108 0 -1 0
10 1 -0.3243739367681636 8.692606565782683 5.258960551642793 1 0 0
155 1 11.467477786912129 1.096690766521423 2.433311405216936 0 0 0
641 2 10.472768385060409 -0.19209168889569284 -0.14170837694098937 0 1 0
33 1 9.030832725271996 0.25285346964995603 -0.060040795511102196 0 0 1
914 2 11.62182225121007 1.3349966310638965 1.044996696714514 0 1 1
36 1 10.577590125156146 1.0149079252186688 3.6719262352247997 1 1 0
121 1 8.597320661679744 2.809478920824532 3.6642426804852617 -1 1 1
767 2 3.6056751476328053 8.746543722320446 -0.9338337652677584 0 0 1
960 2 10.902900204032946 1.5559514942497001 5.043962062444019 0 0 0
522 2 7.950972129865351 3.157913039067272 0.6668382739889687 0 0 0
226 1 -1.0134061295610919 3.9169902668125616 0.7747638291232084 -5 1 -3
43 1 2.3269693120524924 1.6765896441555888 3.6177257393715196 2 2 -1
775 2 -0.2057812586216523 4.097837044828569 -0.48573814469946885 0 0 0
913 2 2.498287114326874 7.279369530617201 0.6370792169583124 0 0 1
726 2 0.6503172505071673 6.283818972978769 -0.7376614582846048 0 0 0
111 1 1.7358177606346281 6.220778024666904 5.182144582825615 0 1 1
629 2 3.0292491642750097 6.675147606629775 4.3508256717935385 1 0 0
362 2 9.309622507677775 7.558222207787075 -0.9607930852738444 0 0 0
46 1 3.0519136789436354 3.7924658564290192 2.4035148296106867 0 -1 0
134 1 2.8843330079789093 3.024326998108241 -0.9199658256788554 1 1 0
52 1 -0.9492232647155525 3.7049679831954254 3.7984873376442465 -6 0 1
222 1 2.854676595341668 3.841783682675614 5.113581536863789 2 1 0
973 2 3.9598367885433046 4.782698630388569 3.0429857031824126 0 0 1
736 2 6.107506690014807 3.8489148027472915 3.9951121405964 0 0 0
918 2 4.4295313810089425 5.952329281212217 1.1399866383609205 1 0 0
464 2 6.303281022076283 7.1222247204202915 2.0243203495486854 0 0 0
79 1 7.327514266950265 5.947046818950952 2.443058981926491 -1 1 1
847 2 5.285009767993099 5.52770203188423 -0.9336250630411468 0 0 0
988 2 10.41133009294926 3.116041467878195 0.4307750719338679 0 0 0
768 2 11.55945341875917 4.761804693612862 1.6727418468557471 0 0 1
343 2 8.178004373190646 4.087464781194031 2.8367197033511395 0 1 0
793 2 9.847498842500153 5.649736687246902 3.1729334015617248 0 1 1
601 2 10.81363502514891 5.273474160508664 5.248009506033318 0 1 0
969 2 1.773933972466677 11.75888665401131 0.6146155711217718 0 0 1
488 2 -0.505309529356454 11.59472856735266 3.9372700671165486 1 0 1
249 1 1.1281032594174127 8.725967359082944 3.283836727116327 1 1 1
116 1 0.601263299342393 10.880847092780089 0.20166535165637645 0 -4 0
697 2 2.4549924758788255 8.38840831706394 2.7328272034899945 0 0 0
225 1 0.31227273360179253 5.570331121460395 3.98228461918675 1 0 1
1 1 -0.4000032225060185 5.753965608966495 3.754279983220523 3 1 0
468 2 6.115803449368732 8.900108878144065 3.4322942755503387 1 0 0
747 2 7.336473421952013 8.231517266131808 0.21488009017101106 0 0 1
440 2 3.8609700329958683 10.734725036809667 0.3873082565543129 0 0 0
402 2 4.219423148791375 10.107494017191192 2.5918934705138374 0 0 0
803 2 3.4732499407263804 11.953430170082333 3.7580928677633123 1 0 0
513 2 11.41553127825323 8.783983472666401 4.2406566149150136 1 0 0
972 2 11.830227133842309 9.976245935414365 0.534820555025608 0 0 1
801 2 8.28624172247798 11.575856122389316 2.312939358504999 1 0 0
987 2 11.00018835227931 7.816727151318114 0.5137810523745021 0 0 0
572 2 10.264994168887897 11.036415147927002 -0.667366041226106 0 0 0
645 2 8.048157498589863 10.457874783550748 0.1525169232693242 0 0 1
471 2 8.328986327091604 9.419172607750218 3.333398857425343 0 0 1
114 1 -0.8602754474017404 -0.8657905207263694 4.879154985321678 0 2 0
438 2 -0.41196082707389836 -0.3843424463591244 9.824507960555572 0 0 0
276 1 1.3231821869382272 1.8713625691788414 8.694948152471492 2 2 1
743 2 -0.1370738153217893 1.7115351956336013 8.762915908142748 0 0 0
250 1 2.5861564285949465 -0.16622572842207273 7.528128217973707 1 1 -1
2 1 -0.7999277292734615 1.5975727224403404 7.4466904893575325 2 2 0
309 2 0.6583380767100366 -0.5326083217928334 11.840721798741177 0 1 0
806 2 2.0115695452226614 3.413796897736624 6.266890041822534 0 1 1
659 2 2.9334265986994588 -0.8808181021285708 11.805339564187081 0 1 0
320 2 -0.816572637998924 3.5565159275676947 10.122535860756555 1 0 0
206 1 0.6184915451715436 3.6835927791299525 5.948164442908108 5 2 1
264 1 2.1404418097455524 1.960611924383174 6.4415016209215965 2 2 0
912 2 4.835061367686987 0.9329308194718329 10.25223359957585 0 0 0
48 1 6.786324686260844 2.308917265225098 7.285886856636292 0 -1 0
565 2 7.059836814687166 -0.6275121791499804 11.665080816678513 0 1 0
554 2 5.992488783551526 3.4302030928736187 7.701232395661155 1 1 0
728 2 4.476681127210512 2.924149973957239 9.323881529154589 1 1 1
291 1 4.569202686243693 0.3390381674195482 6.0961682533802275 -2 -2 0
168 1 4.340560967629044 0.1242547475827831 6.720672053741673 1 1 0
51 1 10.144142171596577 -0.7962910951828721 11.28779508139754 -1 -2 1
123 1 8.129352871072303 -0.15790643179857033 10.693074181089452 0 3 0
17 1 9.695411883908958 1.564773524036743 5.905371819253068 -2 -4 1
96 1 8.935162008588932 2.763540948296341 10.686235479887927 2 -1 1
297 1 7.4551433879451885 0.5286561560082605 7.3545177379834055 -1 1 -2
195 1 7.3384706688341055 -0.13821275805857147 7.018519492042277 -1 3 0
57 1 -0.6269115335846918 7.556836306267629 8.956179854754092 -1 1 1
662 2 1.0264273169714242 4.847351399265364 9.891520734380805 1 0 1
990 2 2.67425338050416 4.2382873883663414 8.306727602378707 0 0 0
764 2 0.5513791889401045 7.2718189239559035 9.772304759541651 0 0 0
528 2 2.201573203280762 4.673745456436898 11.912923866392397 0 0 1
295 1 -0.484673662401118 6.452731942147873 6.092501931303369 1 -1 0
534 2 3.6489985096951827 6.450527798271109 8.18401046263359 0 0 0
647 2 6.112791667251099 4.991857203438318 5.976467572851941 0 0 1
424 2 5.047678353332086 6.271541259519671 10.040314375673038 0 0 0
880 2 4.382862322908102 4.214071272620764 11.383308609897437 0 0 0
366 2 7.219887719484474 6.423163784628269 9.336203870530852 0 0 0
469 2 4.685685810886269 6.8004028004255765 6.106877754958553 0 0 1
577 2 9.294781302805903 9.8184619503459 9.900235363489823 0 0 0
240 1 9.912787489052244 3.1943002372727003 7.1874834450005824 2 -3 0
940 2 7.924315128097154 5.638045347985098 7.126815062958023 0 0 0
573 2 8.34175108910268 5.779716788063003 11.325582591910342 0 0 0
757 2 10.368477648850671 6.575755672391579 11.027665844265714 0 0 0
322 2 9.975725792503752 4.661821660007092 7.245436311827792 0 0 0
622 2 11.305519854183359 5.410608135954813 8.895547539011744 0 0 0
136 1 11.74375315760349 0.43512191248975496 5.501070167818137 1 3 0
759 2 8.655607905871406 3.5354537084550666 11.93323917666986 0 0 0
525 2 -0.18683961195595866 10.155297370013626 5.707070044624445 0 0 0
685 2 2.268627431106204 8.264014162175624 8.48773719485498 1 0 0
774 2 2.4638135105588637 11.328173289061708 10.807528903717158 1 0 0
527 2 1.6987625914693374 10.123875724493631 7.14569040400087 1 0 0
547 2 1.3651008705718013 11.866136025424654 8.813618820635254 1 0 0
541 2 3.2494702666427893 11.345283942967077 6.051787163039966 1 0 0
608 2 9.191159345025387 11.537237020140747 6.492021655266351 0 0 0
145 1 11.474647745125484 1.8365108964113142 9.920662288330385 1 1 -1
705 2 6.070462276495117 8.49185273675384 5.788800560030009 0 0 1
696 2 5.614652111171906 10.350217395365775 9.028502992320814 0 0 0
461 2 3.667905268513733 9.534691579198785 9.840980861079116 0 0 0
824 2 5.322993802853813 10.580137398334234 6.65211063962484 1 0 0
575 2 7.567596824645289 8.667130512504828 8.880735674825354 0 0 0
485 2 4.29603809225694 7.890489090629396 11.457624640245557 0 0 0
364 2 11.213287536622383 8.665608222682206 10.429396884836475 0 0 0
386 2 9.53684102805599 9.457056201472977 5.461035854202376 0 0 0
939 2 9.651617103666537 11.762792550948726 8.679739337989373 0 0 0
874 2 8.146513362243592 7.962581727657996 6.695514052049413 0 0 0
34 1 11.974061274152918 10.467350963305078 6.962671209013417 0 -5 -1
157 1 11.504927124954042 1.3029594678106857 10.492831081264404 -1 1 0
215 1 -0.12306143207912401 5.779114881320615 6.3479467220790236 0 -2 1
583 2 6.3352488245336165 11.981493380767336 10.491001422422855 0 0 0
493 2 0.07371541934989212 1.3995803540199017 13.17392749826266 1 1 0
964 2 1.3596504967849508 -0.24285592813382395 16.784611104297042 0 1 0
758 2 2.061871611133123 2.6297081347235403 13.16732573550812 0 1 0
927 2 -0.3347373584909872 0.16186300443754642 15.320348069375726 0 0 0
373 2 2.620893661984871 2.9426765715649728 15.40151229141053 0 0 0
590 2 3.3472613172061676 0.8248009589483414 16.089215593719718 0 0 0
618 2 5.702087032691286 0.9141715342316101 13.246169665503354 0 1 0
718 2 6.999671079391527 2.669745580594167 13.507395783181618 0 0 0
326 2 4.843329361123515 -0.5419536046095683 14.884714427715329 0 0 0
605 2 6.367510591245167 2.638358010723805 17.842218051550297 1 0 -1
895 2 4.362492945280506 1.1552919595211564 18.13534622724738 0 1 0
350 2 3.6817960815660893 1.3070454760216261 12.233619677424723 0 1 0
324 2 11.0173636539028 11.676344519776611 12.700185412561364 0 0 0
735 2 7.726365441334309 2.316450808817276 15.936302804658691 0 0 0
970 2 11.60679951572761 0.7951079700520327 15.599572437501898 0 0 0
695 2 9.283854771362412 0.5633113148431388 16.10181777025845 0 0 0
135 1 10.775973774320642 2.292045689742695 18.275321289602516 -1 1 0
908 2 11.881033491379966 1.8599738563878572 13.493140164665146 0 0 0
64 1 11.192838298740153 0.8934943529737029 12.541090485500302 1 1 0
672 2 0.8638017488742709 3.3557663572628496 17.011234309787564 1 0 0
93 1 0.22666381463191398 5.127696914285475 13.497324554525878 0 -6 2
865 2 2.543002278757641 6.898538226946046 12.725709707947951 1 0 0
376 2 -0.30668787134948483 5.320965131736624 16.614297788651225 0 0 0
520 2 1.2804025707460727 7.003360451176052 16.340699157874777 1 0 0
776 2 3.11905737619266 6.782530542706925 14.916289081177876 0 0 0
714 2 2.6453854018610437 7.160313652557699 18.357524468795482 0 0 -1
811 2 7.009773779981753 6.719368717136322 17.15909182359836 0 0 0
381 2 4.196864223218898 4.8040934366106205 15.43999827343232 0 0 0
551 2 5.495817656609544 4.428104710687569 13.506531395358433 0 0 0
860 2 5.535923565606169 4.89211023769859 17.37429052434282 0 0 0
332 2 6.92259772147972 6.510674021295507 13.07812438932553 0 0 0
788 2 9.412233557358931 6.8546469830777745 17.985117472817752 0 1 -1
314 2 10.539476728547472 3.8151647305089726 13.275773712217202 0 0 0
496 2 8.092774149911826 6.350240892859456 14.99316588446078 1 0 0
567 2 9.164401805833583 4.036155513962846 15.235305792713245 0 0 0
977 2 10.72715063460194 5.423053735940108 16.44787876252851 0 0 0
998 2 11.431728219009042 6.041289879430191 12.930279592478461 0 0 0
397 2 10.426447805015117 7.003630056631785 14.7876377915695 0 0 0
530 2 -0.9319676726963521 5.39885120406534 14.33672162165011 0 0 0
738 2 0.1574677592095286 8.861979785432368 15.543650524466454 0 0 0
907 2 0.9847754608553947 10.693492987874196 14.506956422290655 1 0 0
170 1 0.18335899838744418 11.949122457599811 17.39123951111589 1 -3 -1
727 2 0.5444468881550066 7.972671273029896 12.048811449405497 1 0 0
392 2 3.1864486833479972 10.838532098436183 15.268122747595196 0 0 0
879 2 3.188093804869858 11.083397530309636 17.766966279140235 1 0 -1
716 2 -1.0145332794266475 7.75479638860409 13.7494297834723 1 0 0
631 2 0.677715318655669 10.362742594774442 12.072261826725565 1 0 0
917 2 6.8655453241448905 10.965484432935815 12.540211990227675 0 0 0
644 2 4.429058539589032 8.780152427968483 15.070792966731375 1 0 0
377 2 5.8411306659424875 8.686221124620193 13.013140953145282 1 0 0
819 2 5.620976958027362 8.717696806157944 17.123441332671007 0 0 0
654 2 7.463857389850318 10.216069642816825 17.116799146585002 0 0 0
614 2 11.224647043582342 9.208950931325335 15.294329503947992 0 0 0
235 1 8.502325171609185 9.612718322227316 16.186808697649884 2 0 0
42 1 9.233249651680323 9.425329840844816 13.107887272239923 0 -1 1
621 2 9.026366562932395 10.547750242655878 12.169218699005059 0 0 0
378 2 11.009741213595913 11.533642796710541 14.998741314673637 0 0 0
427 2 10.906156016008175 8.57837851804528 17.564655526930903 0 0 0
533 2 -1.0464752559619381 1.9202788066802219 16.683520373343192 1 0 0
196 1 9.137195278453268 3.702050326704037 18.53339912017402 -1 -1 0
548 2 0.9928275010199137 2.0335617463251485 23.025010614130967 0 0 0
305 2 2.695540518837818 1.6673958822473032 19.764309040332797 0 0 0
916 2 1.2078224047601585 -0.014467174201805433 19.25731514806928 1 0 0
717 2 -0.8600695685123836 0.739279826201219 22.31323174282301 1 0 -1
956 2 -1.0123547160378046 0.1106037757734073 19.85892451025253 1 0 -1
710 2 3.0107043964689115 1.7754614392169028 21.914989751788987 0 0 0
243 1 11.770996080612333 3.689204093337133 20.516337838090912 -1 -3 0
368 2 4.212951371265055 -0.20081417212827213 22.395680464528787 0 0 0
615 2 6.1739126822348345 0.4900562808059876 23.456131489741 0 1 -1
691 2 6.474573431699916 2.858665014721775 23.125616370310954 1 0 0
854 2 7.597493274653306 -0.7484276510727089 19.63305498989211 0 1 0
205 1 7.480762231057348 -0.697482334129667 21.102458076915177 -1 0 1
498 2 5.405237855101099 -0.8636062345965123 18.828115853978133 0 1 0
878 2 11.9042785399632 9.616573500674292 20.686570104197344 0 0 0
910 2 11.25977645891138 -0.4225865961185664 19.227517690956603 0 0 0
546 2 10.315088967060069 0.04522023263205788 23.83912767236468 0 0 0
650 2 10.167798824188745 2.111112131376754 22.76700070191623 1 0 -1
739 2 8.237952240361464 2.730629799310822 19.18189043436998 0 0 0
254 1 11.168597976595617 2.056397910962602 21.543324374009323 0 0 -1
459 2 8.334451739458085 3.06844581750728 21.509079803685747 1 0 0
344 2 8.010905757673488 -1.098679230176289 23.861231501940612 0 0 0
312 2 9.931921421235886 10.738025727074822 23.2499823228635 0 0 -1
302 2 0.22893223717687272 4.772854710638569 20.09589190987837 0 0 0
408 2 1.7932881174936588 5.662630027793493 23.555555301401146 0 0 -1
671 2 0.37127512680943564 4.234865011794921 22.456313296515784 0 0 0
911 2 1.032898677360003 7.055797322669777 20.05295734894849 0 0 0
630 2 1.9087530828053598 3.7264231251552786 19.030025732910325 1 0 0
989 2 2.4628717311088746 7.116352947628638 21.863489195989164 0 0 0
610 2 3.541651729365177 4.336243719172255 24.254688464410492 0 0 0
333 2 4.355689068849921 3.628145159459807 22.1276002231999 0 0 -1
489 2 4.242853068870096 5.876539237922708 20.971910134205157 0 0 0
785 2 6.427807008108938 6.556108820619119 21.446119173671278 0 0 -1
126 1 6.0872877790605475 5.727241334941152 22.706569627278995 2 -5 -1
783 2 3.687675105816645 5.274982862689147 18.7059744298386 0 0 0
805 2 7.227912984263861 4.2077126098121305 24.936116869122433 0 1 0
470 2 8.512745066363335 5.305251485611453 21.90321987368965 1 0 -1
414 2 10.934776046521055 3.7344688157241794 24.3401912049705 0 0 -1
681 2 9.143739548484913 5.372769542156622 24.261205235882663 1 0 0
660 2 10.07115814775706 6.005614223939312 20.028588803815886 0 0 0
20 1 3.38754381456475 -0.9555197141795024 23.284146955875816 0 1 -1
765 2 10.746205956503985 7.729335024472137 21.441511120173047 0 0 0
154 1 7.70427675249865 8.85713201366986 19.888257322418394 -1 -2 0
624 2 1.1071991616666659 11.881080574900817 18.569029593315925 1 1 -1
678 2 -1.075602908435226 8.465760250563214 19.908282916326392 0 0 0
199 1 0.16781071284945726 11.150001078003132 24.18264473443598 1 3 -1
929 2 0.3202569363530867 9.778925407324532 23.458502866107047 1 1 -1
766 2 2.595742231231983 9.179496761888283 23.105237294503045 0 -1 -1
294 1 -0.45281479356916154 9.936865458240462 22.219747193006015 0 -5 -1
60 1 0.914131013036334 10.853105916569064 19.690597128896766 3 -4 -1
842 2 7.034720386626333 11.741166993045216 24.6163406491143 0 0 -1
112 1 3.440039666276693 11.26705036958209 20.877933975142607 1 -1 -1
859 2 3.7891858732486865 10.93723726345874 22.317987602585998 0 0 0
260 1 4.3716505366556015 9.415204807634963 20.059701236704434 -1 -1 -1
781 2 7.214887431680875 11.66258438097036 20.8776849000771 0 0 0
904 2 5.771934136535535 7.865659939361171 24.757224476812095 1 0 0
700 2 6.134660478754889 10.531363556643626 22.58148958861373 0 0 0
881 2 6.955203475422369 8.308003178572012 22.73164733750612 0 0 -1
701 2 10.469843239021325 10.3503179675445 19.026188519930916 0 0 0
374 2 8.137414532390938 10.174742359229565 19.28944873324954 0 0 0
780 2 9.191451728435876 8.486807184251244 23.093751044252365 0 0 0
76 1 5.626658438769234 0.4901184130525038 24.815735027901923 -2 0 0
83 1 1.4243158145585628 -1.0886680919505027 24.117915387268866 1 1 1
335 2 -0.6228465593145749 8.05759995649472 24.817395912875984 1 0 -1
699 2 3.874994836727274 9.014998879328541 18.67040098483298 0 0 0
902 2 9.257189980165105 0.6976868012708488 18.54775824847207 1 0 0
930 2 1.7498634268825826 14.675010574476492 2.5224312564464335 0 0 0
722 2 2.9824197480176347 14.865399245509842 0.6414121577402259 0 0 1
627 2 1.4081779508244927 16.140197400175772 4.511640388603505 1 0 0
106 1 0.5200728329424653 14.89524812609216 1.7759297145407191 -1 0 -2
581 2 1.3480500170272136 12.339300579041703 2.794807408081377 1 0 1
213 1 5.756108498264703 24.503046816805295 2.0105077205233295 -1 0 1
176 1 4.240785807140375 23.52149357790472 -1.1011956661689393 -1 -2 1
353 2 -0.7919997420569508 13.579196797477572 5.137298126764717 1 0 1
542 2 5.2383810708876855 14.046010018592806 0.7903195016554776 0 0 0
769 2 4.977228023191009 13.812532619341786 3.2266559832804917 0 0 0
729 2 4.936841638738494 15.961475818807788 4.172502506455283 0 0 0
637 2 7.066434355794453 12.872657416859845 3.8622146171062166 0 0 0
372 2 6.9239557289302684 15.676016634349999 0.4051411254729158 0 0 1
834 2 5.023381638686228 12.328672842589478 -0.6756584762983243 0 0 0
863 2 10.841967151307763 14.218488344006314 1.2941007931014932 0 0 1
893 2 8.40829155510002 14.639235228535354 4.479223470887204 0 0 0
612 2 10.114583800728607 13.126727523334209 4.95704414125546 0 0 0
745 2 9.12442831783122 15.943364250632083 1.2403170718336005 1 0 0
941 2 10.492865448114651 12.38614662879473 2.8485979214448096 0 0 0
883 2 10.466480447187063 13.311391239967387 -0.9003878263503053 0 0 1
66 1 3.079555898874106 16.377961205449875 0.1779954436519604 0 -3 0
832 2 -0.3324388592412185 17.825091776636505 4.443564755799324 0 0 0
675 2 0.8101358499884976 20.097368762975268 4.468185687186605 0 0 1
110 1 -0.4881031764921385 19.619733332031153 0.7258130105449876 -1 -2 0
274 1 1.0221814275291066 20.11308653996546 -0.3950081148304636 2 0 0
178 1 1.6401077631326961 19.637243289503935 -0.42391095046517047 1 -3 1
315 2 3.157503705986527 19.49343331401026 5.0537611915359895 0 0 0
241 1 7.8515191096604475 21.945175627645675 3.9561372469503233 0 -3 0
131 1 4.444955531623131 17.691358600605678 0.7321501260979795 -1 0 1
901 2 6.59234181646563 17.38430151796274 3.2438371587739727 0 0 1
509 2 5.844538022194757 17.666829424533095 0.9665264671903664 0 -1 0
861 2 6.514381795179673 19.774034458480756 0.5821019265376359 0 -1 1
993 2 6.815066513820908 19.281539476381557 4.76805467613705 0 0 0
371 2 5.0488962223179 20.68367643739199 4.209141024464519 0 0 0
415 2 9.755319776051183 21.693750658391206 0.1626081289512511 0 0 0
915 2 8.681137218678929 16.607396747823092 3.456661725543838 0 0 0
394 2 9.845983890783208 17.977276522832266 0.08030150233188227 0 0 0
474 2 10.171186074332406 17.980262812532796 4.590530080486916 0 0 0
770 2 8.739869952562234 20.108113998343473 1.2703856603296764 0 0 1
390 2 10.332648523419177 20.287640321980742 4.213721763095747 0 -1 0
323 2 8.231417414593519 20.53944481562853 3.493532697284796 0 0 0
160 1 1.479581366818722 20.94405484424195 1.2687179899169911 0 0 0
688 2 0.589064271304024 21.46469820476738 2.486342902267529 1 0 0
109 1 9.086862644612653 23.145810959056774 4.896522599227624 0 -2 0
172 1 1.1242305311200527 22.80675387842719 2.6429661074169912 1 0 2
227 1 2.1394045712924044 24.405897142945946 2.4538474133296533 -1 2 1
737 2 3.3783191188471102 17.204573270584397 5.433795630521567 0 0 1
228 1 7.782333533965383 24.886265155676686 -0.8768367390939621 1 2 0
508 2 10.05308953034897 23.93837597073521 1.0343559602937558 0 0 0
29 1 8.675154100658085 24.087076199629898 1.6841149515694869 1 -5 1
732 2 10.047279197801878 24.09420901484358 4.597330129975475 0 0 1
3 1 11.100412295196435 21.26505194582755 -0.0539597913501908 -1 1 1
56 1 -0.8422094673252509 24.21187607752115 -0.8979202548273488 2 -1 1
89 1 3.4112587910075556 21.06762338965753 1.7551135152787172 0 -1 1
954 2 4.915361415227202 20.93697553531561 1.9143683749273621 0 0 1
182 1 5.443907909187625 22.278071559500976 1.634470766041206 1 0 2
101 1 5.5195753886290255 23.85803571062387 4.6470250571620895 -1 2 1
173 1 9.208192999024272 25.024962862521843 4.004341820599606 -3 -3 0
903 2 11.450424215098321 23.316336666532752 2.838222881526413 0 0 0
271 1 5.273171868355006 23.977007030505995 2.421334722138374 -2 0 1
277 1 2.1418337527088465 24.514074443387436 3.1596073663431863 1 3 0
19 1 6.008345844757141 15.653920151868661 5.265177361076259 3 -1 1
287 1 2.242936671279921 23.09505901291555 5.286357180066996 2 0 1
68 1 4.937014065415036 23.11307428479477 -1.0040249669482186 0 -2 0
576 2 1.1478640263127131 14.630997147122622 6.306843859475972 0 0 1
429 2 2.659864441921808 13.293239739931952 7.476002765755586 0 0 0
638 2 -0.2296402766573734 15.574224501653962 7.860400312443149 0 0 0
813 2 0.4482757773664454 16.12143548991278 10.012980444346784 0 0 0
656 2 0.999472236456822 14.502037532577965 11.76804948447991 0 0 0
420 2 -1.0293078215791744 12.040815453788422 8.87850694478062 1 0 0
63 1 9.429356967088728 24.10469871819191 9.494272883806216 1 0 0
928 2 4.848096964297882 14.021327158250687 10.753126442135317 0 0 0
407 2 4.5261309314383595 14.435625290113322 8.538637760123239 0 0 0
683 2 6.681128625203806 13.985981672955512 7.685435006771829 0 0 0
633 2 6.936759834528862 12.218018902539637 6.265755026041073 0 0 0
416 2 5.798845651125314 15.726172441642934 11.956591752636095 1 -1 0
814 2 3.0624514244679917 13.300767805040218 11.954750614767745 0 0 0
579 2 7.768776307102133 15.608150758189662 6.4967849263683926 0 0 0
702 2 11.708101409257347 12.964521988204165 9.277934587137102 0 0 0
771 2 7.978004492454536 13.083715867355872 9.499716498348985 0 0 0
850 2 11.720954930124195 14.797778503844704 7.845778745683678 0 0 0
905 2 8.80376829550246 14.412922804211481 11.2951493328068 0 0 0
756 2 11.069007745129914 13.626052234658804 11.499433462814999 0 0 0
595 2 9.606465070543361 16.02547030298567 7.958405989030018 0 0 0
955 2 2.3480702377118585 17.418682664801455 9.290898562785513 0 0 0
361 2 1.4057341148050684 19.648126417797503 8.572236064983844 1 0 0
919 2 -0.7714931897250008 17.83980722109346 11.236803116654004 0 0 0
435 2 1.5728285374250914 20.884564610368955 10.447681514601992 0 -1 0
887 2 -0.7809217443130294 19.360288444305546 7.77620071789894 0 0 0
403 2 3.0041505441525143 20.572894385278772 7.231664490114092 1 -1 0
790 2 3.1262762310415937 18.140131201473874 11.263004327924314 0 0 0
208 1 10.833253611140366 24.401065651954113 5.692533909600617 -3 -3 0
436 2 7.009849026507871 19.424091869151674 11.758810652415946 0 0 0
363 2 4.092526979071366 16.672417828013405 7.710186069924212 0 0 0
517 2 5.8382304428925496 18.027659257833097 8.52189493456042 0 0 0
604 2 6.6192707278748735 17.44667949926904 10.566628176580764 0 -1 0
994 2 3.766779698215319 20.42026232213823 10.693916272946087 0 0 0
949 2 4.864392924432528 20.325278345625556 8.731868399845252 0 0 0
417 2 7.30846571542221 18.029929712258443 6.772554015760114 0 0 0
773 2 8.70362079723939 16.528972415954048 10.068713824256875 0 0 0
634 2 10.32456032316813 19.958238362267647 10.169719453026673 0 0 0
826 2 11.117583865041505 19.579547800391666 7.945529226699467 0 -1 0
544 2 9.596876145531365 18.13415052763714 6.885300859453071 0 0 0
308 2 10.23434548874388 17.852395030712174 11.171383121483789 0 0 1
920 2 -0.8496265946061673 20.922020234922595 6.033305397790587 1 0 0
380 2 0.49489384466040653 24.03522509384845 8.710817287165483 0 0 1
574 2 0.21066948698264687 22.656830427000504 10.576384875229191 0 0 0
356 2 2.7627301048195925 24.611930149758827 7.98631573708005 0 0 0
807 2 3.129955658037643 22.755585848405293 6.575769651635483 1 0 0
808 2 5.306547316153171 22.676815138212053 5.514709402342587 0 -1 1
400 2 4.03791490947825 25.010100219526503 9.718260971287451 0 -1 0
833 2 6.540938553685694 21.897107363409994 9.04956828786634 1 0 0
953 2 5.93699447312332 23.83239068641717 10.345327517285963 0 0 0
674 2 7.25574349429044 22.666074888305904 6.944306210366014 0 0 1
539 2 1.1059307606576243 19.121383465221268 11.74923093179288 0 0 0
856 2 -1.0424064758288114 23.060436529005386 7.145195798927276 1 -1 0
125 1 7.67486892251757 24.13568314172306 7.15213851765238 1 1 1
979 2 8.158116441209058 21.066119389182088 10.461034013572455 0 0 0
553 2 11.28226484160103 21.170024135757426 6.141757220624779 0 0 0
103 1 8.403616885644782 21.800922495096856 6.574753197688939 3 -1 1
41 1 11.200638040062257 22.585497288040504 6.8288922204144455 5 0 1
495 2 10.218343946753011 24.035349927500057 10.797082706101474 1 0 0
283 1 0.12808817794564908 13.965285254559442 15.347411075300162 -1 -5 1
92 1 2.4896482910637214 15.248725494513238 14.890675559589438 5 0 0
425 2 1.9721172053814309 15.918589802251088 13.622115251503912 0 0 0
422 2 -0.18650750196210397 12.50754869709199 14.75825238263141 0 0 0
95 1 1.376285408154414 15.601773683767068 17.076052685154103 0 -1 -1
454 2 -0.8222536779816548 13.406607928813543 12.611869764891404 1 0 0
652 2 8.187261342395505 24.698805898266873 15.488324361663622 0 -1 0
71 1 3.6492751716363596 13.845977626969582 14.889406003321543 1 -2 0
932 2 4.11207723418434 12.691161693387684 14.006612399288777 0 0 0
867 2 6.611537171647002 12.701806693903595 13.967260642738967 0 0 0
393 2 7.4897943097404465 12.34858110621768 16.215090952634046 0 0 0
149 1 7.688376479068561 15.44858657078824 18.089042681521196 2 2 -1
566 2 7.5473029754985905 14.742056163156457 13.208976137449667 0 0 0
900 2 10.697808728611195 12.564752868973772 18.408114985072746 0 0 0
886 2 9.728037654305306 12.85165719408404 16.37921157742071 0 0 0
752 2 10.299948991134288 15.0120440503606 16.043466921748507 0 0 0
888 2 8.938830759328326 16.139597243446268 14.648688691456558 0 0 0
670 2 10.723759295380013 16.050936068122358 18.226656093761175 0 0 0
384 2 0.36660711269765756 16.74104196364828 16.82133957472189 0 0 0
625 2 0.2576479944097758 17.326309482650004 14.586406993114487 0 0 0
426 2 0.6619040694564429 19.560200141741063 13.983805483721717 1 0 0
835 2 1.3012202361082728 18.285381776844268 18.154627623584734 0 0 0
463 2 1.7772271418289618 20.353114095379823 17.199397981194785 0 -1 0
594 2 2.4651590444119162 20.62839330563639 14.995329903136007 0 0 0
600 2 11.335947597785015 23.939013181727624 17.58226586669634 0 -1 0
50 1 6.080213892797967 19.323646298413358 17.74456604016191 2 2 -1
152 1 4.476770642578702 17.220014767479814 16.025671911378936 1 0 -1
753 2 4.144759239777548 16.962643615361415 13.095148280130703 0 -1 0
708 2 5.231829701090121 17.97777321676849 15.036433491423086 0 0 0
820 2 4.685426821106603 20.294111590758327 14.766923146439048 0 0 0
963 2 5.15602920289637 20.740220480896685 12.462379461936456 0 0 0
798 2 7.502386803371184 18.023973434165722 15.331398776589193 0 0 0
304 2 10.119712946285489 17.825041808605945 13.47013715288108 0 0 0
518 2 8.391616634202204 19.264074815166378 13.616412395988846 0 0 0
360 2 11.186165894970125 18.259763288398197 17.76986463579212 0 0 0
437 2 9.143831267476408 19.02544554477439 16.836125279797997 0 -1 0
310 2 0.1141616217713679 22.03386625234605 17.50038756823006 1 0 0
617 2 1.4980703933419854 23.753617525117754 16.520063614873962 1 -1 0
491 2 1.9752500065706649 22.851849515286805 14.354351358575682 0 0 0
719 2 0.13805108194480775 23.521473825150995 12.695654811992682 0 0 0
449 2 3.291891388871215 23.414439858314473 18.09251617090062 0 0 0
730 2 11.921967690133453 20.7467209285415 13.652319507534418 0 0 0
828 2 5.550480428539985 20.66546181784243 18.04034694569661 0 0 0
809 2 5.702171956195589 23.04733628340209 12.494648674511916 0 0 0
413 2 5.960440212143457 24.192059259244573 16.540622889441277 0 0 0
466 2 6.23570529021305 21.729936536644132 16.131990425477447 0 0 0
669 2 3.8401298399542076 24.12706342413008 13.52321857846915 1 -1 0
316 2 9.723832620395909 21.238378635330445 14.02340386377964 0 0 0
280 1 3.283720220566405 15.109193702886476 18.18303451144762 -2 -1 1
603 2 8.718885036359376 21.29044488621391 16.067632868681784 0 0 0
869 2 9.045881008002139 22.50601151611982 12.140228754788982 0 0 0
486 2 7.6965093266085525 24.009354255025688 13.189592502847846 0 -1 0
538 2 9.149623161551316 23.208323673018292 17.176362736326766 0 0 0
179 1 3.1215474669071224 15.885150655984308 17.87057748250563 0 -5 -1