 vasp.6.5.0 16Dec24 (build Jan 20 2025 08:32:48) complex                         
 executed on        HPECrayEX_GCC date 2025.08.02  09:01:10
 running  128 mpi-ranks, with    1 threads/rank, on    2 nodes
 distrk:  each k-point on  128 cores,    1 groups
 distr:  one band on NCORE=  16 cores,    8 groups


--------------------------------------------------------------------------------------------------------


 INCAR:
   SYSTEM = a-Si SPC
   NCORE = 16
   ISTART = 1
   ICHARG = 1
   ISPIN = 1
   ISYM = 1
   EDIFF = 1E-6
   NELM = 150
   EDIFFG = -0.01
   NSW = 0
   ISIF = 2
   IBRION = -1
   PREC = Accurate
   ENCUT = 1200
   KSPACING = 0.23
   KGAMMA = .TRUE.
   METAGGA = SCAN
   LASPH = .TRUE.
   LDIAG = .FALSE.
   LMIXTAU = .TRUE.
   ADDGRID = .TRUE.
   ALGO = Normal
   ISMEAR = 0
   SIGMA = 0.1
   LORBIT = 11
   NEDOS = 2000
   LWAVE = .FALSE.
   LCHARG = .FALSE.

 POTCAR:    PAW_PBE Si 05Jan2001                  
 POTCAR:    PAW_PBE Si 05Jan2001                  
   SHA256 =  79d9987ad8750f624c4d6acb2a16d13abf6a777132adc04dc6c8399be72b42bb Si/POTCAR             
   COPYR  = (c) Copyright 05Jan2001 Georg Kresse                                                    
   COPYR  = This file is part of the software VASP. Any use, copying, and all other rights are regul
   COPYR  = If you do not have a valid VASP license, you may not use, copy or distribute this file. 
   VRHFIN =Si: s2p2                                                                                 
   LEXCH  = PE                                                                                      
   EATOM  =   103.0669 eV,    7.5752 Ry                                                             
                                                                                                    
   TITEL  = PAW_PBE Si 05Jan2001                                                                    
   LULTRA =        F    use ultrasoft PP ?                                                          
   IUNSCR =        1    unscreen: 0-lin 1-nonlin 2-no                                               
   RPACOR =    1.500    partial core radius                                                         
   POMASS =   28.085; ZVAL   =    4.000    mass and valenz                                          
   RCORE  =    1.900    outmost cutoff radius                                                       
   RWIGS  =    2.480; RWIGS  =    1.312    wigner-seitz radius (au A)                               
   ENMAX  =  245.345; ENMIN  =  184.009 eV                                                          
   ICORE  =        2    local potential                                                             
   LCOR   =        T    correct aug charges                                                         
   LPAW   =        T    paw PP                                                                      
   EAUG   =  322.069                                                                                
   DEXC   =    0.000                                                                                
   RMAX   =    1.950    core radius for proj-oper                                                   
   RAUG   =    1.300    factor for augmentation sphere                                              
   RDEP   =    1.993    radius for radial grids                                                     
   RDEPT  =    1.837    core radius for aug-charge                                                  
                                                                                                    
   Atomic configuration                                                                             
    6 entries                                                                                       
     n  l   j            E        occ.                                                              
     1  0  0.50     -1785.8828   2.0000                                                             
     2  0  0.50      -139.4969   2.0000                                                             
     2  1  1.50       -95.5546   6.0000                                                             
     3  0  0.50       -10.8127   2.0000                                                             
     3  1  0.50        -4.0811   2.0000                                                             
     3  2  1.50        -4.0817   0.0000                                                             
   Description                                                                                      
     l       E           TYP  RCUT    TYP  RCUT                                                     
     0    -10.8127223     23  1.900                                                                 
     0     -7.6451159     23  1.900                                                                 
     1     -4.0811372     23  1.900                                                                 
     1      2.4879257     23  1.900                                                                 
     2     -4.0817478      7  1.900                                                                 
  local pseudopotential read in
  partial core-charges read in
  partial kinetic energy density read in
  atomic valenz-charges read in
  non local Contribution for L=           0  read in
    real space projection operators read in
  non local Contribution for L=           0  read in
    real space projection operators read in
  non local Contribution for L=           1  read in
    real space projection operators read in
  non local Contribution for L=           1  read in
    real space projection operators read in
    PAW grid and wavefunctions read in

   number of l-projection  operators is LMAX  =           4
   number of lm-projection operators is LMMAX =           8

 -----------------------------------------------------------------------------
|                                                                             |
|               ----> ADVICE to this user running VASP <----                  |
|                                                                             |
|     You have a (more or less) 'large supercell' and for larger cells it     |
|     might be more efficient to use real-space projection operators.         |
|     Therefore, try LREAL= Auto in the INCAR file.                           |
|     Mind: For very accurate calculation, you might also keep the            |
|     reciprocal projection scheme (i.e. LREAL=.FALSE.).                      |
|                                                                             |
 -----------------------------------------------------------------------------

 -----------------------------------------------------------------------------
|                                                                             |
|               ----> ADVICE to this user running VASP <----                  |
|                                                                             |
|     You enforced a specific xc type in the INCAR file but a different       |
|     type was found in the POTCAR file.                                      |
|     I HOPE YOU KNOW WHAT YOU ARE DOING!                                     |
|                                                                             |
 -----------------------------------------------------------------------------

  PAW_PBE Si 05Jan2001                  :
 energy of atom  1       EATOM= -103.0669
 kinetic energy error for atom=    0.0001 (will be added to EATOM!!)


 POSCAR:  Si
  positions in cartesian coordinates
  No initial velocities read in


 exchange-correlation table for SCAN
   RHO(1)=    0.500       N(1)  =     2000
   RHO(2)=  100.500       N(2)  =     4000



--------------------------------------------------------------------------------------------------------


 ion  position               nearest neighbor table
   1  0.125  0.125  0.281-  32 2.34  95 2.34   5 2.37   3 2.37
   2  0.375  0.375  0.281-  32 2.34  30 2.34   9 2.37  69 2.37
   3  0.994  0.244  0.316-  12 2.33   8 2.37   1 2.37   4 2.39
   4  0.125  0.375  0.347-  27 2.36  15 2.36  69 2.39   3 2.39
   5  0.256  0.006  0.316-   6 2.33   1 2.37  66 2.37  68 2.39
   6  0.375  0.125  0.352-   9 2.33   5 2.33  92 2.33  15 2.33
   7  0.625  0.125  0.281-  29 2.34  94 2.34  11 2.37   9 2.37
   8  0.875  0.375  0.281-  29 2.34  31 2.34   3 2.37  75 2.37
   9  0.494  0.244  0.316-   6 2.33   2 2.37   7 2.37  10 2.39
  10  0.625  0.375  0.347-  28 2.36  23 2.36   9 2.39  75 2.39
  11  0.756  0.006  0.316-  12 2.33   7 2.37  72 2.37  74 2.39
  12  0.875  0.125  0.352-   3 2.33  11 2.33  91 2.33  23 2.33
  13  0.875  0.125  0.484-  17 2.34  21 2.34 121 2.34  43 2.35
  14  0.125  0.125  0.416-  17 2.35  19 2.35  91 2.35  15 2.35
  15  0.247  0.253  0.383-   6 2.33  16 2.35  14 2.35   4 2.36
  16  0.375  0.375  0.416-  83 2.35  25 2.35  28 2.35  15 2.35
  17  0.999  0.249  0.450-  13 2.34  14 2.35  24 2.35  18 2.35
  18  0.125  0.375  0.483-  57 2.35  35 2.35  83 2.35  17 2.35
  19  0.251  0.001  0.450-  20 2.34  80 2.35  14 2.35  82 2.35
  20  0.375  0.125  0.484-  19 2.34  25 2.34 122 2.34  35 2.35
  21  0.751  0.001  0.450-  13 2.34  88 2.35  22 2.35  90 2.35
  22  0.625  0.125  0.416-  25 2.35  21 2.35  92 2.35  23 2.35
  23  0.747  0.253  0.383-  12 2.33  24 2.35  22 2.35  10 2.36
  24  0.875  0.375  0.416-  85 2.35  17 2.35  27 2.35  23 2.35
  25  0.499  0.249  0.450-  20 2.34  22 2.35  16 2.35  26 2.35
  26  0.625  0.375  0.483-  58 2.35  43 2.35  85 2.35  25 2.35
  27  0.003  0.497  0.383-  76 2.33  78 2.35  24 2.35   4 2.36
  28  0.503  0.497  0.383-  70 2.33  16 2.35  86 2.35  10 2.36
  29  0.701  0.299  0.254-  30 2.33   7 2.34   8 2.34
  30  0.549  0.451  0.254-  29 2.33  71 2.34   2 2.34
  31  0.049  0.451  0.254-  32 2.33   8 2.34  65 2.34
  32  0.201  0.299  0.254-  31 2.33   1 2.34   2 2.34
  33  0.750  0.000  0.719- 127 2.34  62 2.34  56 2.37 113 2.37
  34  0.124  0.124  0.550- 121 2.34  37 2.35  39 2.35  35 2.35
  35  0.250  0.250  0.517-  20 2.35  18 2.35  34 2.35  36 2.35
  36  0.376  0.376  0.550-  58 2.34 103 2.35  45 2.35  35 2.35
  37  1.000  0.250  0.584-  34 2.35  44 2.35  48 2.35  38 2.35
  38  0.128  0.372  0.617-  59 2.33  37 2.35 103 2.35  51 2.36
  39  0.250  0.000  0.584- 100 2.35  34 2.35  40 2.35 102 2.35
  40  0.372  0.128  0.617- 124 2.33  45 2.35  39 2.35  51 2.36
  41  0.500  0.250  0.719-  63 2.34  64 2.34  52 2.37  56 2.37
  42  0.624  0.124  0.550- 122 2.34  45 2.35  47 2.35  43 2.35
  43  0.750  0.250  0.517-  13 2.35  26 2.35  42 2.35  44 2.35
  44  0.876  0.376  0.550-  57 2.34 111 2.35  37 2.35  43 2.35
  45  0.500  0.250  0.584-  42 2.35  36 2.35  40 2.35  46 2.35
  46  0.628  0.372  0.617-  60 2.33  45 2.35 111 2.35  55 2.36
  47  0.750  0.000  0.584- 108 2.35  42 2.35  48 2.35 110 2.35
  48  0.872  0.128  0.617- 123 2.33  47 2.35  37 2.35  55 2.36
  49  0.881  0.381  0.684-  59 2.33  53 2.37  97 2.37  55 2.39
  50  0.119  0.119  0.684- 123 2.33  54 2.37  53 2.37  51 2.39
  51  0.250  0.250  0.653-  40 2.36  38 2.36  52 2.39  50 2.39
  52  0.381  0.381  0.684-  60 2.33  41 2.37 118 2.37  51 2.39
  53  1.000  0.250  0.719-  61 2.34  62 2.34  49 2.37  50 2.37
  54  0.250  0.000  0.719- 125 2.34  64 2.34  50 2.37 116 2.37
  55  0.750  0.250  0.653-  48 2.36  46 2.36  56 2.39  49 2.39
  56  0.619  0.119  0.684- 124 2.33  33 2.37  41 2.37  55 2.39
  57  0.000  0.500  0.516-  44 2.34  98 2.34  77 2.34  18 2.35
  58  0.500  0.500  0.516- 106 2.34  36 2.34  84 2.34  26 2.35
  59  0.000  0.500  0.648- 114 2.33  49 2.33 112 2.33  38 2.33
  60  0.500  0.500  0.648-  52 2.33 120 2.33 104 2.33  46 2.33
  61  0.174  0.326  0.746-  64 2.33 118 2.34  53 2.34
  62  0.826  0.174  0.746-  63 2.33  53 2.34  33 2.34
  63  0.674  0.326  0.746-  62 2.33  97 2.34  41 2.34
  64  0.326  0.174  0.746-  61 2.33  54 2.34  41 2.34
  65  0.125  0.625  0.281-  96 2.34  31 2.34  69 2.37  67 2.37
  66  0.375  0.875  0.281-  96 2.34  94 2.34  73 2.37   5 2.37
  67  0.994  0.744  0.316-  76 2.33  72 2.37  65 2.37  68 2.39
  68  0.125  0.875  0.347-  91 2.36  79 2.36   5 2.39  67 2.39
  69  0.256  0.506  0.316-  70 2.33  65 2.37   2 2.37   4 2.39
  70  0.375  0.625  0.352-  69 2.33  73 2.33  28 2.33  79 2.33
  71  0.625  0.625  0.281-  93 2.34  30 2.34  75 2.37  73 2.37
  72  0.875  0.875  0.281-  93 2.34  95 2.34  67 2.37  11 2.37
  73  0.494  0.744  0.316-  70 2.33  66 2.37  71 2.37  74 2.39
  74  0.625  0.875  0.347-  92 2.36  87 2.36  73 2.39  11 2.39
  75  0.756  0.506  0.316-  76 2.33  71 2.37   8 2.37  10 2.39
  76  0.875  0.625  0.352-  75 2.33  67 2.33  27 2.33  87 2.33
  77  0.875  0.625  0.484-  81 2.34  85 2.34  57 2.34 107 2.35
  78  0.125  0.625  0.416-  81 2.35  83 2.35  27 2.35  79 2.35
  79  0.247  0.753  0.383-  70 2.33  78 2.35  80 2.35  68 2.36
  80  0.375  0.875  0.416-  19 2.35  89 2.35  92 2.35  79 2.35
  81  0.999  0.749  0.450-  77 2.34  78 2.35  88 2.35  82 2.35
  82  0.125  0.875  0.483- 121 2.35  99 2.35  81 2.35  19 2.35
  83  0.251  0.501  0.450-  84 2.34  16 2.35  78 2.35  18 2.35
  84  0.375  0.625  0.484-  83 2.34  89 2.34  58 2.34  99 2.35
  85  0.751  0.501  0.450-  77 2.34  24 2.35  86 2.35  26 2.35
  86  0.625  0.625  0.416-  89 2.35  85 2.35  28 2.35  87 2.35
  87  0.747  0.753  0.383-  76 2.33  86 2.35  88 2.35  74 2.36
  88  0.875  0.875  0.416-  21 2.35  81 2.35  91 2.35  87 2.35
  89  0.499  0.749  0.450-  84 2.34  86 2.35  80 2.35  90 2.35
  90  0.625  0.875  0.483- 122 2.35 107 2.35  89 2.35  21 2.35
  91  0.003  0.997  0.383-  12 2.33  14 2.35  88 2.35  68 2.36
  92  0.503  0.997  0.383-   6 2.33  80 2.35  22 2.35  74 2.36
  93  0.701  0.799  0.254-  94 2.33  72 2.34  71 2.34
  94  0.549  0.951  0.254-  93 2.33   7 2.34  66 2.34
  95  0.049  0.951  0.254-  96 2.33  72 2.34   1 2.34
  96  0.201  0.799  0.254-  95 2.33  66 2.34  65 2.34
  97  0.750  0.500  0.719-  63 2.34 126 2.34 120 2.37  49 2.37
  98  0.124  0.624  0.550-  57 2.34 101 2.35 103 2.35  99 2.35
  99  0.250  0.750  0.517-  84 2.35  82 2.35 100 2.35  98 2.35
 100  0.376  0.876  0.550- 122 2.34  39 2.35 109 2.35  99 2.35
 101  1.000  0.750  0.584-  98 2.35 108 2.35 112 2.35 102 2.35
 102  0.128  0.872  0.617- 123 2.33  39 2.35 101 2.35 115 2.36
 103  0.250  0.500  0.584-  36 2.35  98 2.35 104 2.35  38 2.35
 104  0.372  0.628  0.617-  60 2.33 109 2.35 103 2.35 115 2.36
 105  0.500  0.750  0.719- 127 2.34 128 2.34 116 2.37 120 2.37
 106  0.624  0.624  0.550-  58 2.34 109 2.35 111 2.35 107 2.35
 107  0.750  0.750  0.517-  77 2.35  90 2.35 108 2.35 106 2.35
 108  0.876  0.876  0.550- 121 2.34  47 2.35 101 2.35 107 2.35
 109  0.500  0.750  0.584- 106 2.35 100 2.35 104 2.35 110 2.35
 110  0.628  0.872  0.617- 124 2.33  47 2.35 109 2.35 119 2.36
 111  0.750  0.500  0.584-  44 2.35 106 2.35 112 2.35  46 2.35
 112  0.872  0.628  0.617-  59 2.33 111 2.35 101 2.35 119 2.36
 113  0.881  0.881  0.684- 123 2.33 117 2.37  33 2.37 119 2.39
 114  0.119  0.619  0.684-  59 2.33 118 2.37 117 2.37 115 2.39
 115  0.250  0.750  0.653- 104 2.36 102 2.36 116 2.39 114 2.39
 116  0.381  0.881  0.684- 124 2.33 105 2.37  54 2.37 115 2.39
 117  1.000  0.750  0.719- 125 2.34 126 2.34 113 2.37 114 2.37
 118  0.250  0.500  0.719-  61 2.34 128 2.34 114 2.37  52 2.37
 119  0.750  0.750  0.653- 112 2.36 110 2.36 120 2.39 113 2.39
 120  0.619  0.619  0.684-  60 2.33  97 2.37 105 2.37 119 2.39
 121  0.000  1.000  0.516- 108 2.34  34 2.34  13 2.34  82 2.35
 122  0.500  1.000  0.516-  42 2.34 100 2.34  20 2.34  90 2.35
 123  0.000  1.000  0.648-  50 2.33 113 2.33  48 2.33 102 2.33
 124  0.500  1.000  0.648- 116 2.33  56 2.33  40 2.33 110 2.33
 125  0.174  0.826  0.746- 128 2.33 117 2.34  54 2.34
 126  0.826  0.674  0.746- 127 2.33 117 2.34  97 2.34
 127  0.674  0.826  0.746- 126 2.33 105 2.34  33 2.34
 128  0.326  0.674  0.746- 125 2.33 118 2.34 105 2.34

  LATTYP: Found a simple tetragonal cell.
 ALAT       =    10.8600000000
 C/A-ratio  =     3.7166206262
  
  Lattice vectors:
  
 A1 = (  10.8600000000,   0.0000000000,   0.0000000000)
 A2 = (   0.0000000000,  10.8600000000,   0.0000000000)
 A3 = (   0.0000000000,   0.0000000000,  40.3625000000)


Analysis of symmetry for initial positions (statically):
=====================================================================
 Subroutine PRICEL returns following result:
 
  LATTYP: Found a simple tetragonal cell.
 ALAT       =     5.4299999995
 C/A-ratio  =     7.4332412530
  
  Lattice vectors:
  
 A1 = (   5.4299999995,   0.0000000006,   0.0000000000)
 A2 = (   0.0000000000,   5.4300000006,   0.0000000000)
 A3 = (   0.0000000000,   0.0000000000,  40.3625000000)
 
   4 primitive cells build up your supercell.
 

 Routine SETGRP: Setting up the symmetry group for a 
 simple tetragonal supercell.


 Subroutine GETGRP returns: Found  4 space group operations
 (whereof  2 operations were pure point group operations)
 out of a pool of 16 trial point group operations.


The static configuration has the point symmetry C_1h.
 The point group associated with its full space group is C_2h.


Analysis of symmetry for dynamics (positions and initial velocities):
=====================================================================
 Subroutine PRICEL returns following result:
 
  LATTYP: Found a simple tetragonal cell.
 ALAT       =     5.4299999995
 C/A-ratio  =     7.4332412530
  
  Lattice vectors:
  
 A1 = (   5.4299999995,   0.0000000006,   0.0000000000)
 A2 = (   0.0000000000,   5.4300000006,   0.0000000000)
 A3 = (   0.0000000000,   0.0000000000,  40.3625000000)
 
   4 primitive cells build up your supercell.
 

 Routine SETGRP: Setting up the symmetry group for a 
 simple tetragonal supercell.


 Subroutine GETGRP returns: Found  4 space group operations
 (whereof  2 operations were pure point group operations)
 out of a pool of 16 trial point group operations.


The dynamic configuration has the point symmetry C_1h.
 The point group associated with its full space group is C_2h.


 Subroutine INISYM returns: Found  4 space group operations
 (whereof  2 operations are pure point group operations),
 and found     4 'primitive' translations


----------------------------------------------------------------------------------------

                                     Primitive cell                                     

  volume of cell :    1190.0843

  direct lattice vectors                    reciprocal lattice vectors
     5.429999999  0.000000001  0.000000000     0.184162063  0.000000000  0.000000000
     0.000000000  5.430000001  0.000000000    -0.000000000  0.184162063  0.000000000
     0.000000000  0.000000000 40.362500000     0.000000000  0.000000000  0.024775472

  length of vectors
     5.429999999  5.430000001 40.362500000     0.184162063  0.184162063  0.024775472

  position of ions in fractional coordinates (direct lattice)
     0.249923621  0.249853468  0.281282108
     0.750146532  0.750076378  0.281282108
     0.987255608  0.487203600  0.315580196
     0.250137638  0.749862362  0.347377555
     0.512796400  0.012744392  0.315580196
     0.749854936  0.250145064  0.351552607
     0.749162117  0.250837883  0.483573281
     0.249732325  0.249728007  0.416317656
     0.494390040  0.505609960  0.382875554
     0.750271993  0.750267674  0.416317656
     0.998243573  0.498242778  0.449798105
     0.250844035  0.749155965  0.482957650
     0.501757222  0.001756427  0.449798105
     0.005585481  0.994414519  0.382779161
     0.401387577  0.598612423  0.253981089
     0.098445606  0.901554394  0.253867881
     0.500076379  0.000146531  0.718717892
     0.248242778  0.248243573  0.550201895
     0.499155965  0.500844035  0.517042350
     0.751756427  0.751757222  0.550201895
     0.999728007  0.499732325  0.583682344
     0.255609960  0.744390040  0.617124446
     0.500267675  0.000271993  0.583682344
     0.744414519  0.255585481  0.617220839
     0.999853469  0.499923621  0.718717892
     0.762744392  0.762796400  0.684419804
     0.237203600  0.237255608  0.684419804
     0.499862362  0.500137638  0.652622445
     0.000837883  0.999162117  0.516426719
     0.000145064  0.999854936  0.648447393
     0.348612422  0.651387578  0.746018911
     0.651554394  0.348445606  0.746132119

  ion indices of the primitive-cell ions
   primitive index   ion index
                 1           1
                 2          72
                 3           3
                 4          68
                 5           5
                 6           6
                 7          20
                 8          14
                 9          15
                10          88
                11          17
                12          18
                13          19
                14          91
                15          32
                16          95
                17          54
                18          34
                19          35
                20         108
                21          37
                22          38
                23          39
                24          40
                25          53
                26         113
                27          50
                28          51
                29         121
                30         123
                31          61
                32          64

----------------------------------------------------------------------------------------


 -----------------------------------------------------------------------------
|                                                                             |
|           W    W    AA    RRRRR   N    N  II  N    N   GGGG   !!!           |
|           W    W   A  A   R    R  NN   N  II  NN   N  G    G  !!!           |
|           W    W  A    A  R    R  N N  N  II  N N  N  G       !!!           |
|           W WW W  AAAAAA  RRRRR   N  N N  II  N  N N  G  GGG   !            |
|           WW  WW  A    A  R   R   N   NN  II  N   NN  G    G                |
|           W    W  A    A  R    R  N    N  II  N    N   GGGG   !!!           |
|                                                                             |
|     The requested file  could not be found or opened for reading            |
|     k-point information. Automatic k-point generation is used as a          |
|     fallback, which may lead to unwanted results.                           |
|                                                                             |
 -----------------------------------------------------------------------------



Automatic generation of k-mesh.
 Grid dimensions derived from KSPACING:
 generate k-points for:    3    3    1

 Generating k-lattice:

  Cartesian coordinates                     Fractional coordinates (reciprocal lattice)
     0.030693677  0.000000000  0.000000000     0.333333333  0.000000000  0.000000000
     0.000000000  0.030693677  0.000000000     0.000000000  0.333333333  0.000000000
     0.000000000  0.000000000  0.024775472     0.000000000  0.000000000  1.000000000

  Length of vectors
     0.030693677  0.030693677  0.024775472

  Shift w.r.t. Gamma in fractional coordinates (k-lattice)
     0.000000000  0.000000000  0.000000000

 
 Subroutine IBZKPT returns following result:
 ===========================================
 
 Found      4 irreducible k-points:
 
 Following reciprocal coordinates:
            Coordinates               Weight
  0.000000  0.000000  0.000000      1.000000
  0.333333  0.000000  0.000000      4.000000
  0.333333  0.333333  0.000000      2.000000
 -0.333333  0.333333  0.000000      2.000000
 
 Following cartesian coordinates:
            Coordinates               Weight
  0.000000  0.000000  0.000000      1.000000
  0.030694  0.000000  0.000000      4.000000
  0.030694  0.030694  0.000000      2.000000
 -0.030694  0.030694  0.000000      2.000000
 


--------------------------------------------------------------------------------------------------------




 Dimension of arrays:
   k-points           NKPTS =      4   k-points in BZ     NKDIM =      4   number of bands    NBANDS=    328
   number of dos      NEDOS =   2000   number of ions     NIONS =    128
   non local maximal  LDIM  =      4   non local SUM 2l+1 LMDIM =      8
   total plane-waves  NPLWV = ******
   max r-space proj   IRMAX =      1   max aug-charges    IRDMAX= 428338
   dimension x,y,z NGX =   126 NGY =  126 NGZ =  480
   dimension x,y,z NGXF=   252 NGYF=  252 NGZF=  960
   support grid    NGXF=   504 NGYF=  504 NGZF= 1920
   ions per type =             128
   NGX,Y,Z   is equivalent  to a cutoff of  19.29, 19.29, 19.77 a.u.
   NGXF,Y,Z  is equivalent  to a cutoff of  38.58, 38.58, 39.54 a.u.

 SYSTEM =  a-Si SPC                                
 POSCAR =   Si                                     

 Startparameter for this run:
   NWRITE =      2    write-flag & timer
   PREC   = accura    normal or accurate (medium, high low for compatibility)
   ISTART =      1    job   : 0-new  1-cont  2-samecut
   ICHARG =      1    charge: 1-file 2-atom 10-const
   ISPIN  =      1    spin polarized calculation?
   LNONCOLLINEAR =      F non collinear calculations
   LSORBIT =      F    spin-orbit coupling
   INIWAV =      1    electr: 0-lowe 1-rand  2-diag
   LASPH  =      T    aspherical Exc in radial PAW
 Electronic Relaxation 1
   ENCUT  = 1200.0 eV  88.20 Ry    9.39 a.u.  30.67 30.67114.01*2*pi/ulx,y,z
   ENINI  = 1200.0     initial cutoff
   ENAUG  =  322.1 eV  augmentation charge cutoff
   NELM   =    150;   NELMIN=  2; NELMDL=  0     # of ELM steps 
   EDIFF  = 0.1E-05   stopping-criterion for ELM
   LREAL  =      F    real-space projection
   NLSPLINE    = F    spline interpolate recip. space projectors
   LCOMPAT=      F    compatible to vasp.4.4
   GGA_COMPAT  = T    GGA compatible to vasp.4.4-vasp.4.6
   LMAXPAW     = -100 max onsite density
   LMAXMIX     =    2 max onsite mixed and CHGCAR
   VOSKOWN=      0    Vosko Wilk Nusair interpolation
   ROPT   =    0.00000
 Ionic relaxation
   EDIFFG = -.1E-01   stopping-criterion for IOM
   NSW    =      0    number of steps for IOM
   NBLOCK =      1;   KBLOCK =      1    inner block; outer block 
   IBRION =     -1    ionic relax: 0-MD 1-quasi-New 2-CG
   NFREE  =      0    steps in history (QN), initial steepest desc. (CG)
   ISIF   =      2    stress and relaxation
   IWAVPR =     10    prediction:  0-non 1-charg 2-wave 3-comb
   ISYM   =      1    0-nonsym 1-usesym 2-fastsym
   LCORR  =      T    Harris-Foulkes like correction to forces

   POTIM  = 0.5000    time-step for ionic-motion
   TEIN   =    0.0    initial temperature
   TEBEG  =    0.0;   TEEND  =   0.0 temperature during run
   SMASS  =  -3.00    Nose mass-parameter (am)
   estimated Nose-frequenzy (Omega)   =  0.10E-29 period in steps = 0.13E+47 mass=  -0.270E-26a.u.
   SCALEE = 1.0000    scale energy and forces
   NPACO  =    256;   APACO  = 10.0  distance and # of slots for P.C.
   PSTRESS=    0.0 pullay stress

  Mass of Ions in am
   POMASS =  28.09
  Ionic Valenz
   ZVAL   =   4.00
  Atomic Wigner-Seitz radii
   RWIGS  =  -1.00
  virtual crystal weights 
   VCA    =   1.00
   NELECT =     512.0000    total number of electrons
   NUPDOWN=      -1.0000    fix difference up-down

 DOS related values:
   EMIN   =  10.00;   EMAX   =-10.00  energy-range for DOS
   EFERMI =   0.00;   METHOD = LEGACY      
   ISMEAR =     0;   SIGMA  =   0.10  broadening in eV -4-tet -1-fermi 0-gaus
   EFERMI_NEDOS =   21; number of points for ismear=-14 and -15

 Electronic relaxation 2 (details)
   IALGO  =     38    algorithm
   LDIAG  =      F    sub-space diagonalisation (order eigenvalues)
   LSUBROT=      F    optimize rotation matrix (better conditioning)
   TURBO    =      0    0=normal 1=particle mesh
   IRESTART =      0    0=no restart 2=restart with 2 vectors
   NREBOOT  =      0    no. of reboots
   NMIN     =      0    reboot dimension
   EREF     =   0.00    reference energy to select bands
   IMIX   =      4    mixing-type and parameters
     AMIX     =   0.40;   BMIX     =  1.00
     AMIX_MAG =   1.60;   BMIX_MAG =  1.00
     AMIN     =   0.10
     WC   =   100.;   INIMIX=   1;  MIXPRE=   1;  MAXMIX= -45

 Intra band minimization:
   WEIMIN = 0.0000     energy-eigenvalue tresh-hold
   EBREAK =  0.76E-09  absolut break condition
   DEPER  =   0.30     relativ break condition  

   TIME   =   0.40     timestep for ELM

  volume/ion in A,a.u.               =      37.19       250.97
  Fermi-wavevector in a.u.,A,eV,Ry     =   0.778548  1.471243  8.247002  0.606138
  Thomas-Fermi vector in A             =   1.881467

 Write flags
   LWAVE        =      F    write WAVECAR
   LDOWNSAMPLE  =      F    k-point downsampling of WAVECAR
   LCHARG       =      F    write CHGCAR
   LVTOT        =      F    write LOCPOT, total local potential
   LVHAR        =      F    write LOCPOT, Hartree potential only
   WRT_POTENTIAL= false  ! write potential to hdf5 file
   LELF         =      F    write electronic localiz. function (ELF)
   LORBIT       =     11    0 simple, 1 ext, 2 COOP (PROOUT), +10 PAW based schemes


 Python interface
   PLUGINS active      =      F    recompile with -DPLUGINS to activate

 Dipole corrections
   LMONO      =      F    monopole corrections only (constant potential shift)
   LDIPOL     =      F    correct potential (dipole corrections)
   IDIPOL     =      0    1-x, 2-y, 3-z, 4-all directions 
   EPSILON    =  1.0000000 bulk dielectric constant
   LVACPOTAV  =      F  vacuum potentials using an averaging scheme for the charge density
   VACPOTFLAT =  0.1000000 required flatness to determine vacuum potential

Coulomb truncation method
  LTRUNCATE          =      F  Coulomb kernel truncation to be used
  IDIMENSIONALITY    =      3  Dimensionality of cutoff (0 molecules / 2 surfaces)
  ISURFACE           =     -1  Direction of surface normal
  LCOARSEN           =      F  Coarsen the charge grid before padding, preferred


 Exchange correlation treatment:
   METAGGA = SCAN    functional components
   XC_C    = 1    coefficients multiplying the functional components
   LIBXC   =     F    Libxc                    
   VOSKOWN =     0    Vosko Wilk Nusair interpolation
   LHFCALC =     F    Hartree Fock is set to
   LHFONE  =     F    Hartree Fock one center treatment
   AEXX    =    0.0000 exact exchange contribution

 Parameters of functionals:
   SCAN:
     P1 =  0.000000E+00
     P2 =  0.000000E+00
     P3 =  0.000000E+00

 Accuracy and mixing parameters for tau-dependent meta-GGA functionals:
   LMAXTAU = 6
   LMIXTAU = T

 Van der Waals corrections
   IVDW    =     0    specifies the selected vdW correction

 Linear response parameters
   LEPSILON=     F    determine dielectric tensor
   LRPA    =     F    only Hartree local field effects (RPA)
   LNABLA  =     F    use nabla operator in PAW spheres
   LVEL    =     F    velocity operator in full k-point grid
   CSHIFT  =0.1000    complex shift for real part using Kramers Kronig
   OMEGAMAX=  -1.0    maximum frequency
   DEG_THRESHOLD= 0.2000000E-02 threshold for treating states as degnerate
   RTIME   =   -0.100 relaxation time in fs
  (WPLASMAI=    0.000 imaginary part of plasma frequency in eV, 0.658/RTIME)
   DFIELD  = 0.0000000 0.0000000 0.0000000 field for delta impulse in time

  Optional k-point grid parameters
   LKPOINTS_OPT  =     F    use optional k-point grid
   KPOINTS_OPT_MODE=     1    mode for optional k-point grid

 Orbital magnetization related:
   ORBITALMAG=     F  switch on orbital magnetization
   LCHIMAG   =     F  perturbation theory with respect to B field
   DQ        =  0.001000  dq finite difference perturbation B field
   LLRAUG    =     F  two centre corrections for induced B field
   LBONE     =     F  B-component reconstruction in AE one-centre
   LVGVCALC  =     T  calculate vGv susceptibility
   LVGVAPPL  =     F  apply vGv susceptibility instead of pGv for G=0

 Random number generation:
   RANDOM_GENERATOR = DEFAULT
   PCG_SEED         = not used


--------------------------------------------------------------------------------------------------------


 Static calculation
 charge density and potential will be updated during run
 non-spin polarized calculation
 Variant of blocked Davidson
 perform Loewdin sub-space diagonalisation
    ordering is kept fixed
    before iterative eigenvector-optimisation
 modified Broyden-mixing scheme, WC =      100.0
 initial mixing is a Kerker type mixing with AMIX =  0.4000 and BMIX =      1.0000
 Hartree-type preconditioning will be used
 using additional bands           72
 reciprocal scheme for non local part
 use partial core corrections
 calculate Harris-corrections to forces   (improved forces if not selfconsistent)
 use gradient corrections 
 use of overlap-Matrix (Vanderbilt PP)
 Gauss-broadening in eV      SIGMA  =   0.10


--------------------------------------------------------------------------------------------------------


  energy-cutoff  :     1200.00
  volume of cell :     4760.34
      direct lattice vectors                 reciprocal lattice vectors
    10.860000000  0.000000000  0.000000000     0.092081031  0.000000000  0.000000000
     0.000000000 10.860000000  0.000000000     0.000000000  0.092081031  0.000000000
     0.000000000  0.000000000 40.362500000     0.000000000  0.000000000  0.024775472

  length of vectors
    10.860000000 10.860000000 40.362500000     0.092081031  0.092081031  0.024775472



 old parameters found on file WAVECAR:
  energy-cutoff  :     1200.00
  volume of cell :     4760.34
      direct lattice vectors                 reciprocal lattice vectors
    10.860000000  0.000000000  0.000000000     0.092081031  0.000000000  0.000000000
     0.000000000 10.860000000  0.000000000     0.000000000  0.092081031  0.000000000
     0.000000000  0.000000000 40.362500000     0.000000000  0.000000000  0.024775472

  length of vectors


 k-points in units of 2pi/SCALE and weight: read from INCAR                         
   0.00000000  0.00000000  0.00000000       0.111
   0.03069368  0.00000000  0.00000000       0.444
   0.03069368  0.03069368  0.00000000       0.222
  -0.03069368  0.03069368  0.00000000       0.222

 k-points in reciprocal lattice and weights: read from INCAR                         
   0.00000000  0.00000000  0.00000000       0.111
   0.33333333  0.00000000  0.00000000       0.444
   0.33333333  0.33333333  0.00000000       0.222
  -0.33333333  0.33333333  0.00000000       0.222

 position of ions in fractional coordinates (direct lattice) 
   0.12496181  0.12492673  0.28128211
   0.37507327  0.37503819  0.28128211
   0.99362780  0.24360180  0.31558020
   0.12506882  0.37493118  0.34737755
   0.25639820  0.00637220  0.31558020
   0.37492747  0.12507253  0.35155261
   0.62496181  0.12492673  0.28128211
   0.87507327  0.37503819  0.28128211
   0.49362780  0.24360180  0.31558020
   0.62506882  0.37493118  0.34737755
   0.75639820  0.00637220  0.31558020
   0.87492747  0.12507253  0.35155261
   0.87458106  0.12541894  0.48357328
   0.12486616  0.12486400  0.41631766
   0.24719502  0.25280498  0.38287555
   0.37513600  0.37513384  0.41631766
   0.99912179  0.24912139  0.44979811
   0.12542202  0.37457798  0.48295765
   0.25087861  0.00087821  0.44979811
   0.37458106  0.12541894  0.48357328
   0.75087861  0.00087821  0.44979811
   0.62486616  0.12486400  0.41631766
   0.74719502  0.25280498  0.38287555
   0.87513600  0.37513384  0.41631766
   0.49912179  0.24912139  0.44979811
   0.62542202  0.37457798  0.48295765
   0.00279274  0.49720726  0.38277916
   0.50279274  0.49720726  0.38277916
   0.70069379  0.29930621  0.25398109
   0.54922280  0.45077720  0.25386788
   0.04922280  0.45077720  0.25386788
   0.20069379  0.29930621  0.25398109
   0.75003819  0.00007327  0.71871789
   0.12412139  0.12412179  0.55020189
   0.24957798  0.25042202  0.51704235
   0.37587821  0.37587861  0.55020189
   0.99986400  0.24986616  0.58368234
   0.12780498  0.37219502  0.61712445
   0.25013384  0.00013600  0.58368234
   0.37220726  0.12779274  0.61722084
   0.49992673  0.24996181  0.71871789
   0.62412139  0.12412179  0.55020189
   0.74957798  0.25042202  0.51704235
   0.87587821  0.37587861  0.55020189
   0.49986400  0.24986616  0.58368234
   0.62780498  0.37219502  0.61712445
   0.75013384  0.00013600  0.58368234
   0.87220726  0.12779274  0.61722084
   0.88137220  0.38139820  0.68441980
   0.11860180  0.11862780  0.68441980
   0.24993118  0.25006882  0.65262245
   0.38137220  0.38139820  0.68441980
   0.99992673  0.24996181  0.71871789
   0.25003819  0.00007327  0.71871789
   0.74993118  0.25006882  0.65262245
   0.61860180  0.11862780  0.68441980
   0.00041894  0.49958106  0.51642672
   0.50041894  0.49958106  0.51642672
   0.00007253  0.49992747  0.64844739
   0.50007253  0.49992747  0.64844739
   0.17430621  0.32569379  0.74601891
   0.82577720  0.17422280  0.74613212
   0.67430621  0.32569379  0.74601891
   0.32577720  0.17422280  0.74613212
   0.12496181  0.62492673  0.28128211
   0.37507327  0.87503819  0.28128211
   0.99362780  0.74360180  0.31558020
   0.12506882  0.87493118  0.34737755
   0.25639820  0.50637220  0.31558020
   0.37492747  0.62507253  0.35155261
   0.62496181  0.62492673  0.28128211
   0.87507327  0.87503819  0.28128211
   0.49362780  0.74360180  0.31558020
   0.62506882  0.87493118  0.34737755
   0.75639820  0.50637220  0.31558020
   0.87492747  0.62507253  0.35155261
   0.87458106  0.62541894  0.48357328
   0.12486616  0.62486400  0.41631766
   0.24719502  0.75280498  0.38287555
   0.37513600  0.87513384  0.41631766
   0.99912179  0.74912139  0.44979811
   0.12542202  0.87457798  0.48295765
   0.25087861  0.50087821  0.44979811
   0.37458106  0.62541894  0.48357328
   0.75087861  0.50087821  0.44979811
   0.62486616  0.62486400  0.41631766
   0.74719502  0.75280498  0.38287555
   0.87513600  0.87513384  0.41631766
   0.49912179  0.74912139  0.44979811
   0.62542202  0.87457798  0.48295765
   0.00279274  0.99720726  0.38277916
   0.50279274  0.99720726  0.38277916
   0.70069379  0.79930621  0.25398109
   0.54922280  0.95077720  0.25386788
   0.04922280  0.95077720  0.25386788
   0.20069379  0.79930621  0.25398109
   0.75003819  0.50007327  0.71871789
   0.12412139  0.62412179  0.55020189
   0.24957798  0.75042202  0.51704235
   0.37587821  0.87587861  0.55020189
   0.99986400  0.74986616  0.58368234
   0.12780498  0.87219502  0.61712445
   0.25013384  0.50013600  0.58368234
   0.37220726  0.62779274  0.61722084
   0.49992673  0.74996181  0.71871789
   0.62412139  0.62412179  0.55020189
   0.74957798  0.75042202  0.51704235
   0.87587821  0.87587861  0.55020189
   0.49986400  0.74986616  0.58368234
   0.62780498  0.87219502  0.61712445
   0.75013384  0.50013600  0.58368234
   0.87220726  0.62779274  0.61722084
   0.88137220  0.88139820  0.68441980
   0.11860180  0.61862780  0.68441980
   0.24993118  0.75006882  0.65262245
   0.38137220  0.88139820  0.68441980
   0.99992673  0.74996181  0.71871789
   0.25003819  0.50007327  0.71871789
   0.74993118  0.75006882  0.65262245
   0.61860180  0.61862780  0.68441980
   0.00041894  0.99958106  0.51642672
   0.50041894  0.99958106  0.51642672
   0.00007253  0.99992747  0.64844739
   0.50007253  0.99992747  0.64844739
   0.17430621  0.82569379  0.74601891
   0.82577720  0.67422280  0.74613212
   0.67430621  0.82569379  0.74601891
   0.32577720  0.67422280  0.74613212

 position of ions in cartesian coordinates  (Angst):
   1.35708526  1.35670433 11.35324910
   4.07329567  4.07291474 11.35324910
  10.79079795  2.64551555 12.73760568
   1.35824737  4.07175263 14.02102655
   2.78448445  0.06920205 12.73760568
   4.07171230  1.35828770 14.18954211
   6.78708526  1.35670433 11.35324910
   9.50329567  4.07291474 11.35324910
   5.36079795  2.64551555 12.73760568
   6.78824737  4.07175263 14.02102655
   8.21448445  0.06920205 12.73760568
   9.50171230  1.35828770 14.18954211
   9.49795030  1.36204970 19.51822656
   1.35604653  1.35602308 16.80362140
   2.68453792  2.74546208 15.45381455
   4.07397692  4.07395347 16.80362140
  10.85046260  2.70545828 18.15497602
   1.36208311  4.06791689 19.49337815
   2.72454172  0.00953740 18.15497602
   4.06795030  1.36204970 19.51822656
   8.15454172  0.00953740 18.15497602
   6.78604653  1.35602308 16.80362140
   8.11453792  2.74546208 15.45381455
   9.50397692  4.07395347 16.80362140
   5.42046260  2.70545828 18.15497602
   6.79208311  4.06791689 19.49337815
   0.03032916  5.39967084 15.44992389
   5.46032916  5.39967084 15.44992388
   7.60953455  3.25046545 10.25131172
   5.96455964  4.89544036 10.24674233
   0.53455964  4.89544036 10.24674233
   2.17953455  3.25046546 10.25131172
   8.14541474  0.00079567 29.00925090
   1.34795828  1.34796260 22.20752398
   2.71041689  2.71958311 20.86912185
   4.08203740  4.08204172 22.20752398
  10.85852308  2.71354653 23.55887860
   1.38796208  4.04203792 24.90868545
   2.71645347  0.00147692 23.55887860
   4.04217084  1.38782916 24.91257611
   5.42920434  2.71458526 29.00925090
   6.77795828  1.34796260 22.20752398
   8.14041689  2.71958311 20.86912185
   9.51203740  4.08204172 22.20752398
   5.42852308  2.71354653 23.55887860
   6.81796208  4.04203792 24.90868545
   8.14645347  0.00147692 23.55887860
   9.47217084  1.38782916 24.91257611
   9.57170205  4.14198445 27.62489432
   1.28801555  1.28829795 27.62489432
   2.71425263  2.71574737 26.34147345
   4.14170205  4.14198445 27.62489432
  10.85920434  2.71458526 29.00925090
   2.71541474  0.00079567 29.00925090
   8.14425263  2.71574737 26.34147345
   6.71801555  1.28829795 27.62489432
   0.00454971  5.42545030 20.84427344
   5.43454971  5.42545030 20.84427344
   0.00078770  5.42921230 26.17295789
   5.43078770  5.42921230 26.17295789
   1.89296545  3.53703455 30.11118828
   8.96794036  1.89205964 30.11575766
   7.32296545  3.53703455 30.11118828
   3.53794036  1.89205964 30.11575766
   1.35708526  6.78670433 11.35324910
   4.07329567  9.50291474 11.35324910
  10.79079795  8.07551555 12.73760568
   1.35824737  9.50175263 14.02102655
   2.78448445  5.49920205 12.73760568
   4.07171230  6.78828770 14.18954211
   6.78708526  6.78670433 11.35324910
   9.50329567  9.50291474 11.35324910
   5.36079795  8.07551555 12.73760568
   6.78824737  9.50175263 14.02102655
   8.21448445  5.49920205 12.73760568
   9.50171230  6.78828770 14.18954211
   9.49795030  6.79204970 19.51822656
   1.35604653  6.78602308 16.80362140
   2.68453792  8.17546208 15.45381455
   4.07397692  9.50395347 16.80362140
  10.85046260  8.13545828 18.15497602
   1.36208311  9.49791689 19.49337815
   2.72454172  5.43953740 18.15497602
   4.06795030  6.79204970 19.51822656
   8.15454172  5.43953740 18.15497602
   6.78604653  6.78602308 16.80362140
   8.11453792  8.17546208 15.45381455
   9.50397692  9.50395347 16.80362140
   5.42046260  8.13545828 18.15497602
   6.79208311  9.49791689 19.49337815
   0.03032916 10.82967084 15.44992388
   5.46032916 10.82967084 15.44992389
   7.60953455  8.68046546 10.25131172
   5.96455964 10.32544036 10.24674233
   0.53455964 10.32544036 10.24674233
   2.17953455  8.68046545 10.25131172
   8.14541474  5.43079567 29.00925090
   1.34795828  6.77796260 22.20752398
   2.71041689  8.14958311 20.86912185
   4.08203740  9.51204172 22.20752398
  10.85852308  8.14354653 23.55887860
   1.38796208  9.47203792 24.90868545
   2.71645347  5.43147692 23.55887860
   4.04217084  6.81782916 24.91257611
   5.42920434  8.14458526 29.00925090
   6.77795828  6.77796260 22.20752398
   8.14041689  8.14958311 20.86912185
   9.51203740  9.51204172 22.20752398
   5.42852308  8.14354653 23.55887860
   6.81796208  9.47203792 24.90868545
   8.14645347  5.43147692 23.55887860
   9.47217084  6.81782916 24.91257611
   9.57170205  9.57198445 27.62489432
   1.28801555  6.71829795 27.62489432
   2.71425263  8.14574737 26.34147345
   4.14170205  9.57198445 27.62489432
  10.85920434  8.14458526 29.00925090
   2.71541474  5.43079567 29.00925090
   8.14425263  8.14574737 26.34147345
   6.71801555  6.71829795 27.62489432
   0.00454971 10.85545030 20.84427344
   5.43454971 10.85545030 20.84427344
   0.00078770 10.85921230 26.17295789
   5.43078770 10.85921230 26.17295789
   1.89296545  8.96703455 30.11118828
   8.96794036  7.32205964 30.11575766
   7.32296545  8.96703455 30.11118828
   3.53794036  7.32205964 30.11575766



--------------------------------------------------------------------------------------------------------


 k-point     1 :   0.0000 0.0000 0.0000  plane waves:  449425
 k-point     2 :   0.3333 0.0000 0.0000  plane waves:  449230
 k-point     3 :   0.3333 0.3333 0.0000  plane waves:  449286
 k-point     4 :  -0.3333 0.3333 0.0000  plane waves:  449286

 maximum and minimum number of plane-waves per node :     28157    28027

 maximum number of plane-waves:    449425
 maximum index in each direction: 
   IXMAX=   31   IYMAX=   30   IZMAX=  114
   IXMIN=  -31   IYMIN=  -31   IZMIN= -114


 parallel 3D FFT for wavefunctions:
    minimum data exchange during FFTs selected (reduces bandwidth)
 parallel 3D FFT for charge:
    minimum data exchange during FFTs selected (reduces bandwidth)


 total amount of memory used by VASP MPI-rank0   315265. kBytes
=======================================================================

   base                                    :      30000. kBytes
   nonl-proj                               :      64825. kBytes
   fftplans                                :      84433. kBytes
   grid                                    :      61987. kBytes
   one-center                              :         24. kBytes
   wavefun                                 :      73996. kBytes

     INWAV:  cpu time     22.3467: real time     55.3200
 Broyden mixing: mesh for mixing (old mesh)
   NGX = 61   NGY = 61   NGZ =229
  (NGX  =252   NGY  =252   NGZ  =960)
  gives a total of 852109 points

 initial charge density was supplied:
 number of electron     511.9999998 magnetization 
 keeping initial charge density in first step


--------------------------------------------------------------------------------------------------------


 Maximum index for augmentation-charges         6789 (set IRDMAX)


--------------------------------------------------------------------------------------------------------


 First call to EWALD:  gamma=   0.105
 Maximum number of real-space cells   4x   4x   1
 Maximum number of reciprocal cells   2x   2x   6

    FEWALD:  cpu time      0.0137: real time      0.0137


--------------------------------------- Ionic step        1  -------------------------------------------




--------------------------------------- Iteration      1(   1)  ---------------------------------------


    POTLOK:  cpu time      1.5012: real time      1.5024
    SETDIJ:  cpu time      1.8648: real time      1.8656
    EDDIAG:  cpu time     45.2046: real time     45.2277
     EDDAV:  cpu time    209.2859: real time    209.4069
       DOS:  cpu time      0.0064: real time      0.0065
    CHARGE:  cpu time     55.5263: real time     55.5574
    MIXING:  cpu time      0.0351: real time      0.0353
    --------------------------------------------
      LOOP:  cpu time    313.4244: real time    313.6019

 eigenvalue-minimisations  :  2640
 total energy-change (2. order) :-0.1342077E+04  (-0.1411581E+01)
 number of electron     511.9999999 magnetization 
 augmentation part      -28.4922575 magnetization 

 Broyden mixing:
  rms(total) = 0.15074E+01    rms(broyden)= 0.35404E+02
  rms(prec ) = 0.15488E+01
  weight for this iteration     100.00
  WARNING: grid for Broyden might be to small

 Free energy of the ion-electron system (eV)
  ---------------------------------------------------
  alpha Z        PSCENC =       115.86085667
  Ewald energy   TEWEN  =    133686.51157475
  -Hartree energ DENC   =   -146702.09782396
  -exchange      EXHF   =         0.00000000
  -V(xc)+E(xc)   XCENC  =      -615.94308755
  PAW double counting   =     52280.99611021   -51006.35349740
  entropy T*S    EENTRO =        -0.14423155
  eigenvalues    EBANDS =     -2293.46138382
  atomic energy  EATOM  =     13192.55497936
  Solvation  Ediel_sol  =         0.00000000
  ---------------------------------------------------
  free energy    TOTEN  =     -1342.07650329 eV

  energy without entropy =    -1341.93227173  energy(sigma->0) =    -1342.00438751


--------------------------------------------------------------------------------------------------------




--------------------------------------- Iteration      1(   2)  ---------------------------------------


    POTLOK:  cpu time      1.4596: real time      1.4686
    SETDIJ:  cpu time      1.8621: real time      1.8632
    EDDIAG:  cpu time     45.1484: real time     45.1756
     EDDAV:  cpu time    209.5089: real time    209.6346
       DOS:  cpu time      0.0036: real time      0.0036
    CHARGE:  cpu time     55.6023: real time     55.6320
    MIXING:  cpu time      0.0342: real time      0.0343
    --------------------------------------------
      LOOP:  cpu time    313.6191: real time    313.8118

 eigenvalue-minimisations  :  2648
 total energy-change (2. order) : 0.9096263E+02  (-0.1253412E+01)
 number of electron     511.9999999 magnetization 
 augmentation part      -28.3739602 magnetization 

 Broyden mixing:
  rms(total) = 0.99730E+00    rms(broyden)= 0.20467E+02
  rms(prec ) = 0.10184E+01
  weight for this iteration     100.00
  WARNING: grid for Broyden might be to small

 eigenvalues of (default mixing * dielectric matrix)
  average eigenvalue GAMMA=   0.6338
  0.6338

 Free energy of the ion-electron system (eV)
  ---------------------------------------------------
  alpha Z        PSCENC =       115.86085667
  Ewald energy   TEWEN  =    133686.51157475
  -Hartree energ DENC   =   -146692.49182399
  -exchange      EXHF   =         0.00000000
  -V(xc)+E(xc)   XCENC  =      -602.14267082
  PAW double counting   =     62751.80056061   -61476.77918601
  entropy T*S    EENTRO =        -0.08980918
  eigenvalues    EBANDS =     -2226.33835349
  atomic energy  EATOM  =     13192.55497936
  Solvation  Ediel_sol  =         0.00000000
  ---------------------------------------------------
  free energy    TOTEN  =     -1251.11387209 eV

  energy without entropy =    -1251.02406291  energy(sigma->0) =    -1251.06896750


--------------------------------------------------------------------------------------------------------




--------------------------------------- Iteration      1(   3)  ---------------------------------------


    POTLOK:  cpu time      1.4707: real time      1.4712
    SETDIJ:  cpu time      1.8607: real time      1.8619
    EDDIAG:  cpu time     45.1148: real time     45.1413
     EDDAV:  cpu time    209.8824: real time    210.0075
       DOS:  cpu time      0.0050: real time      0.0050
    CHARGE:  cpu time     55.9147: real time     55.9443
    MIXING:  cpu time      0.0344: real time      0.0344
    --------------------------------------------
      LOOP:  cpu time    314.2826: real time    314.4657

 eigenvalue-minimisations  :  2656
 total energy-change (2. order) :-0.6284254E+01  (-0.1083472E+01)
 number of electron     511.9999999 magnetization 
 augmentation part      -28.2814118 magnetization 

 Broyden mixing:
  rms(total) = 0.38906E+00    rms(broyden)= 0.32020E+02
  rms(prec ) = 0.50425E+00
  weight for this iteration     100.00
  WARNING: grid for Broyden might be to small

 eigenvalues of (default mixing * dielectric matrix)
  average eigenvalue GAMMA=   0.8009
  0.9741  0.6276

 Free energy of the ion-electron system (eV)
  ---------------------------------------------------
  alpha Z        PSCENC =       115.86085667
  Ewald energy   TEWEN  =    133686.51157475
  -Hartree energ DENC   =   -146694.26175816
  -exchange      EXHF   =         0.00000000
  -V(xc)+E(xc)   XCENC  =      -609.97679071
  PAW double counting   =     75399.87030462   -74124.99432828
  entropy T*S    EENTRO =        -0.08666599
  eigenvalues    EBANDS =     -2222.87629862
  atomic energy  EATOM  =     13192.55497936
  Solvation  Ediel_sol  =         0.00000000
  ---------------------------------------------------
  free energy    TOTEN  =     -1257.39812635 eV

  energy without entropy =    -1257.31146036  energy(sigma->0) =    -1257.35479336


--------------------------------------------------------------------------------------------------------




--------------------------------------- Iteration      1(   4)  ---------------------------------------


    POTLOK:  cpu time      1.4676: real time      1.4718
    SETDIJ:  cpu time      1.8632: real time      1.8642
    EDDIAG:  cpu time     45.1103: real time     45.1358
     EDDAV:  cpu time    211.9754: real time    212.0988
       DOS:  cpu time      0.0057: real time      0.0057
    CHARGE:  cpu time     55.7930: real time     55.8542
    MIXING:  cpu time      0.0345: real time      0.0345
    --------------------------------------------
      LOOP:  cpu time    316.2495: real time    316.4650

 eigenvalue-minimisations  :  2704
 total energy-change (2. order) : 0.5882573E+00  (-0.1145135E+00)
 number of electron     511.9999999 magnetization 
 augmentation part      -28.2706565 magnetization 

 Broyden mixing:
  rms(total) = 0.51514E-01    rms(broyden)= 0.26568E+01
  rms(prec ) = 0.58449E-01
  weight for this iteration     100.00
  WARNING: grid for Broyden might be to small

 eigenvalues of (default mixing * dielectric matrix)
  average eigenvalue GAMMA=   1.1573
  2.1037  0.7441  0.6242

 Free energy of the ion-electron system (eV)
  ---------------------------------------------------
  alpha Z        PSCENC =       115.86085667
  Ewald energy   TEWEN  =    133686.51157475
  -Hartree energ DENC   =   -146701.10364912
  -exchange      EXHF   =         0.00000000
  -V(xc)+E(xc)   XCENC  =      -610.88576923
  PAW double counting   =     84261.37127624   -82986.52576427
  entropy T*S    EENTRO =        -0.09042145
  eigenvalues    EBANDS =     -2214.50295204
  atomic energy  EATOM  =     13192.55497936
  Solvation  Ediel_sol  =         0.00000000
  ---------------------------------------------------
  free energy    TOTEN  =     -1256.80986909 eV

  energy without entropy =    -1256.71944764  energy(sigma->0) =    -1256.76465837


--------------------------------------------------------------------------------------------------------




--------------------------------------- Iteration      1(   5)  ---------------------------------------


    POTLOK:  cpu time      1.4735: real time      1.4741
    SETDIJ:  cpu time      1.8640: real time      1.8649
    EDDIAG:  cpu time     45.1414: real time     45.1652
     EDDAV:  cpu time    234.3452: real time    234.4903
       DOS:  cpu time      0.0031: real time      0.0031
    CHARGE:  cpu time     55.8403: real time     55.8876
    MIXING:  cpu time      0.0349: real time      0.0349
    --------------------------------------------
      LOOP:  cpu time    338.7024: real time    338.9200

 eigenvalue-minimisations  :  3192
 total energy-change (2. order) :-0.5272447E-01  (-0.9001419E-02)
 number of electron     511.9999999 magnetization 
 augmentation part      -28.2730936 magnetization 

 Broyden mixing:
  rms(total) = 0.32875E-01    rms(broyden)= 0.41376E+00
  rms(prec ) = 0.33662E-01
  weight for this iteration     100.00
  WARNING: grid for Broyden might be to small

 eigenvalues of (default mixing * dielectric matrix)
  average eigenvalue GAMMA=   1.2011
  2.5497  0.9633  0.6640  0.6276

 Free energy of the ion-electron system (eV)
  ---------------------------------------------------
  alpha Z        PSCENC =       115.86085667
  Ewald energy   TEWEN  =    133686.51157475
  -Hartree energ DENC   =   -146701.20257422
  -exchange      EXHF   =         0.00000000
  -V(xc)+E(xc)   XCENC  =      -612.41098049
  PAW double counting   =     83401.11280638   -82126.21007371
  entropy T*S    EENTRO =        -0.08953137
  eigenvalues    EBANDS =     -2212.98965093
  atomic energy  EATOM  =     13192.55497936
  Solvation  Ediel_sol  =         0.00000000
  ---------------------------------------------------
  free energy    TOTEN  =     -1256.86259356 eV

  energy without entropy =    -1256.77306219  energy(sigma->0) =    -1256.81782787


--------------------------------------------------------------------------------------------------------




--------------------------------------- Iteration      1(   6)  ---------------------------------------


    POTLOK:  cpu time      1.4620: real time      1.4712
    SETDIJ:  cpu time      1.8779: real time      1.8791
    EDDIAG:  cpu time     45.1688: real time     45.1950
     EDDAV:  cpu time    222.1624: real time    222.3015
       DOS:  cpu time      0.0050: real time      0.0050
    CHARGE:  cpu time     55.7976: real time     55.8348
    MIXING:  cpu time      0.0352: real time      0.0352
    --------------------------------------------
      LOOP:  cpu time    326.5088: real time    326.7217

 eigenvalue-minimisations  :  2920
 total energy-change (2. order) :-0.9706457E-02  (-0.2591270E-02)
 number of electron     511.9999999 magnetization 
 augmentation part      -28.2664900 magnetization 

 Broyden mixing:
  rms(total) = 0.84149E-02    rms(broyden)= 0.61247E+00
  rms(prec ) = 0.10502E-01
  weight for this iteration     100.00
  WARNING: grid for Broyden might be to small

 eigenvalues of (default mixing * dielectric matrix)
  average eigenvalue GAMMA=   1.1780
  2.5608  1.2288  0.8252  0.6442  0.6312

 Free energy of the ion-electron system (eV)
  ---------------------------------------------------
  alpha Z        PSCENC =       115.86085667
  Ewald energy   TEWEN  =    133686.51157475
  -Hartree energ DENC   =   -146700.59985793
  -exchange      EXHF   =         0.00000000
  -V(xc)+E(xc)   XCENC  =      -612.04085224
  PAW double counting   =     83275.13582154   -82000.16740340
  entropy T*S    EENTRO =        -0.08921802
  eigenvalues    EBANDS =     -2214.03820076
  atomic energy  EATOM  =     13192.55497936
  Solvation  Ediel_sol  =         0.00000000
  ---------------------------------------------------
  free energy    TOTEN  =     -1256.87230002 eV

  energy without entropy =    -1256.78308200  energy(sigma->0) =    -1256.82769101


--------------------------------------------------------------------------------------------------------




--------------------------------------- Iteration      1(   7)  ---------------------------------------


    POTLOK:  cpu time      1.5572: real time      1.5584
    SETDIJ:  cpu time      1.8579: real time      1.8934
    EDDIAG:  cpu time     45.1155: real time     45.1405
     EDDAV:  cpu time    236.3079: real time    236.4548
       DOS:  cpu time      0.0043: real time      0.0043
    CHARGE:  cpu time     55.8482: real time     55.9866
    MIXING:  cpu time      0.0353: real time      0.0353
    --------------------------------------------
      LOOP:  cpu time    340.7263: real time    341.0733

 eigenvalue-minimisations  :  3232
 total energy-change (2. order) :-0.1383787E-03  (-0.2745556E-03)
 number of electron     511.9999999 magnetization 
 augmentation part      -28.2672304 magnetization 

 Broyden mixing:
  rms(total) = 0.29460E-02    rms(broyden)= 0.14073E+00
  rms(prec ) = 0.33698E-02
  weight for this iteration     100.00
  WARNING: grid for Broyden might be to small

 eigenvalues of (default mixing * dielectric matrix)
  average eigenvalue GAMMA=   1.3413
  2.7125  2.2790  1.0265  0.7577  0.6285  0.6434

 Free energy of the ion-electron system (eV)
  ---------------------------------------------------
  alpha Z        PSCENC =       115.86085667
  Ewald energy   TEWEN  =    133686.51157475
  -Hartree energ DENC   =   -146700.95429079
  -exchange      EXHF   =         0.00000000
  -V(xc)+E(xc)   XCENC  =      -612.18259236
  PAW double counting   =     83385.19736717   -82110.21433932
  entropy T*S    EENTRO =        -0.08937401
  eigenvalues    EBANDS =     -2213.55661986
  atomic energy  EATOM  =     13192.55497936
  Solvation  Ediel_sol  =         0.00000000
  ---------------------------------------------------
  free energy    TOTEN  =     -1256.87243840 eV

  energy without entropy =    -1256.78306438  energy(sigma->0) =    -1256.82775139


--------------------------------------------------------------------------------------------------------




--------------------------------------- Iteration      1(   8)  ---------------------------------------


    POTLOK:  cpu time      1.4718: real time      1.4728
    SETDIJ:  cpu time      1.8654: real time      1.8663
    EDDIAG:  cpu time     45.1140: real time     45.1402
     EDDAV:  cpu time    226.8416: real time    226.9804
       DOS:  cpu time      0.0044: real time      0.0044
    CHARGE:  cpu time     56.1124: real time     56.1409
    MIXING:  cpu time      0.0360: real time      0.0360
    --------------------------------------------
      LOOP:  cpu time    331.4457: real time    331.6411

 eigenvalue-minimisations  :  3024
 total energy-change (2. order) : 0.3715933E-05  (-0.5062175E-04)
 number of electron     511.9999999 magnetization 
 augmentation part      -28.2684785 magnetization 

 Broyden mixing:
  rms(total) = 0.22252E-02    rms(broyden)= 0.84183E-01
  rms(prec ) = 0.24294E-02
  weight for this iteration     100.00
  WARNING: grid for Broyden might be to small

 eigenvalues of (default mixing * dielectric matrix)
  average eigenvalue GAMMA=   1.6110
  4.6367  2.5481  1.1892  0.9162  0.7190  0.6422  0.6258

 Free energy of the ion-electron system (eV)
  ---------------------------------------------------
  alpha Z        PSCENC =       115.86085667
  Ewald energy   TEWEN  =    133686.51157475
  -Hartree energ DENC   =   -146700.90558386
  -exchange      EXHF   =         0.00000000
  -V(xc)+E(xc)   XCENC  =      -612.36539894
  PAW double counting   =     83401.10383506   -82126.12326846
  entropy T*S    EENTRO =        -0.08962396
  eigenvalues    EBANDS =     -2213.41980531
  atomic energy  EATOM  =     13192.55497936
  Solvation  Ediel_sol  =         0.00000000
  ---------------------------------------------------
  free energy    TOTEN  =     -1256.87243468 eV

  energy without entropy =    -1256.78281073  energy(sigma->0) =    -1256.82762270


--------------------------------------------------------------------------------------------------------




--------------------------------------- Iteration      1(   9)  ---------------------------------------


    POTLOK:  cpu time      1.4644: real time      1.4706
    SETDIJ:  cpu time      1.8638: real time      1.8649
    EDDIAG:  cpu time     45.1067: real time     45.1351
     EDDAV:  cpu time    221.4502: real time    221.5810
       DOS:  cpu time      0.0038: real time      0.0039
    CHARGE:  cpu time     55.7401: real time     55.7689
    MIXING:  cpu time      0.0399: real time      0.0400
    --------------------------------------------
      LOOP:  cpu time    325.6692: real time    325.8646

 eigenvalue-minimisations  :  2912
 total energy-change (2. order) :-0.5731241E-04  (-0.1322443E-04)
 number of electron     511.9999999 magnetization 
 augmentation part      -28.2682699 magnetization 

 Broyden mixing:
  rms(total) = 0.75152E-03    rms(broyden)= 0.64506E-01
  rms(prec ) = 0.10270E-02
  weight for this iteration     100.00
  WARNING: grid for Broyden might be to small

 eigenvalues of (default mixing * dielectric matrix)
  average eigenvalue GAMMA=   1.9147
  7.2508  2.5753  1.7009  1.0272  0.8150  0.6891  0.6245  0.6347

 Free energy of the ion-electron system (eV)
  ---------------------------------------------------
  alpha Z        PSCENC =       115.86085667
  Ewald energy   TEWEN  =    133686.51157475
  -Hartree energ DENC   =   -146700.46492116
  -exchange      EXHF   =         0.00000000
  -V(xc)+E(xc)   XCENC  =      -612.36753532
  PAW double counting   =     83375.88598196   -82100.90142268
  entropy T*S    EENTRO =        -0.08970997
  eigenvalues    EBANDS =     -2213.86229562
  atomic energy  EATOM  =     13192.55497936
  Solvation  Ediel_sol  =         0.00000000
  ---------------------------------------------------
  free energy    TOTEN  =     -1256.87249199 eV

  energy without entropy =    -1256.78278203  energy(sigma->0) =    -1256.82763701


--------------------------------------------------------------------------------------------------------




--------------------------------------- Iteration      1(  10)  ---------------------------------------


    POTLOK:  cpu time      1.4705: real time      1.4737
    SETDIJ:  cpu time      1.8674: real time      1.8688
    EDDIAG:  cpu time     45.1161: real time     45.1456
     EDDAV:  cpu time    224.4492: real time    224.5829
       DOS:  cpu time      0.0036: real time      0.0036
    CHARGE:  cpu time     55.7640: real time     55.8008
    MIXING:  cpu time      0.0368: real time      0.0368
    --------------------------------------------
      LOOP:  cpu time    328.7075: real time    328.9120

 eigenvalue-minimisations  :  2976
 total energy-change (2. order) :-0.1568737E-04  (-0.2618582E-05)
 number of electron     511.9999999 magnetization 
 augmentation part      -28.2682830 magnetization 

 Broyden mixing:
  rms(total) = 0.34390E-03    rms(broyden)= 0.53227E-01
  rms(prec ) = 0.66330E-03
  weight for this iteration     100.00
  WARNING: grid for Broyden might be to small

 eigenvalues of (default mixing * dielectric matrix)
  average eigenvalue GAMMA=   2.0102
  8.6332  2.5811  2.0778  1.0302  1.0302  0.7972  0.6840  0.6261  0.6318

 Free energy of the ion-electron system (eV)
  ---------------------------------------------------
  alpha Z        PSCENC =       115.86085667
  Ewald energy   TEWEN  =    133686.51157475
  -Hartree energ DENC   =   -146700.13365001
  -exchange      EXHF   =         0.00000000
  -V(xc)+E(xc)   XCENC  =      -612.36935631
  PAW double counting   =     83379.11703617   -82104.13098793
  entropy T*S    EENTRO =        -0.08970460
  eigenvalues    EBANDS =     -2214.19325578
  atomic energy  EATOM  =     13192.55497936
  Solvation  Ediel_sol  =         0.00000000
  ---------------------------------------------------
  free energy    TOTEN  =     -1256.87250768 eV

  energy without entropy =    -1256.78280308  energy(sigma->0) =    -1256.82765538


--------------------------------------------------------------------------------------------------------




--------------------------------------- Iteration      1(  11)  ---------------------------------------


    POTLOK:  cpu time      1.4711: real time      1.4716
    SETDIJ:  cpu time      1.8643: real time      1.8653
    EDDIAG:  cpu time     45.1472: real time     45.1725
     EDDAV:  cpu time    213.1045: real time    213.2299
       DOS:  cpu time      0.0039: real time      0.0039
    CHARGE:  cpu time     55.6899: real time     55.7316
    MIXING:  cpu time      0.0376: real time      0.0376
    --------------------------------------------
      LOOP:  cpu time    317.3185: real time    317.5125

 eigenvalue-minimisations  :  2728
 total energy-change (2. order) :-0.1122948E-04  (-0.1187441E-05)
 number of electron     511.9999999 magnetization 
 augmentation part      -28.2684464 magnetization 

 Broyden mixing:
  rms(total) = 0.19390E-03    rms(broyden)= 0.43658E-01
  rms(prec ) = 0.50032E-03
  weight for this iteration     100.00
  WARNING: grid for Broyden might be to small

 eigenvalues of (default mixing * dielectric matrix)
  average eigenvalue GAMMA=   2.1086
  9.7408  2.6339  2.6339  1.4842  1.0629  0.8699  0.7373  0.6666  0.6282  0.6282

 Free energy of the ion-electron system (eV)
  ---------------------------------------------------
  alpha Z        PSCENC =       115.86085667
  Ewald energy   TEWEN  =    133686.51157475
  -Hartree energ DENC   =   -146699.88361930
  -exchange      EXHF   =         0.00000000
  -V(xc)+E(xc)   XCENC  =      -612.39227186
  PAW double counting   =     83381.72337218   -82106.73828647
  entropy T*S    EENTRO =        -0.08969430
  eigenvalues    EBANDS =     -2214.41942995
  atomic energy  EATOM  =     13192.55497936
  Solvation  Ediel_sol  =         0.00000000
  ---------------------------------------------------
  free energy    TOTEN  =     -1256.87251891 eV

  energy without entropy =    -1256.78282461  energy(sigma->0) =    -1256.82767176


--------------------------------------------------------------------------------------------------------




--------------------------------------- Iteration      1(  12)  ---------------------------------------


    POTLOK:  cpu time      1.4691: real time      1.4705
    SETDIJ:  cpu time      1.8641: real time      1.8652
    EDDIAG:  cpu time     45.1228: real time     45.1520
     EDDAV:  cpu time    207.5068: real time    207.6268
       DOS:  cpu time      0.0043: real time      0.0043
    CHARGE:  cpu time     55.8281: real time     55.8594
    MIXING:  cpu time      0.0383: real time      0.0383
    --------------------------------------------
      LOOP:  cpu time    311.8334: real time    312.0165

 eigenvalue-minimisations  :  2608
 total energy-change (2. order) :-0.9973344E-05  (-0.9934478E-06)
 number of electron     511.9999999 magnetization 
 augmentation part      -28.2684809 magnetization 

 Broyden mixing:
  rms(total) = 0.17458E-03    rms(broyden)= 0.30467E-01
  rms(prec ) = 0.36463E-03
  weight for this iteration     100.00
  WARNING: grid for Broyden might be to small

 eigenvalues of (default mixing * dielectric matrix)
  average eigenvalue GAMMA=   2.0403
  9.9476  2.7319  2.7319  1.5722  1.0417  0.9828  0.8090  0.7151  0.6553  0.6249
  0.6311

 Free energy of the ion-electron system (eV)
  ---------------------------------------------------
  alpha Z        PSCENC =       115.86085667
  Ewald energy   TEWEN  =    133686.51157475
  -Hartree energ DENC   =   -146699.53759491
  -exchange      EXHF   =         0.00000000
  -V(xc)+E(xc)   XCENC  =      -612.39878903
  PAW double counting   =     83378.80252561   -82103.81792877
  entropy T*S    EENTRO =        -0.08969323
  eigenvalues    EBANDS =     -2214.75845934
  atomic energy  EATOM  =     13192.55497936
  Solvation  Ediel_sol  =         0.00000000
  ---------------------------------------------------
  free energy    TOTEN  =     -1256.87252888 eV

  energy without entropy =    -1256.78283565  energy(sigma->0) =    -1256.82768227


--------------------------------------------------------------------------------------------------------




--------------------------------------- Iteration      1(  13)  ---------------------------------------


    POTLOK:  cpu time      1.4699: real time      1.4714
    SETDIJ:  cpu time      1.8659: real time      1.8671
    EDDIAG:  cpu time     45.1048: real time     45.1360
     EDDAV:  cpu time    210.6258: real time    210.7497
       DOS:  cpu time      0.0076: real time      0.0077
    CHARGE:  cpu time     56.0153: real time     56.0551
    MIXING:  cpu time      0.0419: real time      0.0420
    --------------------------------------------
      LOOP:  cpu time    315.1312: real time    315.3289

 eigenvalue-minimisations  :  2680
 total energy-change (2. order) :-0.1180595E-04  (-0.1514610E-05)
 number of electron     511.9999999 magnetization 
 augmentation part      -28.2684172 magnetization 

 Broyden mixing:
  rms(total) = 0.18657E-03    rms(broyden)= 0.16962E-01
  rms(prec ) = 0.25896E-03
  weight for this iteration     100.00
  WARNING: grid for Broyden might be to small

 eigenvalues of (default mixing * dielectric matrix)
  average eigenvalue GAMMA=   1.9853
  9.9756  2.7952  2.7952  1.6297  1.3090  1.0385  0.8702  0.7959  0.7043  0.6281
  0.6281  0.6541

 Free energy of the ion-electron system (eV)
  ---------------------------------------------------
  alpha Z        PSCENC =       115.86085667
  Ewald energy   TEWEN  =    133686.51157475
  -Hartree energ DENC   =   -146699.19998634
  -exchange      EXHF   =         0.00000000
  -V(xc)+E(xc)   XCENC  =      -612.39159195
  PAW double counting   =     83380.27272082   -82105.28810860
  entropy T*S    EENTRO =        -0.08971880
  eigenvalues    EBANDS =     -2215.10326661
  atomic energy  EATOM  =     13192.55497936
  Solvation  Ediel_sol  =         0.00000000
  ---------------------------------------------------
  free energy    TOTEN  =     -1256.87254069 eV

  energy without entropy =    -1256.78282189  energy(sigma->0) =    -1256.82768129


--------------------------------------------------------------------------------------------------------




--------------------------------------- Iteration      1(  14)  ---------------------------------------


    POTLOK:  cpu time      1.4639: real time      1.4742
    SETDIJ:  cpu time      1.8670: real time      1.8687
    EDDIAG:  cpu time     45.1454: real time     45.1761
     EDDAV:  cpu time    205.0184: real time    205.1439
       DOS:  cpu time      0.0043: real time      0.0043
    CHARGE:  cpu time     55.8003: real time     55.8324
    MIXING:  cpu time      0.0392: real time      0.0392
    --------------------------------------------
      LOOP:  cpu time    309.3384: real time    309.5388

 eigenvalue-minimisations  :  2552
 total energy-change (2. order) :-0.1986467E-05  (-0.7279135E-06)
 number of electron     511.9999999 magnetization 
 augmentation part      -28.2684407 magnetization 

 Broyden mixing:
  rms(total) = 0.11829E-03    rms(broyden)= 0.75276E-02
  rms(prec ) = 0.14577E-03
  weight for this iteration     100.00
  WARNING: grid for Broyden might be to small

 eigenvalues of (default mixing * dielectric matrix)
  average eigenvalue GAMMA=   1.9799
  9.9892  3.0611  2.6992  2.1815  1.5434  1.0457  1.0180  0.8587  0.7544  0.6880
  0.6241  0.6289  0.6471

 Free energy of the ion-electron system (eV)
  ---------------------------------------------------
  alpha Z        PSCENC =       115.86085667
  Ewald energy   TEWEN  =    133686.51157475
  -Hartree energ DENC   =   -146698.99599759
  -exchange      EXHF   =         0.00000000
  -V(xc)+E(xc)   XCENC  =      -612.39328037
  PAW double counting   =     83381.41712313   -82106.43282409
  entropy T*S    EENTRO =        -0.08973137
  eigenvalues    EBANDS =     -2215.30524317
  atomic energy  EATOM  =     13192.55497936
  Solvation  Ediel_sol  =         0.00000000
  ---------------------------------------------------
  free energy    TOTEN  =     -1256.87254268 eV

  energy without entropy =    -1256.78281131  energy(sigma->0) =    -1256.82767699


--------------------------------------------------------------------------------------------------------




--------------------------------------- Iteration      1(  15)  ---------------------------------------


    POTLOK:  cpu time      1.4689: real time      1.4701
    SETDIJ:  cpu time      1.8651: real time      1.8663
    EDDIAG:  cpu time     45.0601: real time     45.0897
     EDDAV:  cpu time    178.8002: real time    178.9056
       DOS:  cpu time      0.0044: real time      0.0044
    --------------------------------------------
      LOOP:  cpu time    227.1992: real time    227.3365

 eigenvalue-minimisations  :  1976
 total energy-change (2. order) : 0.7343624E-06  (-0.1985276E-06)
 number of electron     511.9999999 magnetization 
 augmentation part      -28.2684407 magnetization 

 Free energy of the ion-electron system (eV)
  ---------------------------------------------------
  alpha Z        PSCENC =       115.86085667
  Ewald energy   TEWEN  =    133686.51157475
  -Hartree energ DENC   =   -146698.92439145
  -exchange      EXHF   =         0.00000000
  -V(xc)+E(xc)   XCENC  =      -612.39585126
  PAW double counting   =     83380.27549955   -82105.29117192
  entropy T*S    EENTRO =        -0.08973320
  eigenvalues    EBANDS =     -2215.37430445
  atomic energy  EATOM  =     13192.55497936
  Solvation  Ediel_sol  =         0.00000000
  ---------------------------------------------------
  free energy    TOTEN  =     -1256.87254194 eV

  energy without entropy =    -1256.78280874  energy(sigma->0) =    -1256.82767534


--------------------------------------------------------------------------------------------------------




 average (electrostatic) potential at core
  the test charge radii are     0.9892
  (the norm of the test charge is              1.0000)
       1 -91.2923       2 -91.2923       3 -91.2030       4 -91.2310       5 -91.2030
       6 -90.8287       7 -91.2923       8 -91.2923       9 -91.2030      10 -91.2310
      11 -91.2030      12 -90.8287      13 -91.0544      14 -91.0803      15 -91.0951
      16 -91.0803      17 -91.0732      18 -91.0973      19 -91.0732      20 -91.0544
      21 -91.0732      22 -91.0803      23 -91.0951      24 -91.0803      25 -91.0732
      26 -91.0973      27 -91.0881      28 -91.0881      29 -91.2101      30 -91.2031
      31 -91.2031      32 -91.2101      33 -91.2923      34 -91.0732      35 -91.0973
      36 -91.0732      37 -91.0803      38 -91.0951      39 -91.0803      40 -91.0881
      41 -91.2923      42 -91.0732      43 -91.0973      44 -91.0732      45 -91.0803
      46 -91.0951      47 -91.0803      48 -91.0881      49 -91.2030      50 -91.2030
      51 -91.2311      52 -91.2030      53 -91.2923      54 -91.2923      55 -91.2311
      56 -91.2030      57 -91.0544      58 -91.0544      59 -90.8287      60 -90.8287
      61 -91.2101      62 -91.2031      63 -91.2101      64 -91.2031      65 -91.2923
      66 -91.2923      67 -91.2030      68 -91.2310      69 -91.2030      70 -90.8287
      71 -91.2923      72 -91.2923      73 -91.2030      74 -91.2310      75 -91.2030
      76 -90.8287      77 -91.0544      78 -91.0803      79 -91.0951      80 -91.0803
      81 -91.0732      82 -91.0973      83 -91.0732      84 -91.0544      85 -91.0732
      86 -91.0803      87 -91.0951      88 -91.0803      89 -91.0732      90 -91.0973
      91 -91.0881      92 -91.0881      93 -91.2101      94 -91.2031      95 -91.2031
      96 -91.2101      97 -91.2923      98 -91.0732      99 -91.0973     100 -91.0732
     101 -91.0803     102 -91.0951     103 -91.0803     104 -91.0881     105 -91.2923
     106 -91.0732     107 -91.0973     108 -91.0732     109 -91.0803     110 -91.0951
     111 -91.0803     112 -91.0881     113 -91.2030     114 -91.2030     115 -91.2311
     116 -91.2030     117 -91.2923     118 -91.2923     119 -91.2311     120 -91.2030
     121 -91.0544     122 -91.0544     123 -90.8287     124 -90.8287     125 -91.2101
     126 -91.2031     127 -91.2101     128 -91.2031



 E-fermi :   0.8483     XC(G=0):  -5.6120     alpha+bet : -6.4492

 WARNING: Could not determine fundamental gap because eigenvalues are not
     sorted.

 Fermi energy:         0.8483288724

 k-point     1 :       0.0000    0.0000    0.0000
  band No.  band energies     occupation 
      1     -11.5713      2.00000
      2     -11.4066      2.00000
      3     -11.1342      2.00000
      4     -10.7278      2.00000
      5     -10.4661      2.00000
      6     -10.4661      2.00000
      7     -10.4415      2.00000
      8     -10.4415      2.00000
      9     -10.3576      2.00000
     10     -10.3576      2.00000
     11     -10.2697      2.00000
     12     -10.2697      2.00000
     13     -10.1698      2.00000
     14     -10.1213      2.00000
     15     -10.1213      2.00000
     16      -9.9737      2.00000
     17      -9.9737      2.00000
     18      -9.7451      2.00000
     19      -9.7451      2.00000
     20      -9.5552      2.00000
     21      -9.5552      2.00000
     22      -9.4797      2.00000
     23      -9.4791      2.00000
     24      -9.4636      2.00000
     25      -9.4638      2.00000
     26      -9.4500      2.00000
     27      -9.4061      2.00000
     28      -9.3958      2.00000
     29      -9.3915      2.00000
     30      -9.3471      2.00000
     31      -9.3177      2.00000
     32      -9.2593      2.00000
     33      -9.2580      2.00000
     34      -9.2356      2.00000
[...]
   -.326E+00 0.326E+00 -.443E+02   0.254E+00 -.254E+00 0.444E+02   0.605E-01 -.605E-01 -.890E-01   0.148E-05 -.148E-05 -.695E-05
   -.513E-01 0.513E-01 -.402E+03   0.397E-01 -.397E-01 0.403E+03   0.800E-02 -.800E-02 -.123E+01   0.281E-06 -.281E-06 -.303E-04
   -.513E-01 0.513E-01 -.402E+03   0.397E-01 -.397E-01 0.403E+03   0.800E-02 -.800E-02 -.123E+01   0.281E-06 -.281E-06 -.303E-04
   0.145E+02 -.145E+02 -.673E+03   -.137E+02 0.137E+02 0.670E+03   -.457E+00 0.457E+00 0.291E+01   -.438E-04 0.438E-04 0.553E-03
   -.145E+02 0.145E+02 -.673E+03   0.137E+02 -.137E+02 0.670E+03   0.437E+00 -.437E+00 0.287E+01   0.741E-04 -.741E-04 0.593E-03
   0.145E+02 -.145E+02 -.673E+03   -.137E+02 0.137E+02 0.670E+03   -.457E+00 0.457E+00 0.291E+01   -.438E-04 0.438E-04 0.553E-03
   -.145E+02 0.145E+02 -.673E+03   0.137E+02 -.137E+02 0.670E+03   0.437E+00 -.437E+00 0.287E+01   0.741E-04 -.741E-04 0.593E-03
 -----------------------------------------------------------------------------------------------
   0.193E-02 -.194E-02 -.947E-03   0.746E-13 0.112E-12 0.250E-11   -.500E-15 -.167E-15 0.000E+00   0.668E-09 -.787E-09 0.120E-08


 POSITION                                       TOTAL-FORCE (eV/Angst)
 -----------------------------------------------------------------------------------
      1.35709      1.35670     11.35325         0.001532     -0.003185     -0.185822
      4.07330      4.07291     11.35325         0.003185     -0.001532     -0.185822
     10.79080      2.64552     12.73761         0.010813      0.014112     -0.110015
      1.35825      4.07175     14.02103        -0.001951      0.001951     -0.194488
      2.78448      0.06920     12.73761        -0.014112     -0.010813     -0.110015
      4.07171      1.35829     14.18954         0.003177     -0.003177     -0.013494
      6.78709      1.35670     11.35325         0.001532     -0.003185     -0.185822
      9.50330      4.07291     11.35325         0.003185     -0.001532     -0.185822
      5.36080      2.64552     12.73761         0.010813      0.014112     -0.110015
      6.78825      4.07175     14.02103        -0.001951      0.001951     -0.194488
      8.21448      0.06920     12.73761        -0.014112     -0.010813     -0.110015
      9.50171      1.35829     14.18954         0.003177     -0.003177     -0.013494
      9.49795      1.36205     19.51823         0.010293     -0.010293      0.000649
      1.35605      1.35602     16.80362        -0.002410     -0.002891     -0.005399
      2.68454      2.74546     15.45381         0.052640     -0.052640      0.039539
      4.07398      4.07395     16.80362         0.002891      0.002410     -0.005399
     10.85046      2.70546     18.15498        -0.012170     -0.011738     -0.007141
      1.36208      4.06792     19.49338        -0.009338      0.009338      0.002552
      2.72454      0.00954     18.15498         0.011738      0.012170     -0.007141
      4.06795      1.36205     19.51823         0.010293     -0.010293      0.000649
      8.15454      0.00954     18.15498         0.011738      0.012170     -0.007141
      6.78605      1.35602     16.80362        -0.002410     -0.002891     -0.005399
      8.11454      2.74546     15.45381         0.052640     -0.052640      0.039539
      9.50398      4.07395     16.80362         0.002891      0.002410     -0.005399
      5.42046      2.70546     18.15498        -0.012170     -0.011738     -0.007141
      6.79208      4.06792     19.49338        -0.009338      0.009338      0.002552
      0.03033      5.39967     15.44992        -0.052399      0.052399      0.038840
      5.46033      5.39967     15.44992        -0.052399      0.052399      0.038840
      7.60953      3.25047     10.25131        -0.444546      0.444546      0.315002
      5.96456      4.89544     10.24674         0.441834     -0.441834      0.309438
      0.53456      4.89544     10.24674         0.441834     -0.441834      0.309438
      2.17953      3.25047     10.25131        -0.444546      0.444546      0.315002
      8.14541      0.00080     29.00925        -0.001532      0.003185      0.185822
      1.34796      1.34796     22.20752        -0.011738     -0.012170      0.007141
      2.71042      2.71958     20.86912         0.009338     -0.009338     -0.002552
      4.08204      4.08204     22.20752         0.012170      0.011738      0.007141
     10.85852      2.71355     23.55888        -0.002891     -0.002410      0.005399
      1.38796      4.04204     24.90869        -0.052640      0.052640     -0.039539
      2.71645      0.00148     23.55888         0.002410      0.002891      0.005399
      4.04217      1.38783     24.91258         0.052399     -0.052399     -0.038840
      5.42920      2.71459     29.00925        -0.003185      0.001532      0.185822
      6.77796      1.34796     22.20752        -0.011738     -0.012170      0.007141
      8.14042      2.71958     20.86912         0.009338     -0.009338     -0.002552
      9.51204      4.08204     22.20752         0.012170      0.011738      0.007141
      5.42852      2.71355     23.55888        -0.002891     -0.002410      0.005399
      6.81796      4.04204     24.90869        -0.052640      0.052640     -0.039539
      8.14645      0.00148     23.55888         0.002410      0.002891      0.005399
      9.47217      1.38783     24.91258         0.052399     -0.052399     -0.038840
      9.57170      4.14198     27.62489        -0.010813     -0.014112      0.110015
      1.28802      1.28830     27.62489         0.014112      0.010813      0.110015
      2.71425      2.71575     26.34147         0.001951     -0.001951      0.194488
      4.14170      4.14198     27.62489        -0.010813     -0.014112      0.110015
     10.85920      2.71459     29.00925        -0.003185      0.001532      0.185822
      2.71541      0.00080     29.00925        -0.001532      0.003185      0.185822
      8.14425      2.71575     26.34147         0.001951     -0.001951      0.194488
      6.71802      1.28830     27.62489         0.014112      0.010813      0.110015
      0.00455      5.42545     20.84427        -0.010293      0.010293     -0.000649
      5.43455      5.42545     20.84427        -0.010293      0.010293     -0.000649
      0.00079      5.42921     26.17296        -0.003177      0.003177      0.013494
      5.43079      5.42921     26.17296        -0.003177      0.003177      0.013494
      1.89297      3.53703     30.11119         0.444546     -0.444546     -0.315002
      8.96794      1.89206     30.11576        -0.441834      0.441834     -0.309438
      7.32297      3.53703     30.11119         0.444546     -0.444546     -0.315002
      3.53794      1.89206     30.11576        -0.441834      0.441834     -0.309438
      1.35709      6.78670     11.35325         0.001532     -0.003185     -0.185822
      4.07330      9.50291     11.35325         0.003185     -0.001532     -0.185822
     10.79080      8.07552     12.73761         0.010813      0.014112     -0.110015
      1.35825      9.50175     14.02103        -0.001951      0.001951     -0.194488
      2.78448      5.49920     12.73761        -0.014112     -0.010813     -0.110015
      4.07171      6.78829     14.18954         0.003177     -0.003177     -0.013494
      6.78709      6.78670     11.35325         0.001532     -0.003185     -0.185822
      9.50330      9.50291     11.35325         0.003185     -0.001532     -0.185822
      5.36080      8.07552     12.73761         0.010813      0.014112     -0.110015
      6.78825      9.50175     14.02103        -0.001951      0.001951     -0.194488
      8.21448      5.49920     12.73761        -0.014112     -0.010813     -0.110015
      9.50171      6.78829     14.18954         0.003177     -0.003177     -0.013494
      9.49795      6.79205     19.51823         0.010293     -0.010293      0.000649
      1.35605      6.78602     16.80362        -0.002410     -0.002891     -0.005399
      2.68454      8.17546     15.45381         0.052640     -0.052640      0.039539
      4.07398      9.50395     16.80362         0.002891      0.002410     -0.005399
     10.85046      8.13546     18.15498        -0.012170     -0.011738     -0.007141
      1.36208      9.49792     19.49338        -0.009338      0.009338      0.002552
      2.72454      5.43954     18.15498         0.011738      0.012170     -0.007141
      4.06795      6.79205     19.51823         0.010293     -0.010293      0.000649
      8.15454      5.43954     18.15498         0.011738      0.012170     -0.007141
      6.78605      6.78602     16.80362        -0.002410     -0.002891     -0.005399
      8.11454      8.17546     15.45381         0.052640     -0.052640      0.039539
      9.50398      9.50395     16.80362         0.002891      0.002410     -0.005399
      5.42046      8.13546     18.15498        -0.012170     -0.011738     -0.007141
      6.79208      9.49792     19.49338        -0.009338      0.009338      0.002552
      0.03033     10.82967     15.44992        -0.052399      0.052399      0.038840
      5.46033     10.82967     15.44992        -0.052399      0.052399      0.038840
      7.60953      8.68047     10.25131        -0.444546      0.444546      0.315002
      5.96456     10.32544     10.24674         0.441834     -0.441834      0.309438
      0.53456     10.32544     10.24674         0.441834     -0.441834      0.309438
      2.17953      8.68047     10.25131        -0.444546      0.444546      0.315002
      8.14541      5.43080     29.00925        -0.001532      0.003185      0.185822
      1.34796      6.77796     22.20752        -0.011738     -0.012170      0.007141
      2.71042      8.14958     20.86912         0.009338     -0.009338     -0.002552
      4.08204      9.51204     22.20752         0.012170      0.011738      0.007141
     10.85852      8.14355     23.55888        -0.002891     -0.002410      0.005399
      1.38796      9.47204     24.90869        -0.052640      0.052640     -0.039539
      2.71645      5.43148     23.55888         0.002410      0.002891      0.005399
      4.04217      6.81783     24.91258         0.052399     -0.052399     -0.038840
      5.42920      8.14459     29.00925        -0.003185      0.001532      0.185822
      6.77796      6.77796     22.20752        -0.011738     -0.012170      0.007141
      8.14042      8.14958     20.86912         0.009338     -0.009338     -0.002552
      9.51204      9.51204     22.20752         0.012170      0.011738      0.007141
      5.42852      8.14355     23.55888        -0.002891     -0.002410      0.005399
      6.81796      9.47204     24.90869        -0.052640      0.052640     -0.039539
      8.14645      5.43148     23.55888         0.002410      0.002891      0.005399
      9.47217      6.81783     24.91258         0.052399     -0.052399     -0.038840
      9.57170      9.57198     27.62489        -0.010813     -0.014112      0.110015
      1.28802      6.71830     27.62489         0.014112      0.010813      0.110015
      2.71425      8.14575     26.34147         0.001951     -0.001951      0.194488
      4.14170      9.57198     27.62489        -0.010813     -0.014112      0.110015
     10.85920      8.14459     29.00925        -0.003185      0.001532      0.185822
      2.71541      5.43080     29.00925        -0.001532      0.003185      0.185822
      8.14425      8.14575     26.34147         0.001951     -0.001951      0.194488
      6.71802      6.71830     27.62489         0.014112      0.010813      0.110015
      0.00455     10.85545     20.84427        -0.010293      0.010293     -0.000649
      5.43455     10.85545     20.84427        -0.010293      0.010293     -0.000649
      0.00079     10.85921     26.17296        -0.003177      0.003177      0.013494
      5.43079     10.85921     26.17296        -0.003177      0.003177      0.013494
      1.89297      8.96703     30.11119         0.444546     -0.444546     -0.315002
      8.96794      7.32206     30.11576        -0.441834      0.441834     -0.309438
      7.32297      8.96703     30.11119         0.444546     -0.444546     -0.315002
      3.53794      7.32206     30.11576        -0.441834      0.441834     -0.309438
 -----------------------------------------------------------------------------------
    total drift:                                0.001932     -0.001936     -0.000947


--------------------------------------------------------------------------------------------------------



  FREE ENERGIE OF THE ION-ELECTRON SYSTEM (eV)
  ---------------------------------------------------
  free  energy   TOTEN  =     -1256.87254194 eV

  energy  without entropy=    -1256.78280874  energy(sigma->0) =    -1256.82767534



--------------------------------------------------------------------------------------------------------


    POTLOK:  cpu time      3.3041: real time      3.3204


--------------------------------------------------------------------------------------------------------


     LOOP+:  cpu time   5286.7398: real time   5290.2469
    4ORBIT:  cpu time      0.0000: real time      0.0000



 total charge

# of ion       s       p       d       tot
------------------------------------------
    1        0.747   0.935   0.000   1.682
    2        0.747   0.935   0.000   1.682
    3        0.755   0.925   0.000   1.680
    4        0.748   0.934   0.000   1.681
    5        0.755   0.925   0.000   1.680
    6        0.749   0.989   0.000   1.739
    7        0.747   0.935   0.000   1.682
    8        0.747   0.935   0.000   1.682
    9        0.755   0.925   0.000   1.680
   10        0.748   0.934   0.000   1.681
   11        0.755   0.925   0.000   1.680
   12        0.749   0.989   0.000   1.739
   13        0.744   0.969   0.000   1.713
   14        0.744   0.964   0.000   1.708
   15        0.744   0.963   0.000   1.707
   16        0.744   0.964   0.000   1.708
   17        0.744   0.966   0.000   1.710
   18        0.744   0.963   0.000   1.707
   19        0.744   0.966   0.000   1.710
   20        0.744   0.969   0.000   1.713
   21        0.744   0.966   0.000   1.710
   22        0.744   0.964   0.000   1.708
   23        0.744   0.963   0.000   1.707
   24        0.744   0.964   0.000   1.708
   25        0.744   0.966   0.000   1.710
   26        0.744   0.963   0.000   1.707
   27        0.744   0.964   0.000   1.708
   28        0.744   0.964   0.000   1.708
   29        0.776   0.886   0.000   1.662
   30        0.776   0.886   0.000   1.662
   31        0.776   0.886   0.000   1.662
   32        0.776   0.886   0.000   1.662
   33        0.747   0.935   0.000   1.682
   34        0.744   0.966   0.000   1.710
   35        0.744   0.963   0.000   1.707
   36        0.744   0.966   0.000   1.710
   37        0.744   0.964   0.000   1.708
   38        0.744   0.963   0.000   1.707
   39        0.744   0.964   0.000   1.708
   40        0.744   0.964   0.000   1.708
   41        0.747   0.935   0.000   1.682
   42        0.744   0.966   0.000   1.710
   43        0.744   0.963   0.000   1.707
   44        0.744   0.966   0.000   1.710
   45        0.744   0.964   0.000   1.708
   46        0.744   0.963   0.000   1.707
   47        0.744   0.964   0.000   1.708
   48        0.744   0.964   0.000   1.708
   49        0.755   0.925   0.000   1.680
   50        0.755   0.925   0.000   1.680
   51        0.748   0.934   0.000   1.681
   52        0.755   0.925   0.000   1.680
   53        0.747   0.935   0.000   1.682
   54        0.747   0.935   0.000   1.682
   55        0.748   0.934   0.000   1.681
   56        0.755   0.925   0.000   1.680
   57        0.744   0.969   0.000   1.713
   58        0.744   0.969   0.000   1.713
   59        0.749   0.989   0.000   1.739
   60        0.749   0.989   0.000   1.739
   61        0.776   0.886   0.000   1.662
   62        0.776   0.886   0.000   1.662
   63        0.776   0.886   0.000   1.662
   64        0.776   0.886   0.000   1.662
   65        0.747   0.935   0.000   1.682
   66        0.747   0.935   0.000   1.682
   67        0.755   0.925   0.000   1.680
   68        0.748   0.934   0.000   1.681
   69        0.755   0.925   0.000   1.680
   70        0.749   0.989   0.000   1.739
   71        0.747   0.935   0.000   1.682
   72        0.747   0.935   0.000   1.682
   73        0.755   0.925   0.000   1.680
   74        0.748   0.934   0.000   1.681
   75        0.755   0.925   0.000   1.680
   76        0.749   0.989   0.000   1.739
   77        0.744   0.969   0.000   1.713
   78        0.744   0.964   0.000   1.708
   79        0.744   0.963   0.000   1.707
   80        0.744   0.964   0.000   1.708
   81        0.744   0.966   0.000   1.710
   82        0.744   0.963   0.000   1.707
   83        0.744   0.966   0.000   1.710
   84        0.744   0.969   0.000   1.713
   85        0.744   0.966   0.000   1.710
   86        0.744   0.964   0.000   1.708
   87        0.744   0.963   0.000   1.707
   88        0.744   0.964   0.000   1.708
   89        0.744   0.966   0.000   1.710
   90        0.744   0.963   0.000   1.707
   91        0.744   0.964   0.000   1.708
   92        0.744   0.964   0.000   1.708
   93        0.776   0.886   0.000   1.662
   94        0.776   0.886   0.000   1.662
   95        0.776   0.886   0.000   1.662
   96        0.776   0.886   0.000   1.662
   97        0.747   0.935   0.000   1.682
   98        0.744   0.966   0.000   1.710
   99        0.744   0.963   0.000   1.707
  100        0.744   0.966   0.000   1.710
  101        0.744   0.964   0.000   1.708
  102        0.744   0.963   0.000   1.707
  103        0.744   0.964   0.000   1.708
  104        0.744   0.964   0.000   1.708
  105        0.747   0.935   0.000   1.682
  106        0.744   0.966   0.000   1.710
  107        0.744   0.963   0.000   1.707
  108        0.744   0.966   0.000   1.710
  109        0.744   0.964   0.000   1.708
  110        0.744   0.963   0.000   1.707
  111        0.744   0.964   0.000   1.708
  112        0.744   0.964   0.000   1.708
  113        0.755   0.925   0.000   1.680
  114        0.755   0.925   0.000   1.680
  115        0.748   0.934   0.000   1.681
  116        0.755   0.925   0.000   1.680
  117        0.747   0.935   0.000   1.682
  118        0.747   0.935   0.000   1.682
  119        0.748   0.934   0.000   1.681
  120        0.755   0.925   0.000   1.680
  121        0.744   0.969   0.000   1.713
  122        0.744   0.969   0.000   1.713
  123        0.749   0.989   0.000   1.739
  124        0.749   0.989   0.000   1.739
  125        0.776   0.886   0.000   1.662
  126        0.776   0.886   0.000   1.662
  127        0.776   0.886   0.000   1.662
  128        0.776   0.886   0.000   1.662
--------------------------------------------------
tot         96.044 121.076   0.000 217.121


 total amount of memory used by VASP MPI-rank0   315265. kBytes
=======================================================================

   base                                    :      30000. kBytes
   nonl-proj                               :      64825. kBytes
   fftplans                                :      84433. kBytes
   grid                                    :      61987. kBytes
   one-center                              :         24. kBytes
   wavefun                                 :      73996. kBytes

  
  
 General timing and accounting informations for this job:
 ========================================================
  
                  Total CPU time used (sec):     5428.680
                            User time (sec):     4845.363
                          System time (sec):      583.317
                         Elapsed time (sec):     5469.312
  
                   Maximum memory used (kb):     1933864.
                   Average memory used (kb):          N/A
  
                          Minor page faults:     16616124
                          Major page faults:         1166
                 Voluntary context switches:         3353
