 vasp.6.5.0 16Dec24 (build Jan 20 2025 08:32:48) complex                         
 executed on        HPECrayEX_GCC date 2025.07.21  22:44:35
 running  128 mpi-ranks, with    1 threads/rank, on    1 nodes
 distrk:  each k-point on  128 cores,    1 groups
 distr:  one band on NCORE=  16 cores,    8 groups


--------------------------------------------------------------------------------------------------------


 INCAR:
   SYSTEM = a-Si SPC
   NCORE = 16
   ISTART = 1
   ICHARG = 1
   ISPIN = 1
   ISYM = 1
   EDIFF = 1E-6
   NELM = 150
   EDIFFG = -0.01
   NSW = 0
   ISIF = 2
   IBRION = -1
   PREC = Accurate
   ENCUT = 1200
   KSPACING = 0.23
   KGAMMA = .TRUE.
   METAGGA = SCAN
   LASPH = .TRUE.
   LDIAG = .FALSE.
   LMIXTAU = .TRUE.
   ADDGRID = .TRUE.
   ALGO = Normal
   ISMEAR = 0
   SIGMA = 0.1
   LORBIT = 11
   NEDOS = 2000
   LWAVE = .FALSE.
   LCHARG = .FALSE.

 POTCAR:    PAW_PBE H 15Jun2001                   
 POTCAR:    PAW_PBE Si 05Jan2001                  
 POTCAR:    PAW_PBE H 15Jun2001                   
   SHA256 =  030f79b5d3ab3cf0e668861823c8fb652ff669f3e15e46930bd03bfd63a607b6 H/POTCAR              
   COPYR  = (c) Copyright 15Jun2001 Georg Kresse                                                    
   COPYR  = This file is part of the software VASP. Any use, copying, and all other rights are regul
   COPYR  = If you do not have a valid VASP license, you may not use, copy or distribute this file. 
   VRHFIN =H: ultrasoft test                                                                        
   LEXCH  = PE                                                                                      
   EATOM  =    12.4884 eV,    0.9179 Ry                                                             
                                                                                                    
   TITEL  = PAW_PBE H 15Jun2001                                                                     
   LULTRA =        F    use ultrasoft PP ?                                                          
   IUNSCR =        0    unscreen: 0-lin 1-nonlin 2-no                                               
   RPACOR =    0.000    partial core radius                                                         
   POMASS =    1.000; ZVAL   =    1.000    mass and valenz                                          
   RCORE  =    1.100    outmost cutoff radius                                                       
   RWIGS  =    0.700; RWIGS  =    0.370    wigner-seitz radius (au A)                               
   ENMAX  =  250.000; ENMIN  =  200.000 eV                                                          
   RCLOC  =    0.701    cutoff for local pot                                                        
   LCOR   =        T    correct aug charges                                                         
   LPAW   =        T    paw PP                                                                      
   EAUG   =  400.000                                                                                
   RMAX   =    1.123    core radius for proj-oper                                                   
   RAUG   =    1.200    factor for augmentation sphere                                              
   RDEP   =    1.112    radius for radial grids                                                     
   RDEPT  =    0.926    core radius for aug-charge                                                  
                                                                                                    
   Atomic configuration                                                                             
    2 entries                                                                                       
     n  l   j            E        occ.                                                              
     1  0  0.50        -6.4927   1.0000                                                             
     2  1  0.50        -3.4015   0.0000                                                             
   Description                                                                                      
     l       E           TYP  RCUT    TYP  RCUT                                                     
     0     -6.4927494     23  1.100                                                                 
     0      6.8029130     23  1.100                                                                 
     1     -4.0817478     23  1.100                                                                 
  local pseudopotential read in
  atomic valenz-charges read in
  non local Contribution for L=           0  read in
    real space projection operators read in
  non local Contribution for L=           0  read in
    real space projection operators read in
  non local Contribution for L=           1  read in
    real space projection operators read in
    PAW grid and wavefunctions read in

   number of l-projection  operators is LMAX  =           3
   number of lm-projection operators is LMMAX =           5

 POTCAR:    PAW_PBE Si 05Jan2001                  
   SHA256 =  79d9987ad8750f624c4d6acb2a16d13abf6a777132adc04dc6c8399be72b42bb Si/POTCAR             
   COPYR  = (c) Copyright 05Jan2001 Georg Kresse                                                    
   COPYR  = This file is part of the software VASP. Any use, copying, and all other rights are regul
   COPYR  = If you do not have a valid VASP license, you may not use, copy or distribute this file. 
   VRHFIN =Si: s2p2                                                                                 
   LEXCH  = PE                                                                                      
   EATOM  =   103.0669 eV,    7.5752 Ry                                                             
                                                                                                    
   TITEL  = PAW_PBE Si 05Jan2001                                                                    
   LULTRA =        F    use ultrasoft PP ?                                                          
   IUNSCR =        1    unscreen: 0-lin 1-nonlin 2-no                                               
   RPACOR =    1.500    partial core radius                                                         
   POMASS =   28.085; ZVAL   =    4.000    mass and valenz                                          
   RCORE  =    1.900    outmost cutoff radius                                                       
   RWIGS  =    2.480; RWIGS  =    1.312    wigner-seitz radius (au A)                               
   ENMAX  =  245.345; ENMIN  =  184.009 eV                                                          
   ICORE  =        2    local potential                                                             
   LCOR   =        T    correct aug charges                                                         
   LPAW   =        T    paw PP                                                                      
   EAUG   =  322.069                                                                                
   DEXC   =    0.000                                                                                
   RMAX   =    1.950    core radius for proj-oper                                                   
   RAUG   =    1.300    factor for augmentation sphere                                              
   RDEP   =    1.993    radius for radial grids                                                     
   RDEPT  =    1.837    core radius for aug-charge                                                  
                                                                                                    
   Atomic configuration                                                                             
    6 entries                                                                                       
     n  l   j            E        occ.                                                              
     1  0  0.50     -1785.8828   2.0000                                                             
     2  0  0.50      -139.4969   2.0000                                                             
     2  1  1.50       -95.5546   6.0000                                                             
     3  0  0.50       -10.8127   2.0000                                                             
     3  1  0.50        -4.0811   2.0000                                                             
     3  2  1.50        -4.0817   0.0000                                                             
   Description                                                                                      
     l       E           TYP  RCUT    TYP  RCUT                                                     
     0    -10.8127223     23  1.900                                                                 
     0     -7.6451159     23  1.900                                                                 
     1     -4.0811372     23  1.900                                                                 
     1      2.4879257     23  1.900                                                                 
     2     -4.0817478      7  1.900                                                                 
  local pseudopotential read in
  partial core-charges read in
  partial kinetic energy density read in
  atomic valenz-charges read in
  non local Contribution for L=           0  read in
    real space projection operators read in
  non local Contribution for L=           0  read in
    real space projection operators read in
  non local Contribution for L=           1  read in
    real space projection operators read in
  non local Contribution for L=           1  read in
    real space projection operators read in
    PAW grid and wavefunctions read in

   number of l-projection  operators is LMAX  =           4
   number of lm-projection operators is LMMAX =           8

 -----------------------------------------------------------------------------
|                                                                             |
|               ----> ADVICE to this user running VASP <----                  |
|                                                                             |
|     You have a (more or less) 'large supercell' and for larger cells it     |
|     might be more efficient to use real-space projection operators.         |
|     Therefore, try LREAL= Auto in the INCAR file.                           |
|     Mind: For very accurate calculation, you might also keep the            |
|     reciprocal projection scheme (i.e. LREAL=.FALSE.).                      |
|                                                                             |
 -----------------------------------------------------------------------------

 -----------------------------------------------------------------------------
|                                                                             |
|               ----> ADVICE to this user running VASP <----                  |
|                                                                             |
|     You enforced a specific xc type in the INCAR file but a different       |
|     type was found in the POTCAR file.                                      |
|     I HOPE YOU KNOW WHAT YOU ARE DOING!                                     |
|                                                                             |
 -----------------------------------------------------------------------------

  PAW_PBE H 15Jun2001                   :
 energy of atom  1       EATOM=  -12.4884
 kinetic energy error for atom=    0.0000 (will be added to EATOM!!)
  PAW_PBE Si 05Jan2001                  :
 energy of atom  2       EATOM= -103.0669
 kinetic energy error for atom=    0.0001 (will be added to EATOM!!)


 POSCAR:  H Si
  positions in cartesian coordinates
  No initial velocities read in


 exchange-correlation table for SCAN
   RHO(1)=    0.500       N(1)  =     2000
   RHO(2)=  100.500       N(2)  =     4000



--------------------------------------------------------------------------------------------------------


 ion  position               nearest neighbor table
   1  0.210  0.579  0.821-  88 1.47
   2  0.268  0.033  0.557-  16 0.72
   3  0.229  0.429  0.775-  50 0.76
   4  0.107  0.313  0.719-  61 1.51
   5  0.365  0.539  0.129-  14 0.66
   6  0.402  0.811  0.801- 100 1.51
   7  0.018  0.981  0.891-  69 1.47
   8  0.162  0.186  0.903-  61 1.49
   9  0.557  0.464  0.831-  97 1.53
  10  0.318  0.531  0.463-  37 0.78
  11  0.504  0.328  0.785-  95 1.54
  12  0.371  0.671  0.483-  39 0.74
  13  0.134  0.775  0.345-  98 1.48
  14  0.333  0.539  0.187-   5 0.66
  15  0.551  0.474  0.465-  58 1.43
  16  0.242  0.075  0.565-   2 0.72
  17  0.455  0.320  0.067-  86 1.46
  18  0.501  0.636  0.759-  77 1.48
  19  0.375  0.897  0.423-  82 1.43
  20  0.122  0.809  0.969-  71 1.40
  21  0.380  0.671  0.816-  27 0.70
  22  0.071  0.138  0.478-  59 1.46
  23  0.443  0.388  0.331-  86 1.43
  24  0.143  0.421  0.165-  55 1.54
  25  0.096  0.400  0.494-  87 1.51
  26  0.230  0.860  0.191-  46 0.75
  27  0.334  0.658  0.813-  21 0.70
  28  0.198  0.027  0.002-  42 0.81
  29  0.165  0.914  0.470-  48 0.70
  30  0.214  0.662  0.503-  98 1.53
  31  0.517  0.673  0.204-  90 1.45
  32  0.330  0.289  0.931-  47 0.70
  33  0.491  0.468  0.095-  86 1.46
  34  0.289  0.854  0.729-  49 0.70
  35  0.312  0.016  0.219-  44 0.76
  36  0.392  0.104  0.510-  81 1.44
  37  0.270  0.538  0.504-  10 0.78
  38  0.334  0.209  0.199-  40 0.73
  39  0.386  0.710  0.535-  12 0.74
  40  0.305  0.171  0.223-  38 0.73
  41  0.374  0.096  0.920-  56 1.50
  42  0.189  0.003  0.913-  28 0.81
  43  0.201  0.251  0.505-  45 0.74
  44  0.272  0.993  0.261-  35 0.76
  45  0.219  0.218  0.443-  43 0.74
  46  0.218  0.831  0.118-  26 0.75
  47  0.342  0.323  0.988-  32 0.70
  48  0.173  0.891  0.395-  29 0.70
  49  0.241  0.860  0.727-  34 0.70
  50  0.233  0.426  0.683-   3 0.76
  51  0.033  0.772  0.643-  71 2.22  98 2.26  57 2.42
  52  0.817  0.064  0.863-  67 2.31  80 2.33  65 2.37  69 2.43
  53  0.024  0.574  0.358-  87 2.20  55 2.28  78 2.34  98 2.39
  54  0.953  0.440  0.012-  55 2.24  62 2.29  79 2.32  75 2.36
  55  0.077  0.501  0.130-  24 1.54  54 2.24  53 2.28  88 2.41  79 3.10
  56  0.475  0.114  0.922-  41 1.50  95 2.24  84 2.39  83 2.57
  57  0.938  0.896  0.544-  99 2.35  69 2.38  51 2.42  63 2.54
  58  0.646  0.489  0.502-  15 1.43  97 2.33  94 2.35  89 2.37
  59  0.009  0.144  0.618-  22 1.46  64 2.24  61 2.30  69 2.35
  60  0.917  0.716  0.981-  85 2.22  71 2.32  96 2.41  78 2.51
  61  0.083  0.228  0.817-   8 1.49   4 1.51  59 2.30  62 2.46
  62  0.951  0.285  0.976-  54 2.29  76 2.29  67 2.35  61 2.46
  63  0.839  0.973  0.326-  73 2.28 101 2.33  65 2.34  57 2.54
  64  0.874  0.215  0.581-  59 2.24  72 2.29  67 2.39 101 2.40  76 2.99
  65  0.786  0.949  0.059-  63 2.34  52 2.37  85 2.38  66 2.49
  66  0.618  0.967  0.106-  84 2.25  93 2.25  83 2.34  65 2.49
  67  0.818  0.223  0.857-  52 2.31  74 2.35  62 2.35  64 2.39
  68  0.674  0.703  0.951-  77 2.34  85 2.36  90 2.45  70 2.48
  69  0.962  0.010  0.750-   7 1.47  59 2.35  57 2.38  52 2.43
  70  0.750  0.553  0.909-  75 2.25  97 2.27  96 2.43  68 2.48
  71  0.068  0.739  0.901-  20 1.40  51 2.22  88 2.29  60 2.32
  72  0.892  0.342  0.419-  64 2.29  76 2.38  89 2.41  87 2.42
  73  0.713  0.923  0.463-  63 2.28  93 2.43  80 2.50  99 2.50
  74  0.678  0.299  0.894-  67 2.35  92 2.38  95 2.41  97 2.43
  75  0.823  0.507  0.138-  70 2.25  89 2.28  78 2.33  54 2.36
  76  0.944  0.225  0.236-  62 2.29  72 2.38 101 2.40  64 2.99
  77  0.574  0.704  0.727-  18 1.48  68 2.34 100 2.37  94 2.44
  78  0.889  0.638  0.250-  75 2.33  53 2.34 103 2.43  60 2.51
  79  0.002  0.512  0.775-  88 2.25  96 2.26  54 2.32  87 2.34  55 3.10
  80  0.696  0.040  0.683- 102 2.28  52 2.33  84 2.44  73 2.50
  81  0.478  0.071  0.448-  36 1.44  82 2.30  83 2.30 102 2.41
  82  0.467  0.915  0.474-  19 1.43  93 2.30  81 2.30 100 2.33
  83  0.552  0.103  0.205-  81 2.30  91 2.33  66 2.34  56 2.57 102 3.11
  84  0.568  0.985  0.848-  66 2.25  56 2.39  80 2.44 100 2.55
  85  0.799  0.805  0.921-  60 2.22  99 2.31  68 2.36  65 2.38
  86  0.497  0.382  0.186-  23 1.43  17 1.46  33 1.46  92 2.38
  87  0.006  0.451  0.509-  25 1.51  53 2.20  79 2.34  72 2.42
  88  0.118  0.590  0.891-   1 1.47  79 2.25  71 2.29  55 2.41
  89  0.753  0.416  0.328-  75 2.28  92 2.33  58 2.37  72 2.41
  90  0.610  0.704  0.229-  31 1.45  94 2.38  68 2.45  93 2.48
  91  0.674  0.186  0.317- 102 2.28 101 2.33  83 2.33  92 2.38
  92  0.651  0.327  0.178-  89 2.33  86 2.38  91 2.38  74 2.38
  93  0.583  0.866  0.305-  66 2.25  82 2.30  73 2.43  90 2.48
  94  0.660  0.650  0.489-  58 2.35  90 2.38 103 2.40  77 2.44
  95  0.541  0.229  0.785-  11 1.54  56 2.24 102 2.35  74 2.41
  96  0.883  0.611  0.761-  79 2.26  60 2.41  70 2.43 103 2.43
  97  0.657  0.451  0.779-   9 1.53  70 2.27  58 2.33  74 2.43
  98  0.118  0.696  0.457-  13 1.48  30 1.53  51 2.26  53 2.39
  99  0.807  0.818  0.639- 103 2.29  85 2.31  57 2.35  73 2.50
 100  0.491  0.843  0.726-   6 1.51  82 2.33  77 2.37  84 2.55
 101  0.823  0.131  0.345-  63 2.33  91 2.33  64 2.40  76 2.40
 102  0.608  0.151  0.563-  91 2.28  80 2.28  95 2.35  81 2.41  83 3.11
 103  0.821  0.679  0.512-  99 2.29  94 2.40  78 2.43  96 2.43

  LATTYP: Found a simple tetragonal cell.
 ALAT       =    14.5894768955
 C/A-ratio  =     0.5586246830
  
  Lattice vectors:
  
 A1 = (  14.5894768955,   0.0000000000,   0.0000000000)
 A2 = (   0.0000000000,  14.5894768955,   0.0000000000)
 A3 = (   0.0000000000,   0.0000000000,   8.1500419052)


Analysis of symmetry for initial positions (statically):
=====================================================================
 Subroutine PRICEL returns:
 Original cell was already a primitive cell.
 

 Routine SETGRP: Setting up the symmetry group for a 
 simple tetragonal supercell.


 Subroutine GETGRP returns: Found  1 space group operations
 (whereof  1 operations were pure point group operations)
 out of a pool of 16 trial point group operations.


The static configuration has the point symmetry C_1 .


Analysis of symmetry for dynamics (positions and initial velocities):
=====================================================================
 Subroutine PRICEL returns:
 Original cell was already a primitive cell.
 

 Routine SETGRP: Setting up the symmetry group for a 
 simple tetragonal supercell.


 Subroutine GETGRP returns: Found  1 space group operations
 (whereof  1 operations were pure point group operations)
 out of a pool of 16 trial point group operations.


The dynamic configuration has the point symmetry C_1 .


 Subroutine INISYM returns: Found  1 space group operations
 (whereof  1 operations are pure point group operations),
 and found     1 'primitive' translations


----------------------------------------------------------------------------------------

                                     Primitive cell                                     

  volume of cell :    1734.7595

  direct lattice vectors                    reciprocal lattice vectors
    14.589476895  0.000000000  0.000000000     0.068542553  0.000000000  0.000000000
     0.000000000 14.589476895  0.000000000     0.000000000  0.068542553  0.000000000
     0.000000000  0.000000000  8.150041905     0.000000000  0.000000000  0.122698756

  length of vectors
    14.589476895 14.589476895  8.150041905     0.068542553  0.068542553  0.122698756

  position of ions in fractional coordinates (direct lattice)
     0.210083612  0.578851460  0.820853448
     0.267764912  0.033254996  0.556908793
     0.228692915  0.429045540  0.775279449
     0.106816715  0.312859744  0.718745998
     0.364519581  0.539484044  0.128918356
     0.401701860  0.811276517  0.801098948
     0.017630241  0.980789106  0.891343883
     0.162242966  0.185680406  0.903399036
     0.557357201  0.463707510  0.831149101
     0.318460356  0.531332278  0.462795166
     0.504308691  0.328413420  0.784938295
     0.371129139  0.671217349  0.482634328
     0.134196038  0.774942109  0.345354052
     0.332644552  0.539009044  0.186840757
     0.551021127  0.474367933  0.465231964
     0.242265711  0.075152112  0.564987279
     0.454990268  0.320025868  0.066594872
     0.501068685  0.635560141  0.759446402
     0.374855112  0.896899875  0.422617459
     0.121691820  0.808911799  0.968507904
     0.379971814  0.671364030  0.815711143
     0.071313043  0.137600547  0.477995088
     0.443129664  0.388099590  0.330626521
     0.142973598  0.420843739  0.164751300
     0.096052793  0.400392697  0.494430587
     0.229976717  0.859646997  0.191357298
     0.333556168  0.658394408  0.812506252
     0.198020122  0.026611852  0.001739635
     0.164884596  0.913727072  0.469738689
     0.214049484  0.662088166  0.502731157
     0.516959590  0.672605335  0.203784228
     0.330462157  0.289292757  0.930690920
     0.491013492  0.467778937  0.094582949
     0.288987058  0.853697503  0.728887050
     0.312246973  0.015937103  0.219239364
     0.392217627  0.103672668  0.510304125
     0.270207083  0.537632025  0.503521337
     0.334409522  0.208636678  0.198914315
     0.386452512  0.709785558  0.535197248
     0.304864255  0.171083584  0.223476152
     0.373859189  0.096175484  0.919708155
     0.189149345  0.002978304  0.913352359
     0.201245049  0.251376388  0.504782681
     0.271792473  0.992793367  0.260639151
     0.219172354  0.218320370  0.443262752
     0.218260053  0.830571246  0.117782216
     0.341627739  0.322986906  0.987819474
     0.173359882  0.890813296  0.395266679
     0.241201246  0.859838916  0.726668656
     0.232720475  0.425903550  0.683030844
     0.032769646  0.771891966  0.643049454
     0.817356241  0.064456663  0.862669184
     0.023988591  0.574080898  0.357958896
     0.952693513  0.439956144  0.011649130
     0.077022638  0.500817134  0.129686450
     0.475420747  0.113673027  0.921711825
     0.937614151  0.896200741  0.544097816
     0.645557073  0.489365044  0.502175332
     0.009351946  0.144327999  0.617530567
     0.917257013  0.715865283  0.980904159
     0.082752110  0.228292627  0.816676782
     0.950959387  0.284577030  0.976045288
     0.839372110  0.972790190  0.326395868
     0.874246561  0.214657456  0.581071859
     0.785895209  0.948766025  0.058648287
     0.618401884  0.967484996  0.106262030
     0.817890873  0.222504893  0.856564921
     0.674317528  0.703390538  0.950986521
     0.961665733  0.009729341  0.750110254
     0.750218810  0.552971163  0.909305754
     0.068019437  0.739032666  0.900783098
     0.891745475  0.341750430  0.418576989
     0.712719179  0.922575915  0.463040564
     0.677735060  0.299363029  0.893643258
     0.823401695  0.506654903  0.137564937
     0.943625333  0.224948435  0.236269951
     0.573602471  0.703753813  0.726958225
     0.889373902  0.637657544  0.250044113
     0.001831670  0.512475537  0.774653686
     0.695823440  0.040487127  0.683062746
     0.478233733  0.071116326  0.447571932
     0.467112018  0.914659250  0.473744803
     0.552038984  0.102782986  0.204932689
     0.567779096  0.985134704  0.847596869
     0.798644124  0.805231064  0.921019804
     0.497299530  0.381665500  0.185541377
     0.006226440  0.450604915  0.509294314
     0.117876742  0.590189769  0.891472717
     0.753282662  0.416422744  0.328419170
     0.610283704  0.703815502  0.228579193
     0.673611540  0.185670125  0.317027818
     0.650847873  0.327266703  0.177726694
     0.583460947  0.866302479  0.305145670
     0.659706998  0.649877310  0.488981535
     0.540919325  0.229440029  0.785099031
     0.882581335  0.610785436  0.760926149
     0.657239466  0.451463753  0.779167773
     0.118256467  0.695967379  0.456674953
     0.807095421  0.818240440  0.638972175
     0.490708478  0.843374995  0.726485835
     0.822860208  0.130965628  0.344855896
     0.607779159  0.150828574  0.562976246
     0.821078102  0.678645305  0.511792461

  ion indices of the primitive-cell ions
   primitive index   ion index
                 1           1
                 2           2
                 3           3
                 4           4
                 5           5
                 6           6
                 7           7
                 8           8
                 9           9
                10          10
                11          11
                12          12
                13          13
                14          14
                15          15
                16          16
                17          17
                18          18
                19          19
                20          20
                21          21
                22          22
                23          23
                24          24
                25          25
                26          26
                27          27
                28          28
                29          29
                30          30
                31          31
                32          32
                33          33
                34          34
                35          35
                36          36
                37          37
                38          38
                39          39
                40          40
                41          41
                42          42
                43          43
                44          44
                45          45
                46          46
                47          47
                48          48
                49          49
                50          50
                51          51
                52          52
                53          53
                54          54
                55          55
                56          56
                57          57
                58          58
                59          59
                60          60
                61          61
                62          62
                63          63
                64          64
                65          65
                66          66
                67          67
                68          68
                69          69
                70          70
                71          71
                72          72
                73          73
                74          74
                75          75
                76          76
                77          77
                78          78
                79          79
                80          80
                81          81
                82          82
                83          83
                84          84
                85          85
                86          86
                87          87
                88          88
                89          89
                90          90
                91          91
                92          92
                93          93
                94          94
                95          95
                96          96
                97          97
                98          98
                99          99
               100         100
               101         101
               102         102
               103         103

----------------------------------------------------------------------------------------


 -----------------------------------------------------------------------------
|                                                                             |
|           W    W    AA    RRRRR   N    N  II  N    N   GGGG   !!!           |
|           W    W   A  A   R    R  NN   N  II  NN   N  G    G  !!!           |
|           W    W  A    A  R    R  N N  N  II  N N  N  G       !!!           |
|           W WW W  AAAAAA  RRRRR   N  N N  II  N  N N  G  GGG   !            |
|           WW  WW  A    A  R   R   N   NN  II  N   NN  G    G                |
|           W    W  A    A  R    R  N    N  II  N    N   GGGG   !!!           |
|                                                                             |
|     The requested file  could not be found or opened for reading            |
|     k-point information. Automatic k-point generation is used as a          |
|     fallback, which may lead to unwanted results.                           |
|                                                                             |
 -----------------------------------------------------------------------------



Automatic generation of k-mesh.
 Grid dimensions derived from KSPACING:
 generate k-points for:    2    2    4

 Generating k-lattice:

  Cartesian coordinates                     Fractional coordinates (reciprocal lattice)
     0.034271277  0.000000000  0.000000000     0.500000000  0.000000000  0.000000000
     0.000000000  0.034271277  0.000000000     0.000000000  0.500000000  0.000000000
     0.000000000  0.000000000  0.030674689     0.000000000  0.000000000  0.250000000

  Length of vectors
     0.034271277  0.034271277  0.030674689

  Shift w.r.t. Gamma in fractional coordinates (k-lattice)
     0.000000000  0.000000000  0.000000000

 
 Subroutine IBZKPT returns following result:
 ===========================================
 
 Found     12 irreducible k-points:
 
 Following reciprocal coordinates:
            Coordinates               Weight
  0.000000  0.000000  0.000000      1.000000
  0.500000  0.000000  0.000000      1.000000
  0.000000  0.500000  0.000000      1.000000
  0.500000  0.500000  0.000000      1.000000
  0.000000  0.000000  0.250000      2.000000
  0.500000  0.000000  0.250000      2.000000
  0.000000  0.500000  0.250000      2.000000
  0.500000  0.500000  0.250000      2.000000
  0.000000  0.000000  0.500000      1.000000
  0.500000  0.000000  0.500000      1.000000
  0.000000  0.500000  0.500000      1.000000
  0.500000  0.500000  0.500000      1.000000
 
 Following cartesian coordinates:
            Coordinates               Weight
  0.000000  0.000000  0.000000      1.000000
  0.034271  0.000000  0.000000      1.000000
  0.000000  0.034271  0.000000      1.000000
  0.034271  0.034271  0.000000      1.000000
  0.000000  0.000000  0.030675      2.000000
  0.034271  0.000000  0.030675      2.000000
  0.000000  0.034271  0.030675      2.000000
  0.034271  0.034271  0.030675      2.000000
  0.000000  0.000000  0.061349      1.000000
  0.034271  0.000000  0.061349      1.000000
  0.000000  0.034271  0.061349      1.000000
  0.034271  0.034271  0.061349      1.000000
 


--------------------------------------------------------------------------------------------------------




 Dimension of arrays:
   k-points           NKPTS =     12   k-points in BZ     NKDIM =     12   number of bands    NBANDS=    184
   number of dos      NEDOS =   2000   number of ions     NIONS =    103
   non local maximal  LDIM  =      4   non local SUM 2l+1 LMDIM =      8
   total plane-waves  NPLWV = ******
   max r-space proj   IRMAX =      1   max aug-charges    IRDMAX= 417924
   dimension x,y,z NGX =   168 NGY =  168 NGZ =   96
   dimension x,y,z NGXF=   336 NGYF=  336 NGZF=  192
   support grid    NGXF=   672 NGYF=  672 NGZF=  384
   ions per type =              50  53
   NGX,Y,Z   is equivalent  to a cutoff of  19.14, 19.14, 19.58 a.u.
   NGXF,Y,Z  is equivalent  to a cutoff of  38.29, 38.29, 39.16 a.u.

 SYSTEM =  a-Si SPC                                
 POSCAR =   H Si                                   

 Startparameter for this run:
   NWRITE =      2    write-flag & timer
   PREC   = accura    normal or accurate (medium, high low for compatibility)
   ISTART =      1    job   : 0-new  1-cont  2-samecut
   ICHARG =      1    charge: 1-file 2-atom 10-const
   ISPIN  =      1    spin polarized calculation?
   LNONCOLLINEAR =      F non collinear calculations
   LSORBIT =      F    spin-orbit coupling
   INIWAV =      1    electr: 0-lowe 1-rand  2-diag
   LASPH  =      T    aspherical Exc in radial PAW
 Electronic Relaxation 1
   ENCUT  = 1200.0 eV  88.20 Ry    9.39 a.u.  41.21 41.21 23.02*2*pi/ulx,y,z
   ENINI  = 1200.0     initial cutoff
   ENAUG  =  400.0 eV  augmentation charge cutoff
   NELM   =    150;   NELMIN=  2; NELMDL=  0     # of ELM steps 
   EDIFF  = 0.1E-05   stopping-criterion for ELM
   LREAL  =      F    real-space projection
   NLSPLINE    = F    spline interpolate recip. space projectors
   LCOMPAT=      F    compatible to vasp.4.4
   GGA_COMPAT  = T    GGA compatible to vasp.4.4-vasp.4.6
   LMAXPAW     = -100 max onsite density
   LMAXMIX     =    2 max onsite mixed and CHGCAR
   VOSKOWN=      0    Vosko Wilk Nusair interpolation
   ROPT   =    0.00000   0.00000
 Ionic relaxation
   EDIFFG = -.1E-01   stopping-criterion for IOM
   NSW    =      0    number of steps for IOM
   NBLOCK =      1;   KBLOCK =      1    inner block; outer block 
   IBRION =     -1    ionic relax: 0-MD 1-quasi-New 2-CG
   NFREE  =      0    steps in history (QN), initial steepest desc. (CG)
   ISIF   =      2    stress and relaxation
   IWAVPR =     10    prediction:  0-non 1-charg 2-wave 3-comb
   ISYM   =      1    0-nonsym 1-usesym 2-fastsym
   LCORR  =      T    Harris-Foulkes like correction to forces

   POTIM  = 0.5000    time-step for ionic-motion
   TEIN   =    0.0    initial temperature
   TEBEG  =    0.0;   TEEND  =   0.0 temperature during run
   SMASS  =  -3.00    Nose mass-parameter (am)
   estimated Nose-frequenzy (Omega)   =  0.10E-29 period in steps = 0.13E+47 mass=  -0.486E-26a.u.
   SCALEE = 1.0000    scale energy and forces
   NPACO  =    256;   APACO  = 10.0  distance and # of slots for P.C.
   PSTRESS=    0.0 pullay stress

  Mass of Ions in am
   POMASS =   1.00 28.09
  Ionic Valenz
   ZVAL   =   1.00  4.00
  Atomic Wigner-Seitz radii
   RWIGS  =  -1.00 -1.00
  virtual crystal weights 
   VCA    =   1.00  1.00
   NELECT =     262.0000    total number of electrons
   NUPDOWN=      -1.0000    fix difference up-down

 DOS related values:
   EMIN   =  10.00;   EMAX   =-10.00  energy-range for DOS
   EFERMI =   0.00;   METHOD = LEGACY      
   ISMEAR =     0;   SIGMA  =   0.10  broadening in eV -4-tet -1-fermi 0-gaus
   EFERMI_NEDOS =   21; number of points for ismear=-14 and -15

 Electronic relaxation 2 (details)
   IALGO  =     38    algorithm
   LDIAG  =      F    sub-space diagonalisation (order eigenvalues)
   LSUBROT=      F    optimize rotation matrix (better conditioning)
   TURBO    =      0    0=normal 1=particle mesh
   IRESTART =      0    0=no restart 2=restart with 2 vectors
   NREBOOT  =      0    no. of reboots
   NMIN     =      0    reboot dimension
   EREF     =   0.00    reference energy to select bands
   IMIX   =      4    mixing-type and parameters
     AMIX     =   0.40;   BMIX     =  1.00
     AMIX_MAG =   1.60;   BMIX_MAG =  1.00
     AMIN     =   0.10
     WC   =   100.;   INIMIX=   1;  MIXPRE=   1;  MAXMIX= -45

 Intra band minimization:
   WEIMIN = 0.0000     energy-eigenvalue tresh-hold
   EBREAK =  0.14E-08  absolut break condition
   DEPER  =   0.30     relativ break condition  

   TIME   =   0.40     timestep for ELM

  volume/ion in A,a.u.               =      16.84       113.66
  Fermi-wavevector in a.u.,A,eV,Ry     =   0.871824  1.647509 10.341477  0.760077
  Thomas-Fermi vector in A             =   1.990986

 Write flags
   LWAVE        =      F    write WAVECAR
   LDOWNSAMPLE  =      F    k-point downsampling of WAVECAR
   LCHARG       =      F    write CHGCAR
   LVTOT        =      F    write LOCPOT, total local potential
   LVHAR        =      F    write LOCPOT, Hartree potential only
   WRT_POTENTIAL= false  ! write potential to hdf5 file
   LELF         =      F    write electronic localiz. function (ELF)
   LORBIT       =     11    0 simple, 1 ext, 2 COOP (PROOUT), +10 PAW based schemes


 Python interface
   PLUGINS active      =      F    recompile with -DPLUGINS to activate

 Dipole corrections
   LMONO      =      F    monopole corrections only (constant potential shift)
   LDIPOL     =      F    correct potential (dipole corrections)
   IDIPOL     =      0    1-x, 2-y, 3-z, 4-all directions 
   EPSILON    =  1.0000000 bulk dielectric constant
   LVACPOTAV  =      F  vacuum potentials using an averaging scheme for the charge density
   VACPOTFLAT =  0.1000000 required flatness to determine vacuum potential

Coulomb truncation method
  LTRUNCATE          =      F  Coulomb kernel truncation to be used
  IDIMENSIONALITY    =      3  Dimensionality of cutoff (0 molecules / 2 surfaces)
  ISURFACE           =     -1  Direction of surface normal
  LCOARSEN           =      F  Coarsen the charge grid before padding, preferred


 Exchange correlation treatment:
   METAGGA = SCAN    functional components
   XC_C    = 1    coefficients multiplying the functional components
   LIBXC   =     F    Libxc                    
   VOSKOWN =     0    Vosko Wilk Nusair interpolation
   LHFCALC =     F    Hartree Fock is set to
   LHFONE  =     F    Hartree Fock one center treatment
   AEXX    =    0.0000 exact exchange contribution

 Parameters of functionals:
   SCAN:
     P1 =  0.000000E+00
     P2 =  0.000000E+00
     P3 =  0.000000E+00

 Accuracy and mixing parameters for tau-dependent meta-GGA functionals:
   LMAXTAU = 6
   LMIXTAU = T

 Van der Waals corrections
   IVDW    =     0    specifies the selected vdW correction

 Linear response parameters
   LEPSILON=     F    determine dielectric tensor
   LRPA    =     F    only Hartree local field effects (RPA)
   LNABLA  =     F    use nabla operator in PAW spheres
   LVEL    =     F    velocity operator in full k-point grid
   CSHIFT  =0.1000    complex shift for real part using Kramers Kronig
   OMEGAMAX=  -1.0    maximum frequency
   DEG_THRESHOLD= 0.2000000E-02 threshold for treating states as degnerate
   RTIME   =   -0.100 relaxation time in fs
  (WPLASMAI=    0.000 imaginary part of plasma frequency in eV, 0.658/RTIME)
   DFIELD  = 0.0000000 0.0000000 0.0000000 field for delta impulse in time

  Optional k-point grid parameters
   LKPOINTS_OPT  =     F    use optional k-point grid
   KPOINTS_OPT_MODE=     1    mode for optional k-point grid

 Orbital magnetization related:
   ORBITALMAG=     F  switch on orbital magnetization
   LCHIMAG   =     F  perturbation theory with respect to B field
   DQ        =  0.001000  dq finite difference perturbation B field
   LLRAUG    =     F  two centre corrections for induced B field
   LBONE     =     F  B-component reconstruction in AE one-centre
   LVGVCALC  =     T  calculate vGv susceptibility
   LVGVAPPL  =     F  apply vGv susceptibility instead of pGv for G=0

 Random number generation:
   RANDOM_GENERATOR = DEFAULT
   PCG_SEED         = not used


--------------------------------------------------------------------------------------------------------


 Static calculation
 charge density and potential will be updated during run
 non-spin polarized calculation
 Variant of blocked Davidson
 perform Loewdin sub-space diagonalisation
    ordering is kept fixed
    before iterative eigenvector-optimisation
 modified Broyden-mixing scheme, WC =      100.0
 initial mixing is a Kerker type mixing with AMIX =  0.4000 and BMIX =      1.0000
 Hartree-type preconditioning will be used
 using additional bands           53
 reciprocal scheme for non local part
 use partial core corrections
 calculate Harris-corrections to forces   (improved forces if not selfconsistent)
 use gradient corrections 
 use of overlap-Matrix (Vanderbilt PP)
 Gauss-broadening in eV      SIGMA  =   0.10


--------------------------------------------------------------------------------------------------------


  energy-cutoff  :     1200.00
  volume of cell :     1734.76
      direct lattice vectors                 reciprocal lattice vectors
    14.589476895  0.000000000  0.000000000     0.068542553  0.000000000  0.000000000
     0.000000000 14.589476895  0.000000000     0.000000000  0.068542553  0.000000000
     0.000000000  0.000000000  8.150041905     0.000000000  0.000000000  0.122698756

  length of vectors
    14.589476895 14.589476895  8.150041905     0.068542553  0.068542553  0.122698756



 old parameters found on file WAVECAR:
  energy-cutoff  :     1200.00
  volume of cell :     1734.76
      direct lattice vectors                 reciprocal lattice vectors
    14.589476895  0.000000000  0.000000000     0.068542553  0.000000000  0.000000000
     0.000000000 14.589476895  0.000000000     0.000000000  0.068542553  0.000000000
     0.000000000  0.000000000  8.150041905     0.000000000  0.000000000  0.122698756

  length of vectors


 k-points in units of 2pi/SCALE and weight: read from INCAR                         
   0.00000000  0.00000000  0.00000000       0.062
   0.03427128  0.00000000  0.00000000       0.062
   0.00000000  0.03427128  0.00000000       0.062
   0.03427128  0.03427128  0.00000000       0.062
   0.00000000  0.00000000  0.03067469       0.125
   0.03427128  0.00000000  0.03067469       0.125
   0.00000000  0.03427128  0.03067469       0.125
   0.03427128  0.03427128  0.03067469       0.125
   0.00000000  0.00000000  0.06134938       0.062
   0.03427128  0.00000000  0.06134938       0.062
   0.00000000  0.03427128  0.06134938       0.062
   0.03427128  0.03427128  0.06134938       0.062

 k-points in reciprocal lattice and weights: read from INCAR                         
   0.00000000  0.00000000  0.00000000       0.062
   0.50000000  0.00000000  0.00000000       0.062
   0.00000000  0.50000000  0.00000000       0.062
   0.50000000  0.50000000  0.00000000       0.062
   0.00000000  0.00000000  0.25000000       0.125
   0.50000000  0.00000000  0.25000000       0.125
   0.00000000  0.50000000  0.25000000       0.125
   0.50000000  0.50000000  0.25000000       0.125
   0.00000000  0.00000000  0.50000000       0.062
   0.50000000  0.00000000  0.50000000       0.062
   0.00000000  0.50000000  0.50000000       0.062
   0.50000000  0.50000000  0.50000000       0.062

 position of ions in fractional coordinates (direct lattice) 
   0.21008361  0.57885146  0.82085345
   0.26776491  0.03325500  0.55690879
   0.22869292  0.42904554  0.77527945
   0.10681672  0.31285974  0.71874600
   0.36451958  0.53948404  0.12891836
   0.40170186  0.81127652  0.80109895
   0.01763024  0.98078911  0.89134388
   0.16224297  0.18568041  0.90339904
   0.55735720  0.46370751  0.83114910
   0.31846036  0.53133228  0.46279517
   0.50430869  0.32841342  0.78493830
   0.37112914  0.67121735  0.48263433
   0.13419604  0.77494211  0.34535405
   0.33264455  0.53900904  0.18684076
   0.55102113  0.47436793  0.46523196
   0.24226571  0.07515211  0.56498728
   0.45499027  0.32002587  0.06659487
   0.50106868  0.63556014  0.75944640
   0.37485511  0.89689987  0.42261746
   0.12169182  0.80891180  0.96850790
   0.37997181  0.67136403  0.81571114
   0.07131304  0.13760055  0.47799509
   0.44312966  0.38809959  0.33062652
   0.14297360  0.42084374  0.16475130
   0.09605279  0.40039270  0.49443059
   0.22997672  0.85964700  0.19135730
   0.33355617  0.65839441  0.81250625
   0.19802012  0.02661185  0.00173963
   0.16488460  0.91372707  0.46973869
   0.21404948  0.66208817  0.50273116
   0.51695959  0.67260534  0.20378423
   0.33046216  0.28929276  0.93069092
   0.49101349  0.46777894  0.09458295
   0.28898706  0.85369750  0.72888705
   0.31224697  0.01593710  0.21923936
   0.39221763  0.10367267  0.51030412
   0.27020708  0.53763202  0.50352134
   0.33440952  0.20863668  0.19891431
   0.38645251  0.70978556  0.53519725
   0.30486425  0.17108358  0.22347615
   0.37385919  0.09617548  0.91970815
   0.18914935  0.00297830  0.91335236
   0.20124505  0.25137639  0.50478268
   0.27179247  0.99279337  0.26063915
   0.21917235  0.21832037  0.44326275
   0.21826005  0.83057125  0.11778222
   0.34162774  0.32298691  0.98781947
   0.17335988  0.89081330  0.39526668
   0.24120125  0.85983892  0.72666866
   0.23272048  0.42590355  0.68303084
   0.03276965  0.77189197  0.64304945
   0.81735624  0.06445666  0.86266918
   0.02398859  0.57408090  0.35795890
   0.95269351  0.43995614  0.01164913
   0.07702264  0.50081713  0.12968645
   0.47542075  0.11367303  0.92171183
   0.93761415  0.89620074  0.54409782
   0.64555707  0.48936504  0.50217533
   0.00935195  0.14432800  0.61753057
   0.91725701  0.71586528  0.98090416
   0.08275211  0.22829263  0.81667678
   0.95095939  0.28457703  0.97604529
   0.83937211  0.97279019  0.32639587
   0.87424656  0.21465746  0.58107186
   0.78589521  0.94876602  0.05864829
   0.61840188  0.96748500  0.10626203
   0.81789087  0.22250489  0.85656492
   0.67431753  0.70339054  0.95098652
   0.96166573  0.00972934  0.75011025
   0.75021881  0.55297116  0.90930575
   0.06801944  0.73903267  0.90078310
   0.89174547  0.34175043  0.41857699
   0.71271918  0.92257592  0.46304056
   0.67773506  0.29936303  0.89364326
   0.82340169  0.50665490  0.13756494
   0.94362533  0.22494844  0.23626995
   0.57360247  0.70375381  0.72695823
   0.88937390  0.63765754  0.25004411
   0.00183167  0.51247554  0.77465369
   0.69582344  0.04048713  0.68306275
   0.47823373  0.07111633  0.44757193
   0.46711202  0.91465925  0.47374480
   0.55203898  0.10278299  0.20493269
   0.56777910  0.98513470  0.84759687
   0.79864412  0.80523106  0.92101980
   0.49729953  0.38166550  0.18554138
   0.00622644  0.45060492  0.50929431
   0.11787674  0.59018977  0.89147272
   0.75328266  0.41642274  0.32841917
   0.61028370  0.70381550  0.22857919
   0.67361154  0.18567013  0.31702782
   0.65084787  0.32726670  0.17772669
   0.58346095  0.86630248  0.30514567
   0.65970700  0.64987731  0.48898153
   0.54091933  0.22944003  0.78509903
   0.88258134  0.61078544  0.76092615
   0.65723947  0.45146375  0.77916777
   0.11825647  0.69596738  0.45667495
   0.80709542  0.81824044  0.63897217
   0.49070848  0.84337499  0.72648584
   0.82286021  0.13096563  0.34485590
   0.60777916  0.15082857  0.56297625
   0.82107810  0.67864531  0.51179246

 position of ions in cartesian coordinates  (Angst):
   3.06501000  8.44514000  6.68999000
   3.90655000  0.48517300  4.53883000
   3.33651000  6.25955000  6.31856000
   1.55840000  4.56446000  5.85781000
   5.31815000  7.87079000  1.05069000
   5.86062000 11.83610000  6.52899000
   0.25721600 14.30920000  7.26449000
   2.36704000  2.70898000  7.36274000
   8.13155000  6.76525000  6.77390000
   4.64617000  7.75186000  3.77180000
   7.35760000  4.79138000  6.39728000
   5.41458000  9.79271000  3.93349000
   1.95785000 11.30600000  2.81465000
   4.85311000  7.86386000  1.52276000
   8.03911000  6.92078000  3.79166000
   3.53453000  1.09643000  4.60467000
   6.63807000  4.66901000  0.54275100
   7.31033000  9.27249000  6.18952000
   5.46894000 13.08530000  3.44435000
   1.77542000 11.80160000  7.89338000
   5.54359000  9.79485000  6.64808000
   1.04042000  2.00752000  3.89568000
   6.46503000  5.66217000  2.69462000
   2.08591000  6.13989000  1.34273000
   1.40136000  5.84152000  4.02963000
   3.35524000 12.54180000  1.55957000
   4.86641000  9.60563000  6.62196000
   2.88901000  0.38825300  0.01417809
   2.40558000 13.33080000  3.82839000
   3.12287000  9.65952000  4.09728000
   7.54217000  9.81296000  1.66085000
   4.82127000  4.22063000  7.58517000
   7.16363000  6.82465000  0.77085500
   4.21617000 12.45500000  5.94046000
   4.55552000  0.23251400  1.78681000
   5.72225000  1.51253000  4.15900000
   3.94218000  7.84377000  4.10372000
   4.87886000  3.04390000  1.62116000
   5.63814000 10.35540000  4.36188000
   4.44781000  2.49602000  1.82134000
   5.45441000  1.40315000  7.49566000
   2.75959000  0.04345190  7.44386000
   2.93606000  3.66745000  4.11400000
   3.96531000 14.48433590  2.12422000
   3.19761000  3.18518000  3.61261000
   3.18430000 12.11760000  0.95993000
   4.98417000  4.71221000  8.05077011
   2.52923000 12.99650000  3.22144000
   3.51900000 12.54460000  5.92238000
   3.39527000  6.21371000  5.56673000
   0.47809200 11.26150000  5.24088000
  11.92480000  0.94038900  7.03079000
   0.34998100  8.37554000  2.91738000
  13.89930000  6.41873000  0.09494090
   1.12372000  7.30666000  1.05695000
   6.93614000  1.65843000  7.51199000
  13.67930000 13.07510000  4.43442000
   9.41834000  7.13958000  4.09275000
   0.13644000  2.10567000  5.03290000
  13.38230000 10.44410000  7.99441000
   1.20731000  3.33067000  6.65595000
  13.87400000  4.15183000  7.95481000
  12.24600000 14.19250000  2.66014000
  12.75480000  3.13174000  4.73576000
  11.46580000 13.84200000  0.47798600
   9.02216000 14.11510000  0.86604000
  11.93260000  3.24623000  6.98104000
   9.83794000 10.26210000  7.75058000
  14.03020000  0.14194600  6.11343000
  10.94530000  8.06756000  7.41088000
   0.99236800 10.78210000  7.34142000
  13.01010000  4.98596000  3.41142000
  10.39820000 13.45990000  3.77380000
   9.88780000  4.36755000  7.28323000
  12.01300000  7.39183000  1.12116000
  13.76700000  3.28188000  1.92561000
   8.36856000 10.26740000  5.92474000
  12.97550000  9.30309000  2.03787000
   0.02672310  7.47675000  6.31346000
  10.15170000  0.59068600  5.56699000
   6.97718000  1.03755000  3.64773000
   6.81492000 13.34440000  3.86104000
   8.05396000  1.49955000  1.67021000
   8.28360000 14.37260000  6.90795000
  11.65180000 11.74790000  7.50635000
   7.25534000  5.56830000  1.51217000
   0.09084050  6.57409000  4.15077000
   1.71976000  8.61056000  7.26554000
  10.99000000  6.07539000  2.67663000
   8.90372000 10.26830000  1.86293000
   9.82764000  2.70883000  2.58379000
   9.49553000  4.77465000  1.44848000
   8.51239000 12.63890000  2.48695000
   9.62478000  9.48137000  3.98522000
   7.89173000  3.34741000  6.39859000
  12.87640000  8.91104000  6.20158000
   9.58878000  6.58662000  6.35025000
   1.72530000 10.15380000  3.72192000
  11.77510000 11.93770000  5.20765000
   7.15918000 12.30440000  5.92089000
  12.00510000  1.91072000  2.81059000
   8.86718000  2.20051000  4.58828000
  11.97910000  9.90108000  4.17113000



--------------------------------------------------------------------------------------------------------


 k-point     1 :   0.0000 0.0000 0.0000  plane waves:  163695
 k-point     2 :   0.5000 0.0000 0.0000  plane waves:  163690
 k-point     3 :   0.0000 0.5000 0.0000  plane waves:  163690
 k-point     4 :   0.5000 0.5000 0.0000  plane waves:  163884
 k-point     5 :   0.0000 0.0000 0.2500  plane waves:  163774
 k-point     6 :   0.5000 0.0000 0.2500  plane waves:  163754
 k-point     7 :   0.0000 0.5000 0.2500  plane waves:  163754
 k-point     8 :   0.5000 0.5000 0.2500  plane waves:  163728
 k-point     9 :   0.0000 0.0000 0.5000  plane waves:  163702
 k-point    10 :   0.5000 0.0000 0.5000  plane waves:  163800
 k-point    11 :   0.0000 0.5000 0.5000  plane waves:  163800
 k-point    12 :   0.5000 0.5000 0.5000  plane waves:  163896

 maximum and minimum number of plane-waves per node :     10312    10157

 maximum number of plane-waves:    163896
 maximum index in each direction: 
   IXMAX=   41   IYMAX=   41   IZMAX=   23
   IXMIN=  -41   IYMIN=  -41   IZMIN=  -23


 parallel 3D FFT for wavefunctions:
    minimum data exchange during FFTs selected (reduces bandwidth)
 parallel 3D FFT for charge:
    minimum data exchange during FFTs selected (reduces bandwidth)


 total amount of memory used by VASP MPI-rank0   166321. kBytes
=======================================================================

   base                                    :      30000. kBytes
   nonl-proj                               :      32680. kBytes
   fftplans                                :      32798. kBytes
   grid                                    :      25285. kBytes
   one-center                              :         21. kBytes
   wavefun                                 :      45537. kBytes

     INWAV:  cpu time      7.9389: real time      7.9413
 Broyden mixing: mesh for mixing (old mesh)
   NGX = 83   NGY = 83   NGZ = 47
  (NGX  =336   NGY  =336   NGZ  =192)
  gives a total of 323783 points

 initial charge density was supplied:
 number of electron     261.9999999 magnetization 
 keeping initial charge density in first step


--------------------------------------------------------------------------------------------------------


 Maximum index for augmentation-charges        11099 (set IRDMAX)


--------------------------------------------------------------------------------------------------------


 First call to EWALD:  gamma=   0.148
 Maximum number of real-space cells   2x   2x   4
 Maximum number of reciprocal cells   3x   3x   2

    FEWALD:  cpu time      0.0155: real time      0.0157


--------------------------------------- Ionic step        1  -------------------------------------------




--------------------------------------- Iteration      1(   1)  ---------------------------------------


    POTLOK:  cpu time      0.5751: real time      0.5762
    SETDIJ:  cpu time      1.3253: real time      1.3264
    EDDIAG:  cpu time     17.3811: real time     17.3950
     EDDAV:  cpu time     89.0155: real time     89.0921
       DOS:  cpu time      0.0085: real time      0.0089
    CHARGE:  cpu time      7.0664: real time      7.0723
    MIXING:  cpu time      0.0209: real time      0.0212
    --------------------------------------------
      LOOP:  cpu time    115.3929: real time    115.4921

 eigenvalue-minimisations  :  5048
 total energy-change (2. order) :-0.7303679E+03  (-0.7549930E+00)
 number of electron     261.9999999 magnetization 
 augmentation part      -10.7185027 magnetization 

 Broyden mixing:
  rms(total) = 0.97991E+00    rms(broyden)= 0.50419E+02
  rms(prec ) = 0.11087E+01
  weight for this iteration     100.00
  WARNING: grid for Broyden might be to small

 Free energy of the ion-electron system (eV)
  ---------------------------------------------------
  alpha Z        PSCENC =        85.76136919
  Ewald energy   TEWEN  =     -3468.65952822
  -Hartree energ DENC   =     -2971.97654164
  -exchange      EXHF   =         0.00000000
  -V(xc)+E(xc)   XCENC  =       -94.72739764
  PAW double counting   =     23721.13451176   -23194.51978043
  entropy T*S    EENTRO =        -0.08307098
  eigenvalues    EBANDS =      -894.25790754
  atomic energy  EATOM  =      6086.96040057
  Solvation  Ediel_sol  =         0.00000000
  ---------------------------------------------------
  free energy    TOTEN  =      -730.36794493 eV

  energy without entropy =     -730.28487395  energy(sigma->0) =     -730.32640944


--------------------------------------------------------------------------------------------------------




--------------------------------------- Iteration      1(   2)  ---------------------------------------


    POTLOK:  cpu time      0.5833: real time      0.5843
    SETDIJ:  cpu time      1.3200: real time      1.3207
    EDDIAG:  cpu time     17.5591: real time     17.5743
     EDDAV:  cpu time     84.3955: real time     84.4727
       DOS:  cpu time      0.0041: real time      0.0041
    CHARGE:  cpu time      6.9299: real time      6.9354
    MIXING:  cpu time      0.0134: real time      0.0134
    --------------------------------------------
      LOOP:  cpu time    110.8053: real time    110.9049

 eigenvalue-minimisations  :  4608
 total energy-change (2. order) : 0.4686105E+02  (-0.7841337E+00)
 number of electron     261.9999999 magnetization 
 augmentation part      -10.6818937 magnetization 

 Broyden mixing:
  rms(total) = 0.65292E+00    rms(broyden)= 0.28826E+02
  rms(prec ) = 0.71665E+00
  weight for this iteration     100.00
  WARNING: grid for Broyden might be to small

 eigenvalues of (default mixing * dielectric matrix)
  average eigenvalue GAMMA=   0.6362
  0.6362

 Free energy of the ion-electron system (eV)
  ---------------------------------------------------
  alpha Z        PSCENC =        85.76136919
  Ewald energy   TEWEN  =     -3468.65952822
  -Hartree energ DENC   =     -2962.31668737
  -exchange      EXHF   =         0.00000000
  -V(xc)+E(xc)   XCENC  =       -91.73382709
  PAW double counting   =     28218.83976031   -27692.01448741
  entropy T*S    EENTRO =        -0.07994557
  eigenvalues    EBANDS =      -860.26395217
  atomic energy  EATOM  =      6086.96040057
  Solvation  Ediel_sol  =         0.00000000
  ---------------------------------------------------
  free energy    TOTEN  =      -683.50689777 eV

  energy without entropy =     -683.42695220  energy(sigma->0) =     -683.46692498


--------------------------------------------------------------------------------------------------------




--------------------------------------- Iteration      1(   3)  ---------------------------------------


    POTLOK:  cpu time      0.5656: real time      0.5828
    SETDIJ:  cpu time      1.3178: real time      1.3193
    EDDIAG:  cpu time     17.6295: real time     17.6434
     EDDAV:  cpu time     83.1745: real time     83.2480
       DOS:  cpu time      0.0039: real time      0.0039
    CHARGE:  cpu time      7.0930: real time      7.0982
    MIXING:  cpu time      0.0114: real time      0.0114
    --------------------------------------------
      LOOP:  cpu time    109.7957: real time    109.9070

 eigenvalue-minimisations  :  4480
 total energy-change (2. order) :-0.1297182E+01  (-0.5118025E+00)
 number of electron     261.9999999 magnetization 
 augmentation part      -10.6532619 magnetization 

 Broyden mixing:
  rms(total) = 0.41925E+00    rms(broyden)= 0.15005E+02
  rms(prec ) = 0.45048E+00
  weight for this iteration     100.00
  WARNING: grid for Broyden might be to small

 eigenvalues of (default mixing * dielectric matrix)
  average eigenvalue GAMMA=   0.6794
  0.7383  0.6206

 Free energy of the ion-electron system (eV)
  ---------------------------------------------------
  alpha Z        PSCENC =        85.76136919
  Ewald energy   TEWEN  =     -3468.65952822
  -Hartree energ DENC   =     -2964.94071078
  -exchange      EXHF   =         0.00000000
  -V(xc)+E(xc)   XCENC  =       -93.66830467
  PAW double counting   =     31407.50226516   -30880.72219661
  entropy T*S    EENTRO =        -0.08688890
  eigenvalues    EBANDS =      -856.95048530
  atomic energy  EATOM  =      6086.96040057
  Solvation  Ediel_sol  =         0.00000000
  ---------------------------------------------------
  free energy    TOTEN  =      -684.80407958 eV

  energy without entropy =     -684.71719068  energy(sigma->0) =     -684.76063513


--------------------------------------------------------------------------------------------------------




--------------------------------------- Iteration      1(   4)  ---------------------------------------


    POTLOK:  cpu time      0.5658: real time      0.5817
    SETDIJ:  cpu time      1.3182: real time      1.3194
    EDDIAG:  cpu time     17.5838: real time     17.5989
     EDDAV:  cpu time     89.3083: real time     89.3886
       DOS:  cpu time      0.0053: real time      0.0053
    CHARGE:  cpu time      7.1702: real time      7.1760
    MIXING:  cpu time      0.0117: real time      0.0117
    --------------------------------------------
      LOOP:  cpu time    115.9632: real time    116.0815

 eigenvalue-minimisations  :  5064
 total energy-change (2. order) :-0.2034431E+00  (-0.7692667E-01)
 number of electron     261.9999999 magnetization 
 augmentation part      -10.6486285 magnetization 

 Broyden mixing:
  rms(total) = 0.11414E+00    rms(broyden)= 0.17876E+01
  rms(prec ) = 0.22114E+00
  weight for this iteration     100.00
  WARNING: grid for Broyden might be to small

 eigenvalues of (default mixing * dielectric matrix)
  average eigenvalue GAMMA=   0.7123
  0.9089  0.6140  0.6140

 Free energy of the ion-electron system (eV)
  ---------------------------------------------------
  alpha Z        PSCENC =        85.76136919
  Ewald energy   TEWEN  =     -3468.65952822
  -Hartree energ DENC   =     -2971.05041307
  -exchange      EXHF   =         0.00000000
  -V(xc)+E(xc)   XCENC  =       -93.03535749
  PAW double counting   =     37095.62073407   -36568.88605749
  entropy T*S    EENTRO =        -0.04554372
  eigenvalues    EBANDS =      -851.67312648
  atomic energy  EATOM  =      6086.96040057
  Solvation  Ediel_sol  =         0.00000000
  ---------------------------------------------------
  free energy    TOTEN  =      -685.00752264 eV

  energy without entropy =     -684.96197892  energy(sigma->0) =     -684.98475078


--------------------------------------------------------------------------------------------------------




--------------------------------------- Iteration      1(   5)  ---------------------------------------


    POTLOK:  cpu time      0.5717: real time      0.5849
    SETDIJ:  cpu time      1.3198: real time      1.3209
    EDDIAG:  cpu time     17.6829: real time     17.6974
     EDDAV:  cpu time     90.9652: real time     91.0472
       DOS:  cpu time      0.0036: real time      0.0041
    CHARGE:  cpu time      6.9455: real time      6.9508
    MIXING:  cpu time      0.0118: real time      0.0118
    --------------------------------------------
      LOOP:  cpu time    117.5005: real time    117.6171

 eigenvalue-minimisations  :  5208
 total energy-change (2. order) : 0.3348713E-02  (-0.5882901E-01)
 number of electron     261.9999999 magnetization 
 augmentation part      -10.6472003 magnetization 

 Broyden mixing:
  rms(total) = 0.92067E-01    rms(broyden)= 0.18018E+01
  rms(prec ) = 0.17969E+00
  weight for this iteration     100.00
  WARNING: grid for Broyden might be to small

 eigenvalues of (default mixing * dielectric matrix)
  average eigenvalue GAMMA=   0.8321
  1.6753  0.7301  0.6213  0.3017

 Free energy of the ion-electron system (eV)
  ---------------------------------------------------
  alpha Z        PSCENC =        85.76136919
  Ewald energy   TEWEN  =     -3468.65952822
  -Hartree energ DENC   =     -2971.40231247
  -exchange      EXHF   =         0.00000000
  -V(xc)+E(xc)   XCENC  =       -93.57347097
  PAW double counting   =     37333.79281682   -36807.05641486
  entropy T*S    EENTRO =        -0.08794237
  eigenvalues    EBANDS =      -850.73909161
  atomic energy  EATOM  =      6086.96040057
  Solvation  Ediel_sol  =         0.00000000
  ---------------------------------------------------
  free energy    TOTEN  =      -685.00417392 eV

  energy without entropy =     -684.91623156  energy(sigma->0) =     -684.96020274


--------------------------------------------------------------------------------------------------------




--------------------------------------- Iteration      1(   6)  ---------------------------------------


    POTLOK:  cpu time      0.5787: real time      0.5830
    SETDIJ:  cpu time      1.3198: real time      1.3206
    EDDIAG:  cpu time     17.6318: real time     17.6477
     EDDAV:  cpu time     85.5554: real time     85.6315
       DOS:  cpu time      0.0036: real time      0.0036
    CHARGE:  cpu time      6.9879: real time      6.9937
    MIXING:  cpu time      0.0118: real time      0.0118
    --------------------------------------------
      LOOP:  cpu time    112.0889: real time    112.1919

 eigenvalue-minimisations  :  4688
 total energy-change (2. order) : 0.1178833E-01  (-0.1783527E-01)
 number of electron     261.9999999 magnetization 
 augmentation part      -10.6487402 magnetization 

 Broyden mixing:
  rms(total) = 0.23818E-01    rms(broyden)= 0.37382E+00
  rms(prec ) = 0.39156E-01
  weight for this iteration     100.00
  WARNING: grid for Broyden might be to small

 eigenvalues of (default mixing * dielectric matrix)
  average eigenvalue GAMMA=   0.9990
  2.5452  0.8969  0.6429  0.6429  0.2669

 Free energy of the ion-electron system (eV)
  ---------------------------------------------------
  alpha Z        PSCENC =        85.76136919
  Ewald energy   TEWEN  =     -3468.65952822
  -Hartree energ DENC   =     -2971.57262984
  -exchange      EXHF   =         0.00000000
  -V(xc)+E(xc)   XCENC  =       -93.77642220
  PAW double counting   =     37175.76952986   -36649.02366564
  entropy T*S    EENTRO =        -0.07886127
  eigenvalues    EBANDS =      -850.37257803
  atomic energy  EATOM  =      6086.96040057
  Solvation  Ediel_sol  =         0.00000000
  ---------------------------------------------------
  free energy    TOTEN  =      -684.99238559 eV

  energy without entropy =     -684.91352433  energy(sigma->0) =     -684.95295496


--------------------------------------------------------------------------------------------------------




--------------------------------------- Iteration      1(   7)  ---------------------------------------


    POTLOK:  cpu time      0.5694: real time      0.5862
    SETDIJ:  cpu time      1.3190: real time      1.3204
    EDDIAG:  cpu time     17.6493: real time     17.6634
     EDDAV:  cpu time     84.9833: real time     85.0620
       DOS:  cpu time      0.0041: real time      0.0041
    CHARGE:  cpu time      7.1780: real time      7.1846
    MIXING:  cpu time      0.0118: real time      0.0118
    --------------------------------------------
      LOOP:  cpu time    111.7149: real time    111.8324

 eigenvalue-minimisations  :  4624
 total energy-change (2. order) : 0.1428652E-02  (-0.1810362E-02)
 number of electron     261.9999999 magnetization 
 augmentation part      -10.6477930 magnetization 

 Broyden mixing:
  rms(total) = 0.86041E-02    rms(broyden)= 0.28365E+00
  rms(prec ) = 0.11054E-01
  weight for this iteration     100.00
  WARNING: grid for Broyden might be to small

 eigenvalues of (default mixing * dielectric matrix)
  average eigenvalue GAMMA=   0.9830
  2.5546  1.0505  0.2659  0.7600  0.6341  0.6328

 Free energy of the ion-electron system (eV)
  ---------------------------------------------------
  alpha Z        PSCENC =        85.76136919
  Ewald energy   TEWEN  =     -3468.65952822
  -Hartree energ DENC   =     -2971.91865172
  -exchange      EXHF   =         0.00000000
  -V(xc)+E(xc)   XCENC  =       -93.76539279
  PAW double counting   =     37147.52906431   -36620.77499999
  entropy T*S    EENTRO =        -0.08216879
  eigenvalues    EBANDS =      -850.04104949
  atomic energy  EATOM  =      6086.96040057
  Solvation  Ediel_sol  =         0.00000000
  ---------------------------------------------------
  free energy    TOTEN  =      -684.99095694 eV

  energy without entropy =     -684.90878815  energy(sigma->0) =     -684.94987255


--------------------------------------------------------------------------------------------------------




--------------------------------------- Iteration      1(   8)  ---------------------------------------


    POTLOK:  cpu time      0.5691: real time      0.5840
    SETDIJ:  cpu time      1.3152: real time      1.3163
    EDDIAG:  cpu time     17.6542: real time     17.6696
     EDDAV:  cpu time     91.5861: real time     91.6729
       DOS:  cpu time      0.0036: real time      0.0036
    CHARGE:  cpu time      7.0685: real time      7.0741
    MIXING:  cpu time      0.0125: real time      0.0125
    --------------------------------------------
      LOOP:  cpu time    118.2092: real time    118.3331

 eigenvalue-minimisations  :  5224
 total energy-change (2. order) :-0.2647920E-03  (-0.1272557E-03)
 number of electron     261.9999999 magnetization 
 augmentation part      -10.6468087 magnetization 

 Broyden mixing:
  rms(total) = 0.63537E-02    rms(broyden)= 0.13571E+00
  rms(prec ) = 0.11283E-01
  weight for this iteration     100.00
  WARNING: grid for Broyden might be to small

 eigenvalues of (default mixing * dielectric matrix)
  average eigenvalue GAMMA=   1.0072
  2.5753  1.2982  0.9468  0.2662  0.7089  0.6358  0.6193

 Free energy of the ion-electron system (eV)
  ---------------------------------------------------
  alpha Z        PSCENC =        85.76136919
  Ewald energy   TEWEN  =     -3468.65952822
  -Hartree energ DENC   =     -2972.21487369
  -exchange      EXHF   =         0.00000000
  -V(xc)+E(xc)   XCENC  =       -93.71128547
  PAW double counting   =     37151.51508730   -36624.75372241
  entropy T*S    EENTRO =        -0.08366557
  eigenvalues    EBANDS =      -849.80500342
  atomic energy  EATOM  =      6086.96040057
  Solvation  Ediel_sol  =         0.00000000
  ---------------------------------------------------
  free energy    TOTEN  =      -684.99122173 eV

  energy without entropy =     -684.90755617  energy(sigma->0) =     -684.94938895


--------------------------------------------------------------------------------------------------------




--------------------------------------- Iteration      1(   9)  ---------------------------------------


    POTLOK:  cpu time      0.5680: real time      0.5825
    SETDIJ:  cpu time      1.3363: real time      1.3378
    EDDIAG:  cpu time     17.6689: real time     17.6828
     EDDAV:  cpu time     87.0135: real time     87.0865
       DOS:  cpu time      0.0049: real time      0.0049
    CHARGE:  cpu time      6.8958: real time      6.9009
    MIXING:  cpu time      0.0122: real time      0.0122
    --------------------------------------------
      LOOP:  cpu time    113.4998: real time    113.6079

 eigenvalue-minimisations  :  4824
 total energy-change (2. order) : 0.4304915E-05  (-0.3484179E-04)
 number of electron     261.9999999 magnetization 
 augmentation part      -10.6469235 magnetization 

 Broyden mixing:
  rms(total) = 0.17798E-02    rms(broyden)= 0.53083E-01
  rms(prec ) = 0.27593E-02
  weight for this iteration     100.00
  WARNING: grid for Broyden might be to small

 eigenvalues of (default mixing * dielectric matrix)
  average eigenvalue GAMMA=   1.0792
  2.6049  2.0097  1.0278  0.2662  0.8152  0.6736  0.6290  0.6075

 Free energy of the ion-electron system (eV)
  ---------------------------------------------------
  alpha Z        PSCENC =        85.76136919
  Ewald energy   TEWEN  =     -3468.65952822
  -Hartree energ DENC   =     -2972.30151606
  -exchange      EXHF   =         0.00000000
  -V(xc)+E(xc)   XCENC  =       -93.71343806
  PAW double counting   =     37159.98678458   -36633.22218982
  entropy T*S    EENTRO =        -0.08250886
  eigenvalues    EBANDS =      -849.72059074
  atomic energy  EATOM  =      6086.96040057
  Solvation  Ediel_sol  =         0.00000000
  ---------------------------------------------------
  free energy    TOTEN  =      -684.99121743 eV

  energy without entropy =     -684.90870856  energy(sigma->0) =     -684.94996300


--------------------------------------------------------------------------------------------------------




--------------------------------------- Iteration      1(  10)  ---------------------------------------


    POTLOK:  cpu time      0.5666: real time      0.5820
    SETDIJ:  cpu time      1.3195: real time      1.3201
    EDDIAG:  cpu time     17.6624: real time     17.6789
     EDDAV:  cpu time     86.0042: real time     86.0845
       DOS:  cpu time      0.0037: real time      0.0037
    CHARGE:  cpu time      6.9536: real time      6.9594
    MIXING:  cpu time      0.0126: real time      0.0126
    --------------------------------------------
      LOOP:  cpu time    112.5225: real time    112.6410

 eigenvalue-minimisations  :  4728
 total energy-change (2. order) :-0.1599347E-04  (-0.1588059E-04)
 number of electron     261.9999999 magnetization 
 augmentation part      -10.6468792 magnetization 

 Broyden mixing:
  rms(total) = 0.73743E-03    rms(broyden)= 0.35842E-01
  rms(prec ) = 0.12154E-02
  weight for this iteration     100.00
  WARNING: grid for Broyden might be to small

 eigenvalues of (default mixing * dielectric matrix)
  average eigenvalue GAMMA=   1.1378
  2.6093  2.5851  1.1179  1.0314  0.2662  0.7573  0.6531  0.6276  0.5920

 Free energy of the ion-electron system (eV)
  ---------------------------------------------------
  alpha Z        PSCENC =        85.76136919
  Ewald energy   TEWEN  =     -3468.65952822
  -Hartree energ DENC   =     -2972.34615386
  -exchange      EXHF   =         0.00000000
  -V(xc)+E(xc)   XCENC  =       -93.71018822
  PAW double counting   =     37155.09877796   -36628.33200156
  entropy T*S    EENTRO =        -0.08261875
  eigenvalues    EBANDS =      -849.68129052
  atomic energy  EATOM  =      6086.96040057
  Solvation  Ediel_sol  =         0.00000000
  ---------------------------------------------------
  free energy    TOTEN  =      -684.99123342 eV

  energy without entropy =     -684.90861467  energy(sigma->0) =     -684.94992405


--------------------------------------------------------------------------------------------------------




--------------------------------------- Iteration      1(  11)  ---------------------------------------


    POTLOK:  cpu time      0.5678: real time      0.5856
    SETDIJ:  cpu time      1.3208: real time      1.3214
    EDDIAG:  cpu time     17.7097: real time     17.7251
     EDDAV:  cpu time     90.9902: real time     91.0700
       DOS:  cpu time      0.0042: real time      0.0042
    CHARGE:  cpu time      6.9540: real time      6.9599
    MIXING:  cpu time      0.0130: real time      0.0130
    --------------------------------------------
      LOOP:  cpu time    117.5597: real time    117.6792

 eigenvalue-minimisations  :  5144
 total energy-change (2. order) : 0.9883297E-07  (-0.2970141E-05)
 number of electron     261.9999999 magnetization 
 augmentation part      -10.6469021 magnetization 

 Broyden mixing:
  rms(total) = 0.41779E-03    rms(broyden)= 0.14949E-01
  rms(prec ) = 0.68558E-03
  weight for this iteration     100.00
  WARNING: grid for Broyden might be to small

 eigenvalues of (default mixing * dielectric matrix)
  average eigenvalue GAMMA=   1.1830
  3.1417  2.5801  1.3985  1.0220  0.2662  0.8795  0.7100  0.6297  0.6297  0.5730

 Free energy of the ion-electron system (eV)
  ---------------------------------------------------
  alpha Z        PSCENC =        85.76136919
  Ewald energy   TEWEN  =     -3468.65952822
  -Hartree energ DENC   =     -2972.36004774
  -exchange      EXHF   =         0.00000000
  -V(xc)+E(xc)   XCENC  =       -93.71184711
  PAW double counting   =     37154.01682040   -36627.24921212
  entropy T*S    EENTRO =        -0.08275514
  eigenvalues    EBANDS =      -849.66643313
  atomic energy  EATOM  =      6086.96040057
  Solvation  Ediel_sol  =         0.00000000
  ---------------------------------------------------
  free energy    TOTEN  =      -684.99123332 eV

  energy without entropy =     -684.90847818  energy(sigma->0) =     -684.94985575


--------------------------------------------------------------------------------------------------------




--------------------------------------- Iteration      1(  12)  ---------------------------------------


    POTLOK:  cpu time      0.5655: real time      0.5831
    SETDIJ:  cpu time      1.3194: real time      1.3210
    EDDIAG:  cpu time     17.5675: real time     17.5822
     EDDAV:  cpu time     87.3401: real time     87.4192
       DOS:  cpu time      0.0034: real time      0.0034
    --------------------------------------------
      LOOP:  cpu time    106.7964: real time    106.9093

 eigenvalue-minimisations  :  4872
 total energy-change (2. order) :-0.3820096E-06  (-0.8533999E-06)
 number of electron     261.9999999 magnetization 
 augmentation part      -10.6469021 magnetization 

 Free energy of the ion-electron system (eV)
  ---------------------------------------------------
  alpha Z        PSCENC =        85.76136919
  Ewald energy   TEWEN  =     -3468.65952822
  -Hartree energ DENC   =     -2972.36312145
  -exchange      EXHF   =         0.00000000
  -V(xc)+E(xc)   XCENC  =       -93.71368316
  PAW double counting   =     37154.00712068   -36627.23936427
  entropy T*S    EENTRO =        -0.08269623
  eigenvalues    EBANDS =      -849.66173082
  atomic energy  EATOM  =      6086.96040057
  Solvation  Ediel_sol  =         0.00000000
  ---------------------------------------------------
  free energy    TOTEN  =      -684.99123371 eV

  energy without entropy =     -684.90853748  energy(sigma->0) =     -684.94988559


--------------------------------------------------------------------------------------------------------




 average (electrostatic) potential at core
  the test charge radii are     0.5201  0.9892
  (the norm of the test charge is              1.0000)
       1 -36.6082       2 -37.1281       3 -36.6979       4 -35.9790       5 -37.7007
       6 -36.3628       7 -36.5111       8 -36.4141       9 -36.0180      10 -36.6382
      11 -36.2248      12 -36.8905      13 -36.4269      14 -37.6643      15 -36.6886
      16 -37.0996      17 -36.2691      18 -36.4764      19 -36.4031      20 -37.1901
      21 -37.2320      22 -36.4211      23 -36.7193      24 -35.9915      25 -36.0500
      26 -36.8270      27 -37.0787      28 -36.3910      29 -37.3777      30 -36.2493
      31 -36.3940      32 -37.1573      33 -36.2508      34 -37.3897      35 -36.8548
      36 -36.6799      37 -36.6990      38 -37.0047      39 -36.9022      40 -37.0140
      41 -36.5520      42 -36.3660      43 -36.7492      44 -36.8947      45 -36.7564
      46 -36.8324      47 -37.3310      48 -37.5416      49 -37.2454      50 -36.6847
      51 -90.2723      52 -89.8784      53 -89.6688      54 -89.5619      55 -89.6980
      56 -90.0107      57 -90.1893      58 -89.7029      59 -89.4442      60 -89.9854
      61 -89.6570      62 -89.7457      63 -90.1557      64 -89.6711      65 -90.0092
      66 -89.4584      67 -89.9578      68 -90.0675      69 -89.7949      70 -89.6918
      71 -89.9272      72 -89.8270      73 -89.7824      74 -89.9176      75 -89.6476
      76 -89.5501      77 -89.9950      78 -90.0142      79 -89.5780      80 -89.7935
      81 -89.5668      82 -89.4959      83 -89.6954      84 -89.7137      85 -89.9955
      86 -89.5972      87 -89.8028      88 -89.8844      89 -89.8164      90 -89.9785
      91 -89.7615      92 -89.7709      93 -89.7209      94 -89.9167      95 -89.8728
      96 -89.8705      97 -89.7592      98 -89.8230      99 -89.7099     100 -89.8100
     101 -89.9186     102 -89.6707     103 -89.9499



 E-fermi :   2.3117     XC(G=0):  -7.9884     alpha+bet : -8.1235

 WARNING: Could not determine fundamental gap because eigenvalues are not
     sorted.

 Fermi energy:         2.3117443701

 k-point     1 :       0.0000    0.0000    0.0000
  band No.  band energies     occupation 
      1     -10.2833      2.00000
      2      -9.9233      2.00000
      3      -9.5063      2.00000
      4      -9.3035      2.00000
      5      -9.1979      2.00000
      6      -8.7875      2.00000
      7      -8.5324      2.00000
      8      -8.4661      2.00000
      9      -8.3379      2.00000
     10      -8.2475      2.00000
     11      -7.9872      2.00000
     12      -7.9740      2.00000
     13      -7.8097      2.00000
     14      -7.7598      2.00000
     15      -7.6738      2.00000
     16      -7.5930      2.00000
     17      -7.5741      2.00000
     18      -7.5599      2.00000
     19      -7.3690      2.00000
     20      -7.2760      2.00000
     21      -7.1533      2.00000
     22      -7.0851      2.00000
     23      -6.9846      2.00000
     24      -6.7941      2.00000
     25      -6.7462      2.00000
     26      -6.4926      2.00000
     27      -6.2504      2.00000
     28      -6.1982      2.00000
     29      -5.9335      2.00000
     30      -5.9029      2.00000
     31      -5.7395      2.00000
     32      -5.7104      2.00000
     33      -5.5221      2.00000
     34      -5.4927      2.00000
     35      -5.4607      2.00000
     36      -5.2651      2.00000
     37      -5.1392      2.00000
     38      -5.0222      2.00000
     39      -4.9794      2.00000
     40      -4.9465      2.00000
     41      -4.8247      2.00000
     42      -4.7699      2.00000
     43      -4.6967      2.00000
     44      -4.6370      2.00000
     45      -4.5561      2.00000
[...]
   -.396E+02 -.113E+02 -.842E+01   0.399E+02 0.767E+01 0.771E+01   -.239E+00 0.386E+01 0.492E+00   -.592E-04 0.818E-03 0.606E-03
   0.273E+02 0.184E+02 0.109E+01   -.248E+02 -.185E+02 -.162E+01   -.271E+01 -.502E+00 0.246E+01   0.135E-03 -.391E-03 0.278E-03
   0.330E+02 -.115E+02 0.873E+01   -.350E+02 0.115E+02 -.848E+01   0.172E+01 0.115E+00 -.433E-01   -.812E-03 0.313E-03 -.112E-03
   0.152E+02 0.937E+01 -.110E+02   -.158E+02 -.877E+01 0.107E+02   0.952E+00 -.373E+00 0.625E+00   0.326E-04 0.828E-03 -.309E-03
   -.107E+03 0.370E+02 0.123E+02   0.108E+03 -.367E+02 -.125E+02   -.134E+01 -.739E-01 0.601E+00   -.628E-03 0.366E-03 0.207E-03
   0.821E+02 0.161E+02 -.198E+00   -.846E+02 -.170E+02 0.161E+01   0.271E+01 0.152E+01 -.179E+01   -.757E-03 -.413E-03 0.347E-04
   -.226E+02 -.442E+02 -.788E+01   0.235E+02 0.405E+02 0.732E+01   -.664E+00 0.393E+01 0.548E+00   0.323E-03 0.297E-03 0.961E-05
   -.763E+02 0.342E+02 0.226E+02   0.749E+02 -.332E+02 -.217E+02   0.537E+00 -.198E+01 -.203E+01   0.608E-03 0.779E-03 0.303E-04
   0.143E+02 0.527E+01 -.416E+01   -.156E+02 -.430E+01 0.415E+01   0.402E+00 -.236E+01 -.425E+00   -.176E-03 -.715E-03 -.467E-04
   0.106E+03 -.235E+02 0.114E+01   -.106E+03 0.230E+02 -.195E+00   0.148E+01 0.261E+00 -.408E+00   -.328E-03 -.851E-04 0.778E-04
   0.920E+02 0.232E+02 0.560E+01   -.942E+02 -.228E+02 -.637E+01   0.260E+01 -.751E+00 0.105E+01   -.524E-03 -.420E-03 -.727E-05
   0.942E+02 -.271E+02 0.168E+02   -.922E+02 0.256E+02 -.153E+02   -.224E+01 0.138E+01 -.294E+01   -.306E-03 -.821E-04 0.100E-03
   0.845E+02 0.246E+02 0.442E+01   -.830E+02 -.236E+02 -.137E+01   -.209E+01 -.200E+01 -.396E+01   -.186E-04 -.300E-03 -.369E-04
   -.290E+01 -.255E+02 -.262E+02   0.412E+01 0.236E+02 0.255E+02   -.209E+01 0.265E+01 0.788E+00   0.160E-03 -.249E-03 -.448E-03
   0.860E+02 -.201E+02 -.207E+02   -.898E+02 0.206E+02 0.175E+02   0.477E+01 -.780E+00 0.207E+01   -.156E-02 0.783E-03 0.165E-04
   -.679E+02 0.334E+02 -.452E+01   0.708E+02 -.326E+02 0.406E+01   -.281E+01 -.237E+01 0.147E+01   0.906E-03 0.919E-03 0.172E-03
   -.121E+03 -.339E+01 -.132E+02   0.121E+03 0.213E+01 0.120E+02   0.962E+00 0.104E+01 0.191E+01   0.106E-02 0.321E-03 -.255E-03
   0.279E+02 0.774E+00 -.211E+02   -.284E+02 -.600E+00 0.187E+02   0.456E+00 -.432E+00 0.242E+01   -.356E-03 0.675E-03 -.599E-04
   0.697E+02 0.207E+02 0.102E+02   -.740E+02 -.207E+02 -.986E+01   0.427E+01 0.138E+01 -.198E+00   -.745E-03 -.122E-03 -.857E-04
   0.277E+02 -.275E+02 0.900E+01   -.301E+02 0.269E+02 -.812E+01   0.174E+01 0.137E+01 -.175E+01   -.829E-03 -.310E-03 0.136E-04
   0.597E+02 -.145E+02 -.308E+01   -.588E+02 0.148E+02 0.365E+01   -.475E+00 -.626E+00 -.170E+00   -.953E-03 0.363E-03 -.951E-04
   0.795E+02 0.445E+02 0.148E+02   -.801E+02 -.424E+02 -.159E+02   0.127E+01 -.319E+01 0.115E+01   -.230E-03 -.162E-03 -.170E-05
   0.708E+02 0.574E+01 0.117E+02   -.689E+02 -.805E+01 -.119E+02   -.122E+01 0.181E+01 0.309E+00   -.378E-03 0.116E-03 0.197E-03
   0.993E+02 -.356E+02 0.165E+02   -.985E+02 0.362E+02 -.162E+02   0.454E+00 0.134E+01 -.739E+00   -.779E-03 0.437E-03 -.580E-04
   -.150E+02 0.701E+01 0.231E+02   0.162E+02 -.934E+01 -.215E+02   -.207E+01 0.257E+01 -.159E+01   0.192E-03 0.621E-03 0.141E-04
   0.607E+02 0.813E+01 0.848E+01   -.628E+02 -.666E+01 -.807E+01   0.129E+01 -.227E+01 -.265E+00   -.801E-03 0.557E-03 0.116E-03
   -.893E+02 -.825E+01 0.207E+02   0.902E+02 0.111E+02 -.207E+02   -.307E+00 -.354E+01 -.354E+00   0.709E-03 0.330E-03 0.533E-03
   0.184E+01 -.104E+02 0.405E+01   -.320E+00 0.102E+02 -.595E+01   -.191E+01 0.134E+01 0.491E+00   0.486E-03 0.119E-03 -.101E-03
   0.801E+02 0.138E+02 -.251E+02   -.818E+02 -.149E+02 0.238E+02   0.227E+01 0.196E+01 0.148E+01   -.710E-03 -.485E-03 0.383E-04
   -.380E+02 0.125E+02 0.229E+02   0.387E+02 -.111E+02 -.225E+02   0.101E+00 -.612E+00 -.564E+00   -.756E-03 -.939E-03 0.511E-03
   0.655E+02 -.457E+02 -.308E+01   -.652E+02 0.439E+02 0.273E+01   -.133E+01 0.202E+01 0.693E+00   -.503E-03 -.343E-03 0.578E-05
   -.112E+02 0.444E+01 0.274E+02   0.895E+01 -.287E+01 -.256E+02   0.153E+01 -.184E+01 -.169E+01   0.499E-03 0.322E-03 0.373E-03
 -----------------------------------------------------------------------------------------------
   -.239E+02 -.296E+01 -.611E+01   -.304E-12 -.302E-13 0.568E-13   0.239E+02 0.295E+01 0.612E+01   -.351E-02 0.170E-02 -.253E-03


 POSITION                                       TOTAL-FORCE (eV/Angst)
 -----------------------------------------------------------------------------------
      3.06501      8.44514      6.68999         0.120779      0.070343      0.038401
      3.90655      0.48517      4.53883         0.376018     -0.802012     -0.018934
      3.33651      6.25955      6.31856         0.104426     -0.116357     -0.511994
      1.55840      4.56446      5.85781         0.273896     -0.317284      0.467844
      5.31815      7.87079      1.05069         2.584784      0.099027     -2.704867
      5.86062     11.83610      6.52899         0.461194      0.487398      0.055521
      0.25722     14.30920      7.26449         0.212642     -0.160746      0.098053
      2.36704      2.70898      7.36274        -0.213883      0.252818     -0.028888
      8.13155      6.76525      6.77390         0.610120      0.100429     -0.006455
      4.64617      7.75186      3.77180        -1.152369      0.017864      0.577818
      7.35760      4.79138      6.39728        -0.390743     -1.010007     -0.474932
      5.41458      9.79271      3.93349         0.045088      0.019011     -0.075758
      1.95785     11.30600      2.81465        -0.211592     -0.591658     -0.464164
      4.85311      7.86386      1.52276        -2.750290      0.004576      2.667675
      8.03911      6.92078      3.79166        -1.000549     -0.501115     -0.434898
      3.53453      1.09643      4.60467        -0.573109      0.742071      0.151024
      6.63807      4.66901      0.54275        -0.085531     -0.393796      0.124850
      7.31033      9.27249      6.18952         0.074802     -0.227237      0.011419
      5.46894     13.08530      3.44435        -0.978390     -0.422551     -0.512071
      1.77542     11.80160      7.89338         0.909787      1.125883      0.887942
      5.54359      9.79485      6.64808         1.372325      0.342977      0.152157
      1.04042      2.00752      3.89568         0.169826     -0.286102     -0.463049
      6.46503      5.66217      2.69462        -0.463331     -0.113695      0.942528
      2.08591      6.13989      1.34273        -0.160685      0.714203     -0.119827
      1.40136      5.84152      4.02963        -0.255103      0.074809     -0.060954
      3.35524     12.54180      1.55957         0.070036     -0.281861     -0.450690
      4.86641      9.60563      6.62196        -1.639696     -0.476197      0.010120
      2.88901      0.38825      0.01418        -0.307682     -0.874145     -1.792636
      2.40558     13.33080      3.82839        -0.251319      0.948018      1.398177
      3.12287      9.65952      4.09728        -0.835942      0.320766      0.085788
      7.54217      9.81296      1.66085        -0.718942     -0.371675     -0.056862
      4.82127      4.22063      7.58517        -0.701810     -1.356477     -1.419779
      7.16363      6.82465      0.77086         0.258486      0.472409      0.082532
      4.21617     12.45500      5.94046         1.545321     -0.194671      0.028708
      4.55552      0.23251      1.78681        -0.453220     -0.230188      0.236061
      5.72225      1.51253      4.15900        -0.675282      0.714600      0.009236
      3.94218      7.84377      4.10372         1.240753     -0.233212     -0.587282
      4.87886      3.04390      1.62116         0.361609      0.483806     -0.174890
      5.63814     10.35540      4.36188         0.041133      0.069393     -0.056170
      4.44781      2.49602      1.82134        -0.375824     -0.457342      0.169670
      5.45441      1.40315      7.49566         0.298339      0.267412     -0.020695
      2.75959      0.04345      7.44386         0.320507      0.833148      1.756317
      2.93606      3.66745      4.11400         0.040341      0.023724     -0.021517
      3.96531     14.48434      2.12422         0.493729      0.350866     -0.270711
      3.19761      3.18518      3.61261         0.030022      0.085856      0.022457
      3.18430     12.11760      0.95993         0.216111      0.284013      0.372986
      4.98417      4.71221      8.05077         0.225527      1.310098      1.114864
      2.52923     12.99650      3.22144         0.289571     -0.570247     -1.262839
      3.51900     12.54460      5.92238        -1.789509      0.229331     -0.066722
      3.39527      6.21371      5.56673        -0.002789     -0.040810      0.503546
      0.47809     11.26150      5.24088        -0.683721      0.830627     -1.242469
     11.92480      0.94039      7.03079         0.589810     -0.974635     -0.062173
      0.34998      8.37554      2.91738         0.579242      1.931640     -1.136167
     13.89930      6.41873      0.09494        -0.871596     -0.547590     -0.300606
      1.12372      7.30666      1.05695         1.950744     -0.236069      0.136544
      6.93614      1.65843      7.51199         0.297432     -1.066804      1.503749
     13.67930     13.07510      4.43442         0.073852      0.028974      0.909474
      9.41834      7.13958      4.09275         1.372359      0.521333      0.372291
      0.13644      2.10567      5.03290         0.812639     -0.714148      0.955277
     13.38230     10.44410      7.99441         0.615504     -0.885696      0.923010
      1.20731      3.33067      6.65595        -0.804856      1.003670      0.070536
     13.87400      4.15183      7.95481         0.579502     -0.865803     -0.313357
     12.24600     14.19250      2.66014         0.597685     -0.435542     -0.082168
     12.75480      3.13174      4.73576        -1.212256      0.125455      0.176013
     11.46580     13.84200      0.47799        -0.797027      0.468595      0.039789
      9.02216     14.11510      0.86604         1.183316     -0.040957      0.242334
     11.93260      3.24623      6.98104         0.245873      0.335975     -0.426109
      9.83794     10.26210      7.75058         0.517473     -1.130624      0.756288
     14.03020      0.14195      6.11343        -0.813078      0.460277     -0.721260
     10.94530      8.06756      7.41088        -0.165905      1.690561     -0.517006
      0.99237     10.78210      7.34142        -1.098269     -0.510852      0.383840
     13.01010      4.98596      3.41142         0.105008      0.444913     -0.167419
     10.39820     13.45990      3.77380        -0.277998     -0.561518      2.070939
      9.88780      4.36755      7.28323        -0.243698      0.120841      0.224831
     12.01300      7.39183      1.12116         0.360779      0.226161      0.269039
     13.76700      3.28188      1.92561        -0.524231      0.300056      0.494101
      8.36856     10.26740      5.92474         0.263835      0.649662     -0.435279
     12.97550      9.30309      2.03787         0.280684      0.342958      0.042932
      0.02672      7.47675      6.31346        -0.865125     -0.984637     -1.133329
     10.15170      0.59069      5.56699        -0.938343     -1.519441     -0.450389
      6.97718      1.03755      3.64773         1.316249     -0.199421      0.536432
      6.81492     13.34440      3.86104         0.503049     -0.411624      0.304312
      8.05396      1.49955      1.67021        -0.350120     -0.077401     -1.560877
      8.28360     14.37260      6.90795        -0.679123     -1.060604     -1.063801
     11.65180     11.74790      7.50635        -0.978903      0.944764      0.075971
      7.25534      5.56830      1.51217         1.086574     -0.349803     -1.010480
      0.09084      6.57409      4.15077        -0.020785     -1.663375      1.081116
      1.71976      8.61056      7.26554         0.751416     -0.170899      0.786699
     10.99000      6.07539      2.67663        -0.071731     -0.263704      0.095487
      8.90372     10.26830      1.86293         0.153235      1.438904      0.120073
      9.82764      2.70883      2.58379        -0.605454      0.855980     -0.951139
      9.49553      4.77465      1.44848         0.374459     -0.362391      0.413181
      8.51239     12.63890      2.48695         0.740694     -1.246973      0.113505
      9.62478      9.48137      3.98522         0.547550     -0.414433      0.157987
      7.89173      3.34741      6.39859         1.237872      1.955288     -0.432001
     12.87640      8.91104      6.20158        -0.931315      0.411025     -0.012834
      9.58878      6.58662      6.35025        -0.700887     -0.887169      0.158751
      1.72530     10.15380      3.72192         0.583662     -0.778874     -0.419488
     11.77510     11.93770      5.20765        -0.456083      1.196227     -1.414876
      7.15918     12.30440      5.92089         0.624742      0.972658      0.261726
     12.00510      1.91072      2.81059         0.830791      0.778650     -0.160608
      8.86718      2.20051      4.58828        -1.141331      0.262526      0.366129
     11.97910      9.90108      4.17113        -0.703776     -0.352199      0.063368
 -----------------------------------------------------------------------------------
    total drift:                               -0.002720     -0.001826      0.004085


--------------------------------------------------------------------------------------------------------



  FREE ENERGIE OF THE ION-ELECTRON SYSTEM (eV)
  ---------------------------------------------------
  free  energy   TOTEN  =      -684.99123371 eV

  energy  without entropy=     -684.90853748  energy(sigma->0) =     -684.94988559



--------------------------------------------------------------------------------------------------------


    POTLOK:  cpu time      1.8784: real time      1.8798


--------------------------------------------------------------------------------------------------------


     LOOP+:  cpu time   1529.2171: real time   1530.6966
    4ORBIT:  cpu time      0.0000: real time      0.0000



 total charge

# of ion       s       p       d       tot
------------------------------------------
    1        0.572   0.017   0.000   0.589
    2        0.632   0.037   0.000   0.669
    3        0.606   0.031   0.000   0.637
    4        0.562   0.015   0.000   0.577
    5        0.676   0.050   0.000   0.726
    6        0.559   0.015   0.000   0.575
    7        0.572   0.016   0.000   0.588
    8        0.561   0.015   0.000   0.576
    9        0.552   0.014   0.000   0.566
   10        0.588   0.027   0.000   0.614
   11        0.540   0.015   0.000   0.555
   12        0.613   0.033   0.000   0.645
   13        0.572   0.016   0.000   0.588
   14        0.679   0.049   0.000   0.728
   15        0.598   0.019   0.000   0.617
   16        0.632   0.037   0.000   0.669
   17        0.594   0.018   0.000   0.612
   18        0.573   0.017   0.000   0.590
   19        0.596   0.018   0.000   0.614
   20        0.608   0.021   0.000   0.628
   21        0.644   0.041   0.000   0.685
   22        0.577   0.018   0.000   0.595
   23        0.600   0.018   0.000   0.618
   24        0.544   0.013   0.000   0.557
   25        0.562   0.015   0.000   0.577
   26        0.610   0.031   0.000   0.641
   27        0.647   0.039   0.000   0.687
   28        0.568   0.024   0.000   0.591
   29        0.645   0.040   0.000   0.685
   30        0.550   0.014   0.000   0.564
   31        0.585   0.017   0.000   0.603
   32        0.654   0.041   0.000   0.694
   33        0.587   0.016   0.000   0.603
   34        0.640   0.041   0.000   0.681
   35        0.604   0.030   0.000   0.634
   36        0.588   0.019   0.000   0.607
   37        0.584   0.027   0.000   0.612
   38        0.626   0.036   0.000   0.662
   39        0.616   0.033   0.000   0.649
   40        0.628   0.035   0.000   0.663
   41        0.553   0.015   0.000   0.568
   42        0.570   0.024   0.000   0.593
   43        0.613   0.033   0.000   0.645
   44        0.601   0.030   0.000   0.632
   45        0.614   0.032   0.000   0.646
   46        0.606   0.031   0.000   0.637
   47        0.649   0.043   0.000   0.692
   48        0.645   0.041   0.000   0.685
   49        0.648   0.039   0.000   0.687
   50        0.605   0.031   0.000   0.635
   51        0.780   0.915   0.000   1.695
   52        0.746   0.948   0.000   1.695
   53        0.748   1.016   0.000   1.763
   54        0.755   1.007   0.000   1.763
   55        0.747   0.990   0.000   1.737
   56        0.739   0.957   0.000   1.696
   57        0.752   0.888   0.000   1.639
   58        0.743   1.004   0.000   1.746
   59        0.745   1.035   0.000   1.780
   60        0.757   0.944   0.000   1.702
   61        0.731   0.994   0.000   1.726
   62        0.747   0.956   0.000   1.703
   63        0.755   0.923   0.000   1.677
   64        0.759   0.962   0.000   1.721
   65        0.754   0.911   0.000   1.666
   66        0.758   0.980   0.000   1.738
   67        0.748   0.944   0.000   1.692
   68        0.745   0.916   0.000   1.661
   69        0.738   0.967   0.000   1.705
   70        0.753   0.964   0.000   1.718
   71        0.747   1.052   0.000   1.798
   72        0.746   0.927   0.000   1.673
   73        0.762   0.899   0.000   1.660
   74        0.746   0.924   0.000   1.670
   75        0.751   0.998   0.000   1.749
   76        0.801   0.859   0.000   1.661
   77        0.737   0.963   0.000   1.700
   78        0.747   0.920   0.000   1.666
   79        0.756   1.011   0.000   1.767
   80        0.753   0.929   0.000   1.682
   81        0.746   1.017   0.000   1.763
   82        0.743   1.032   0.000   1.775
   83        0.759   0.931   0.000   1.690
   84        0.753   0.922   0.000   1.675
   85        0.748   0.979   0.000   1.727
   86        0.737   1.058   0.000   1.796
   87        0.743   0.992   0.000   1.735
   88        0.744   1.013   0.000   1.756
   89        0.743   0.962   0.000   1.705
   90        0.737   0.946   0.000   1.683
   91        0.750   0.963   0.000   1.713
   92        0.743   0.949   0.000   1.692
   93        0.751   0.951   0.000   1.702
   94        0.744   0.927   0.000   1.671
   95        0.741   0.972   0.000   1.713
   96        0.755   0.923   0.000   1.678
   97        0.739   0.978   0.000   1.717
   98        0.731   1.010   0.000   1.741
   99        0.761   0.940   0.000   1.701
  100        0.735   0.954   0.000   1.689
  101        0.751   0.928   0.000   1.679
  102        0.759   0.961   0.000   1.719
  103        0.748   0.921   0.000   1.668
--------------------------------------------------
tot         69.755  52.275   0.000 122.030


 total amount of memory used by VASP MPI-rank0   166321. kBytes
=======================================================================

   base                                    :      30000. kBytes
   nonl-proj                               :      32680. kBytes
   fftplans                                :      32798. kBytes
   grid                                    :      25285. kBytes
   one-center                              :         21. kBytes
   wavefun                                 :      45537. kBytes

  
  
 General timing and accounting informations for this job:
 ========================================================
  
                  Total CPU time used (sec):     1588.347
                            User time (sec):     1582.124
                          System time (sec):        6.223
                         Elapsed time (sec):     1590.163
  
                   Maximum memory used (kb):      350348.
                   Average memory used (kb):          N/A
  
                          Minor page faults:       179205
                          Major page faults:         1159
                 Voluntary context switches:         2064
