 vasp.6.5.0 16Dec24 (build Jan 20 2025 08:32:48) complex                         
 executed on        HPECrayEX_GCC date 2025.07.21  14:56:30
 running  128 mpi-ranks, with    1 threads/rank, on    1 nodes
 distrk:  each k-point on  128 cores,    1 groups
 distr:  one band on NCORE=  16 cores,    8 groups


--------------------------------------------------------------------------------------------------------


 INCAR:
   SYSTEM = a-Si SPC
   NCORE = 16
   ISTART = 1
   ICHARG = 1
   ISPIN = 1
   ISYM = 1
   EDIFF = 1E-6
   NELM = 150
   EDIFFG = -0.01
   NSW = 0
   ISIF = 2
   IBRION = -1
   PREC = Accurate
   ENCUT = 1200
   KSPACING = 0.23
   KGAMMA = .TRUE.
   METAGGA = SCAN
   LASPH = .TRUE.
   LDIAG = .FALSE.
   LMIXTAU = .TRUE.
   ADDGRID = .TRUE.
   ALGO = Normal
   ISMEAR = 0
   SIGMA = 0.1
   LORBIT = 11
   NEDOS = 2000
   LWAVE = .FALSE.
   LCHARG = .FALSE.

 POTCAR:    PAW_PBE H 15Jun2001                   
 POTCAR:    PAW_PBE Si 05Jan2001                  
 POTCAR:    PAW_PBE H 15Jun2001                   
   SHA256 =  030f79b5d3ab3cf0e668861823c8fb652ff669f3e15e46930bd03bfd63a607b6 H/POTCAR              
   COPYR  = (c) Copyright 15Jun2001 Georg Kresse                                                    
   COPYR  = This file is part of the software VASP. Any use, copying, and all other rights are regul
   COPYR  = If you do not have a valid VASP license, you may not use, copy or distribute this file. 
   VRHFIN =H: ultrasoft test                                                                        
   LEXCH  = PE                                                                                      
   EATOM  =    12.4884 eV,    0.9179 Ry                                                             
                                                                                                    
   TITEL  = PAW_PBE H 15Jun2001                                                                     
   LULTRA =        F    use ultrasoft PP ?                                                          
   IUNSCR =        0    unscreen: 0-lin 1-nonlin 2-no                                               
   RPACOR =    0.000    partial core radius                                                         
   POMASS =    1.000; ZVAL   =    1.000    mass and valenz                                          
   RCORE  =    1.100    outmost cutoff radius                                                       
   RWIGS  =    0.700; RWIGS  =    0.370    wigner-seitz radius (au A)                               
   ENMAX  =  250.000; ENMIN  =  200.000 eV                                                          
   RCLOC  =    0.701    cutoff for local pot                                                        
   LCOR   =        T    correct aug charges                                                         
   LPAW   =        T    paw PP                                                                      
   EAUG   =  400.000                                                                                
   RMAX   =    1.123    core radius for proj-oper                                                   
   RAUG   =    1.200    factor for augmentation sphere                                              
   RDEP   =    1.112    radius for radial grids                                                     
   RDEPT  =    0.926    core radius for aug-charge                                                  
                                                                                                    
   Atomic configuration                                                                             
    2 entries                                                                                       
     n  l   j            E        occ.                                                              
     1  0  0.50        -6.4927   1.0000                                                             
     2  1  0.50        -3.4015   0.0000                                                             
   Description                                                                                      
     l       E           TYP  RCUT    TYP  RCUT                                                     
     0     -6.4927494     23  1.100                                                                 
     0      6.8029130     23  1.100                                                                 
     1     -4.0817478     23  1.100                                                                 
  local pseudopotential read in
  atomic valenz-charges read in
  non local Contribution for L=           0  read in
    real space projection operators read in
  non local Contribution for L=           0  read in
    real space projection operators read in
  non local Contribution for L=           1  read in
    real space projection operators read in
    PAW grid and wavefunctions read in

   number of l-projection  operators is LMAX  =           3
   number of lm-projection operators is LMMAX =           5

 POTCAR:    PAW_PBE Si 05Jan2001                  
   SHA256 =  79d9987ad8750f624c4d6acb2a16d13abf6a777132adc04dc6c8399be72b42bb Si/POTCAR             
   COPYR  = (c) Copyright 05Jan2001 Georg Kresse                                                    
   COPYR  = This file is part of the software VASP. Any use, copying, and all other rights are regul
   COPYR  = If you do not have a valid VASP license, you may not use, copy or distribute this file. 
   VRHFIN =Si: s2p2                                                                                 
   LEXCH  = PE                                                                                      
   EATOM  =   103.0669 eV,    7.5752 Ry                                                             
                                                                                                    
   TITEL  = PAW_PBE Si 05Jan2001                                                                    
   LULTRA =        F    use ultrasoft PP ?                                                          
   IUNSCR =        1    unscreen: 0-lin 1-nonlin 2-no                                               
   RPACOR =    1.500    partial core radius                                                         
   POMASS =   28.085; ZVAL   =    4.000    mass and valenz                                          
   RCORE  =    1.900    outmost cutoff radius                                                       
   RWIGS  =    2.480; RWIGS  =    1.312    wigner-seitz radius (au A)                               
   ENMAX  =  245.345; ENMIN  =  184.009 eV                                                          
   ICORE  =        2    local potential                                                             
   LCOR   =        T    correct aug charges                                                         
   LPAW   =        T    paw PP                                                                      
   EAUG   =  322.069                                                                                
   DEXC   =    0.000                                                                                
   RMAX   =    1.950    core radius for proj-oper                                                   
   RAUG   =    1.300    factor for augmentation sphere                                              
   RDEP   =    1.993    radius for radial grids                                                     
   RDEPT  =    1.837    core radius for aug-charge                                                  
                                                                                                    
   Atomic configuration                                                                             
    6 entries                                                                                       
     n  l   j            E        occ.                                                              
     1  0  0.50     -1785.8828   2.0000                                                             
     2  0  0.50      -139.4969   2.0000                                                             
     2  1  1.50       -95.5546   6.0000                                                             
     3  0  0.50       -10.8127   2.0000                                                             
     3  1  0.50        -4.0811   2.0000                                                             
     3  2  1.50        -4.0817   0.0000                                                             
   Description                                                                                      
     l       E           TYP  RCUT    TYP  RCUT                                                     
     0    -10.8127223     23  1.900                                                                 
     0     -7.6451159     23  1.900                                                                 
     1     -4.0811372     23  1.900                                                                 
     1      2.4879257     23  1.900                                                                 
     2     -4.0817478      7  1.900                                                                 
  local pseudopotential read in
  partial core-charges read in
  partial kinetic energy density read in
  atomic valenz-charges read in
  non local Contribution for L=           0  read in
    real space projection operators read in
  non local Contribution for L=           0  read in
    real space projection operators read in
  non local Contribution for L=           1  read in
    real space projection operators read in
  non local Contribution for L=           1  read in
    real space projection operators read in
    PAW grid and wavefunctions read in

   number of l-projection  operators is LMAX  =           4
   number of lm-projection operators is LMMAX =           8

 -----------------------------------------------------------------------------
|                                                                             |
|               ----> ADVICE to this user running VASP <----                  |
|                                                                             |
|     You have a (more or less) 'large supercell' and for larger cells it     |
|     might be more efficient to use real-space projection operators.         |
|     Therefore, try LREAL= Auto in the INCAR file.                           |
|     Mind: For very accurate calculation, you might also keep the            |
|     reciprocal projection scheme (i.e. LREAL=.FALSE.).                      |
|                                                                             |
 -----------------------------------------------------------------------------

 -----------------------------------------------------------------------------
|                                                                             |
|               ----> ADVICE to this user running VASP <----                  |
|                                                                             |
|     You enforced a specific xc type in the INCAR file but a different       |
|     type was found in the POTCAR file.                                      |
|     I HOPE YOU KNOW WHAT YOU ARE DOING!                                     |
|                                                                             |
 -----------------------------------------------------------------------------

  PAW_PBE H 15Jun2001                   :
 energy of atom  1       EATOM=  -12.4884
 kinetic energy error for atom=    0.0000 (will be added to EATOM!!)
  PAW_PBE Si 05Jan2001                  :
 energy of atom  2       EATOM= -103.0669
 kinetic energy error for atom=    0.0001 (will be added to EATOM!!)


 POSCAR:  H Si
  positions in cartesian coordinates
  No initial velocities read in


 exchange-correlation table for SCAN
   RHO(1)=    0.500       N(1)  =     2000
   RHO(2)=  100.500       N(2)  =     4000



--------------------------------------------------------------------------------------------------------


 ion  position               nearest neighbor table
   1  0.861  0.280  0.606-
   2  0.898  0.444  0.608-  68 1.50
   3  0.748  0.494  0.618-
   4  0.085  0.491  0.545-   8 0.78
   5  0.055  0.354  0.591-  74 1.50
   6  0.504  0.626  0.475- 101 1.71  16 1.83
   7  0.299  0.105  0.493-  71 1.53
   8  0.086  0.489  0.572-   4 0.78
   9  0.128  0.815  0.623-  67 1.48
  10  0.399  0.676  0.412-  57 1.45
  11  0.171  0.764  0.544-  75 1.47
  12  0.167  0.034  0.460-  58 1.48
  13  0.014  0.423  0.648-
  14  0.239  0.911  0.421-  15 2.33  20 2.36  62 2.47  18 2.53  94 3.06
  15  0.297  0.902  0.496-  91 2.29  14 2.33  69 2.45  50 2.57
  16  0.463  0.507  0.471-   6 1.83  57 2.25  49 2.27  54 2.34
  17  0.887  0.093  0.555-  52 2.31  82 2.37  32 2.39  28 2.48
  18  0.176  0.998  0.353-  80 2.33  14 2.53
  19  0.305  0.307  0.467-  98 2.17  76 2.30  39 2.31  71 2.33
  20  0.125  0.796  0.420-  60 2.23  89 2.35  14 2.36  94 2.40
  21  0.402  0.212  0.584-  79 2.27  53 2.31  34 2.33  44 2.35
  22  0.511  0.918  0.567-  65 2.34  69 2.35  29 2.47  77 2.61
  23  0.705  0.961  0.454- 102 2.28  37 2.33  46 2.37  43 2.41
  24  0.383  0.127  0.382-  55 2.31  81 2.33  71 2.47
  25  0.254  0.625  0.489-  89 2.29  57 2.32  86 2.42  91 2.58
  26  0.146  0.131  0.558-  58 2.29  53 2.37  28 2.38  50 2.57
  27  0.631  0.175  0.412-  46 2.34  84 2.36  81 2.36  92 2.42
  28  0.011  0.168  0.601-  26 2.38  74 2.42  17 2.48
  29  0.629  0.036  0.584-  35 2.25  61 2.27  82 2.34  22 2.47
  30  0.357  0.715  0.597-  91 2.32  38 2.46  31 2.48
  31  0.493  0.612  0.591-  83 2.36  49 2.36  30 2.48
  32  0.817  0.209  0.509-  63 2.28  46 2.39  17 2.39  97 2.43
  33  0.853  0.864  0.562-  42 2.27  82 2.28  43 2.30  66 2.34
  34  0.429  0.106  0.643-  21 2.33  61 2.43  77 2.48
  35  0.605  0.158  0.538-  29 2.25  79 2.25  46 2.27  48 2.34
  36  0.969  0.597  0.455-  89 2.28  96 2.28  59 2.31  90 2.42
  37  0.548  0.960  0.439-  81 2.31  69 2.32  23 2.33  73 2.44
  38  0.252  0.591  0.621-  56 2.38  86 2.41  30 2.46
  39  0.278  0.366  0.395-  70 2.29  19 2.31 100 2.42  55 2.46
  40  0.839  0.380  0.430-  96 2.34  63 2.35  95 2.36  93 2.41
  41  0.074  0.343  0.481-  74 2.42  96 2.48  99 2.52  98 2.52
  42  0.879  0.756  0.617-  33 2.27  78 2.35  88 2.46
  43  0.745  0.837  0.506-  33 2.30 103 2.30  65 2.30  23 2.41
  44  0.484  0.339  0.556-  49 2.25  48 2.28  76 2.32  21 2.35  79 3.12
  45  0.734  0.603  0.508- 103 2.35  90 2.40  93 2.42  83 2.43
  46  0.697  0.115  0.479-  35 2.27  27 2.34  23 2.37  32 2.39  84 3.01
  47  0.845  0.656  0.345-  59 2.40
  48  0.624  0.293  0.581-  51 2.23  44 2.28  97 2.32  35 2.34
  49  0.437  0.485  0.548-  44 2.25  16 2.27  86 2.29  31 2.36
  50  0.224  0.974  0.569-  67 2.28  77 2.49  26 2.57  15 2.57
  51  0.664  0.237  0.650-  48 2.23  61 2.36
  52  0.979  0.031  0.498-  58 2.19  17 2.31  66 2.35  87 2.44
  53  0.248  0.250  0.581-  21 2.31  98 2.36  26 2.37
  54  0.592  0.458  0.431-  92 2.27  16 2.34  93 2.41  72 2.41
  55  0.414  0.281  0.368-  92 2.29  24 2.31  39 2.46
  56  0.092  0.612  0.635-  38 2.38  88 2.39
  57  0.360  0.592  0.432-  10 1.45  16 2.25 100 2.30  25 2.32
  58  0.108  0.102  0.483-  12 1.48  52 2.19  26 2.29  99 2.48  71 2.79
  59  0.886  0.713  0.420- 103 2.27  36 2.31  60 2.33  47 2.40
  60  0.984  0.829  0.394-  20 2.23  59 2.33  87 2.34
  61  0.594  0.091  0.655-  29 2.27  51 2.36  34 2.43
  62  0.357  0.837  0.373-  73 2.40  94 2.45  14 2.47
  63  0.886  0.226  0.439-  32 2.28  40 2.35  84 2.46  99 2.63
  64  0.027  0.410  0.359-  70 2.24  96 2.26
  65  0.603  0.803  0.535-  83 2.27  43 2.30  22 2.34 101 2.37
  66  0.005  0.896  0.541-  33 2.34  52 2.35  75 2.36  67 2.38
  67  0.103  0.908  0.607-   9 1.48  50 2.28  66 2.38
  68  0.888  0.419  0.558-   2 1.50  97 2.31  74 2.32  90 2.35
  69  0.446  0.979  0.500-  37 2.32  22 2.35  79 2.39  15 2.45
  70  0.140  0.307  0.370-  64 2.24  39 2.29  99 2.31
  71  0.279  0.154  0.447-   7 1.53  19 2.33  24 2.47  58 2.79
  72  0.613  0.572  0.371-  85 2.24  54 2.41
  73  0.502  0.808  0.411-  85 2.26 101 2.35  62 2.40  37 2.44
  74  0.001  0.306  0.554-   5 1.50  68 2.32  28 2.42  41 2.42
  75  0.074  0.750  0.532-  11 1.47  89 2.31  66 2.36  88 2.36
  76  0.458  0.281  0.482-  19 2.30  44 2.32  79 2.37  92 2.40
  77  0.366  0.957  0.617-  34 2.48  50 2.49  22 2.61
  78  0.728  0.705  0.632-  83 2.30  42 2.35
  79  0.456  0.137  0.521-  35 2.25  21 2.27  76 2.37  69 2.39  44 3.12
  80  0.042  0.075  0.374-  18 2.33  87 2.37  99 2.50
  81  0.530  0.064  0.379-  37 2.31  24 2.33  27 2.36
  82  0.782  0.991  0.592-  33 2.28  29 2.34  17 2.37
  83  0.639  0.667  0.569-  65 2.27  78 2.30  31 2.36  45 2.43
  84  0.782  0.146  0.385- 102 2.28  27 2.36  63 2.46  46 3.01
  85  0.624  0.719  0.393-  72 2.24  73 2.26 103 2.45
  86  0.282  0.513  0.549-  49 2.29  38 2.41  25 2.42  98 2.45
  87  0.950  0.978  0.420- 102 2.31  60 2.34  80 2.37  52 2.44
  88  0.983  0.649  0.577-  90 2.28  75 2.36  56 2.39  42 2.46
  89  0.108  0.665  0.467-  36 2.28  25 2.29  75 2.31  20 2.35
  90  0.891  0.568  0.528-  88 2.28  68 2.35  45 2.40  36 2.42
  91  0.347  0.762  0.521-  15 2.29  30 2.32 101 2.36  25 2.58
  92  0.541  0.315  0.412-  54 2.27  55 2.29  76 2.40  27 2.42
  93  0.725  0.447  0.480-  97 2.30  40 2.41  54 2.41  45 2.42
  94  0.220  0.744  0.358-  20 2.40  62 2.45  14 3.06
  95  0.784  0.391  0.354-  40 2.36
  96  0.985  0.449  0.431-  64 2.26  36 2.28  40 2.34  41 2.48
  97  0.750  0.348  0.541-  93 2.30  68 2.31  48 2.32  32 2.43
  98  0.224  0.363  0.524-  19 2.17  53 2.36  86 2.45  41 2.52
  99  0.063  0.215  0.423-  70 2.31  58 2.48  80 2.50  41 2.52  63 2.63
 100  0.318  0.516  0.365-  57 2.30  39 2.42
 101  0.491  0.742  0.484-   6 1.71  73 2.35  91 2.36  65 2.37
 102  0.801  0.991  0.393-  84 2.28  23 2.28  87 2.31
 103  0.744  0.720  0.452-  59 2.27  43 2.30  45 2.35  85 2.45

  LATTYP: Found a simple tetragonal cell.
 ALAT       =    14.5422910267
 C/A-ratio  =     1.9921483518
  
  Lattice vectors:
  
 A1 = (  14.5422910267,   0.0000000000,   0.0000000000)
 A2 = (   0.0000000000,  14.5422910267,   0.0000000000)
 A3 = (   0.0000000000,   0.0000000000,  28.9704011000)


Analysis of symmetry for initial positions (statically):
=====================================================================
 Subroutine PRICEL returns:
 Original cell was already a primitive cell.
 

 Routine SETGRP: Setting up the symmetry group for a 
 simple tetragonal supercell.


 Subroutine GETGRP returns: Found  1 space group operations
 (whereof  1 operations were pure point group operations)
 out of a pool of 16 trial point group operations.


The static configuration has the point symmetry C_1 .


Analysis of symmetry for dynamics (positions and initial velocities):
=====================================================================
 Subroutine PRICEL returns:
 Original cell was already a primitive cell.
 

 Routine SETGRP: Setting up the symmetry group for a 
 simple tetragonal supercell.


 Subroutine GETGRP returns: Found  1 space group operations
 (whereof  1 operations were pure point group operations)
 out of a pool of 16 trial point group operations.


The dynamic configuration has the point symmetry C_1 .


 Subroutine INISYM returns: Found  1 space group operations
 (whereof  1 operations are pure point group operations),
 and found     1 'primitive' translations


----------------------------------------------------------------------------------------

                                     Primitive cell                                     

  volume of cell :    6126.6091

  direct lattice vectors                    reciprocal lattice vectors
    14.542291027  0.000000000  0.000000000     0.068764956  0.000000000  0.000000000
     0.000000000 14.542291027  0.000000000     0.000000000  0.068764956  0.000000000
     0.000000000  0.000000000 28.970401100     0.000000000  0.000000000  0.034517989

  length of vectors
    14.542291027 14.542291027 28.970401100     0.068764956  0.068764956  0.034517989

  position of ions in fractional coordinates (direct lattice)
     0.861370466  0.280067975  0.606241558
     0.897822769  0.443648803  0.608406526
     0.747729500  0.494254996  0.617812333
     0.085212158  0.490678531  0.544780552
     0.055054599  0.354012995  0.591072628
     0.503937790  0.625968768  0.474642759
     0.299430124  0.104583934  0.492763668
     0.085883992  0.488751049  0.571713558
     0.128367669  0.814905985  0.623398725
     0.398842245  0.675728465  0.412371615
     0.171020508  0.764198707  0.544157157
     0.167257002  0.034310206  0.459569443
     0.014382741  0.422553089  0.648466034
     0.238920401  0.911300701  0.421314881
     0.296535119  0.902264985  0.496392889
     0.462839726  0.507435176  0.471334555
     0.887315484  0.092651151  0.555468702
     0.175740535  0.997525079  0.352562778
     0.304573742  0.306957136  0.467442651
     0.124945925  0.796126276  0.420400500
     0.402037065  0.211624152  0.584268441
     0.510699448  0.918156567  0.567496150
     0.705184622  0.960639556  0.453638562
     0.382998111  0.126698743  0.381658544
     0.253506136  0.624825207  0.488901795
     0.146267875  0.131009619  0.558020617
     0.630738993  0.174731753  0.411725439
     0.011234750  0.168078743  0.600711086
     0.628902281  0.035660268  0.583911180
     0.357002208  0.715045517  0.597105682
     0.492551001  0.612089937  0.590574878
     0.817470918  0.209108042  0.509139692
     0.852946759  0.864492395  0.561957394
     0.429003930  0.106307183  0.643207218
     0.605249887  0.158256357  0.538290134
     0.968650674  0.597486323  0.455401741
     0.547906790  0.959649341  0.438757512
     0.251813142  0.591316732  0.620534077
     0.277628194  0.366053051  0.394746385
     0.839310668  0.380222758  0.430135608
     0.073706406  0.342501054  0.481375147
     0.879070566  0.756228849  0.616741930
     0.745192073  0.837254596  0.505668563
     0.483559983  0.338743049  0.555500459
     0.733742708  0.603490192  0.508065147
     0.697228517  0.115219122  0.478889507
     0.844763729  0.655558329  0.345179895
     0.624279901  0.293152571  0.581194960
     0.437281168  0.485272918  0.547827800
     0.224081611  0.974193129  0.568961439
     0.664076931  0.237027302  0.650172258
     0.978738493  0.030512936  0.498354201
     0.247866722  0.250364952  0.580951263
     0.592322075  0.457634219  0.430660627
     0.413892143  0.280523199  0.368482613
     0.092418725  0.612150450  0.635495209
     0.360278170  0.591892982  0.431523577
     0.107666667  0.102467348  0.482840781
     0.885830161  0.713236998  0.419940375
     0.984349713  0.829147208  0.394354606
     0.593724880  0.091150700  0.654820105
     0.357475998  0.836807624  0.373067948
     0.885678878  0.226194070  0.438814812
     0.027362195  0.409968415  0.358934903
     0.602536422  0.802803353  0.535455862
     0.005300190  0.895842338  0.541465789
     0.103137119  0.908213154  0.606869095
     0.887934369  0.418504209  0.558394102
     0.446316195  0.979206094  0.499603062
     0.139900927  0.307418549  0.370398707
     0.278500822  0.153812078  0.447394603
     0.613126913  0.571842496  0.371121582
     0.501599094  0.808469586  0.410781717
     0.000761744  0.305554331  0.554220532
     0.073512488  0.749840584  0.532224288
     0.458164397  0.280871837  0.481968512
     0.365585449  0.957050026  0.616562782
     0.728482189  0.705033339  0.631773134
     0.455802321  0.137493466  0.520632802
     0.041918911  0.075494982  0.373589964
     0.530192938  0.064411103  0.379387951
     0.782497062  0.991164320  0.591686012
     0.639046487  0.666973999  0.569182699
     0.781706265  0.145926113  0.385300537
     0.623927137  0.719267685  0.393067085
     0.282229945  0.512772024  0.549024194
     0.949870964  0.977603871  0.419922426
     0.982850637  0.648916322  0.577018973
     0.107722366  0.665311950  0.467144416
     0.890547437  0.568426941  0.527714168
     0.347275405  0.761537503  0.520742914
     0.540694722  0.314995071  0.412105827
     0.725050818  0.447027225  0.480219140
     0.220023103  0.743823651  0.357834952
     0.783707325  0.391050488  0.353847365
     0.985002980  0.448744973  0.431345464
     0.750260050  0.348211983  0.540759206
     0.223790048  0.363277010  0.523606527
     0.063461527  0.215305140  0.422620006
     0.318457387  0.516085119  0.365082384
     0.491351740  0.741588790  0.484406517
     0.800836676  0.990868631  0.393009440
     0.743789268  0.720285406  0.452414554

  ion indices of the primitive-cell ions
   primitive index   ion index
                 1           1
                 2           2
                 3           3
                 4           4
                 5           5
                 6           6
                 7           7
                 8           8
                 9           9
                10          10
                11          11
                12          12
                13          13
                14          14
                15          15
                16          16
                17          17
                18          18
                19          19
                20          20
                21          21
                22          22
                23          23
                24          24
                25          25
                26          26
                27          27
                28          28
                29          29
                30          30
                31          31
                32          32
                33          33
                34          34
                35          35
                36          36
                37          37
                38          38
                39          39
                40          40
                41          41
                42          42
                43          43
                44          44
                45          45
                46          46
                47          47
                48          48
                49          49
                50          50
                51          51
                52          52
                53          53
                54          54
                55          55
                56          56
                57          57
                58          58
                59          59
                60          60
                61          61
                62          62
                63          63
                64          64
                65          65
                66          66
                67          67
                68          68
                69          69
                70          70
                71          71
                72          72
                73          73
                74          74
                75          75
                76          76
                77          77
                78          78
                79          79
                80          80
                81          81
                82          82
                83          83
                84          84
                85          85
                86          86
                87          87
                88          88
                89          89
                90          90
                91          91
                92          92
                93          93
                94          94
                95          95
                96          96
                97          97
                98          98
                99          99
               100         100
               101         101
               102         102
               103         103

----------------------------------------------------------------------------------------


 -----------------------------------------------------------------------------
|                                                                             |
|           W    W    AA    RRRRR   N    N  II  N    N   GGGG   !!!           |
|           W    W   A  A   R    R  NN   N  II  NN   N  G    G  !!!           |
|           W    W  A    A  R    R  N N  N  II  N N  N  G       !!!           |
|           W WW W  AAAAAA  RRRRR   N  N N  II  N  N N  G  GGG   !            |
|           WW  WW  A    A  R   R   N   NN  II  N   NN  G    G                |
|           W    W  A    A  R    R  N    N  II  N    N   GGGG   !!!           |
|                                                                             |
|     The requested file  could not be found or opened for reading            |
|     k-point information. Automatic k-point generation is used as a          |
|     fallback, which may lead to unwanted results.                           |
|                                                                             |
 -----------------------------------------------------------------------------



Automatic generation of k-mesh.
 Grid dimensions derived from KSPACING:
 generate k-points for:    2    2    1

 Generating k-lattice:

  Cartesian coordinates                     Fractional coordinates (reciprocal lattice)
     0.034382478  0.000000000  0.000000000     0.500000000  0.000000000  0.000000000
     0.000000000  0.034382478  0.000000000     0.000000000  0.500000000  0.000000000
     0.000000000  0.000000000  0.034517989     0.000000000  0.000000000  1.000000000

  Length of vectors
     0.034382478  0.034382478  0.034517989

  Shift w.r.t. Gamma in fractional coordinates (k-lattice)
     0.000000000  0.000000000  0.000000000

 
 Subroutine IBZKPT returns following result:
 ===========================================
 
 Found      4 irreducible k-points:
 
 Following reciprocal coordinates:
            Coordinates               Weight
  0.000000  0.000000  0.000000      1.000000
  0.500000  0.000000  0.000000      1.000000
  0.000000  0.500000  0.000000      1.000000
  0.500000  0.500000  0.000000      1.000000
 
 Following cartesian coordinates:
            Coordinates               Weight
  0.000000  0.000000  0.000000      1.000000
  0.034382  0.000000  0.000000      1.000000
  0.000000  0.034382  0.000000      1.000000
  0.034382  0.034382  0.000000      1.000000
 


--------------------------------------------------------------------------------------------------------




 Dimension of arrays:
   k-points           NKPTS =      4   k-points in BZ     NKDIM =      4   number of bands    NBANDS=    240
   number of dos      NEDOS =   2000   number of ions     NIONS =    103
   non local maximal  LDIM  =      4   non local SUM 2l+1 LMDIM =      8
   total plane-waves  NPLWV = ******
   max r-space proj   IRMAX =      1   max aug-charges    IRDMAX= 414178
   dimension x,y,z NGX =   168 NGY =  168 NGZ =  336
   dimension x,y,z NGXF=   336 NGYF=  336 NGZF=  672
   support grid    NGXF=   672 NGYF=  672 NGZF= 1344
   ions per type =              13  90
   NGX,Y,Z   is equivalent  to a cutoff of  19.21, 19.21, 19.28 a.u.
   NGXF,Y,Z  is equivalent  to a cutoff of  38.41, 38.41, 38.56 a.u.

 SYSTEM =  a-Si SPC                                
 POSCAR =   H Si                                   

 Startparameter for this run:
   NWRITE =      2    write-flag & timer
   PREC   = accura    normal or accurate (medium, high low for compatibility)
   ISTART =      1    job   : 0-new  1-cont  2-samecut
   ICHARG =      1    charge: 1-file 2-atom 10-const
   ISPIN  =      1    spin polarized calculation?
   LNONCOLLINEAR =      F non collinear calculations
   LSORBIT =      F    spin-orbit coupling
   INIWAV =      1    electr: 0-lowe 1-rand  2-diag
   LASPH  =      T    aspherical Exc in radial PAW
 Electronic Relaxation 1
   ENCUT  = 1200.0 eV  88.20 Ry    9.39 a.u.  41.08 41.08 81.83*2*pi/ulx,y,z
   ENINI  = 1200.0     initial cutoff
   ENAUG  =  400.0 eV  augmentation charge cutoff
   NELM   =    150;   NELMIN=  2; NELMDL=  0     # of ELM steps 
   EDIFF  = 0.1E-05   stopping-criterion for ELM
   LREAL  =      F    real-space projection
   NLSPLINE    = F    spline interpolate recip. space projectors
   LCOMPAT=      F    compatible to vasp.4.4
   GGA_COMPAT  = T    GGA compatible to vasp.4.4-vasp.4.6
   LMAXPAW     = -100 max onsite density
   LMAXMIX     =    2 max onsite mixed and CHGCAR
   VOSKOWN=      0    Vosko Wilk Nusair interpolation
   ROPT   =    0.00000   0.00000
 Ionic relaxation
   EDIFFG = -.1E-01   stopping-criterion for IOM
   NSW    =      0    number of steps for IOM
   NBLOCK =      1;   KBLOCK =      1    inner block; outer block 
   IBRION =     -1    ionic relax: 0-MD 1-quasi-New 2-CG
   NFREE  =      0    steps in history (QN), initial steepest desc. (CG)
   ISIF   =      2    stress and relaxation
   IWAVPR =     10    prediction:  0-non 1-charg 2-wave 3-comb
   ISYM   =      1    0-nonsym 1-usesym 2-fastsym
   LCORR  =      T    Harris-Foulkes like correction to forces

   POTIM  = 0.5000    time-step for ionic-motion
   TEIN   =    0.0    initial temperature
   TEBEG  =    0.0;   TEEND  =   0.0 temperature during run
   SMASS  =  -3.00    Nose mass-parameter (am)
   estimated Nose-frequenzy (Omega)   =  0.10E-29 period in steps = 0.13E+47 mass=  -0.483E-26a.u.
   SCALEE = 1.0000    scale energy and forces
   NPACO  =    256;   APACO  = 10.0  distance and # of slots for P.C.
   PSTRESS=    0.0 pullay stress

  Mass of Ions in am
   POMASS =   1.00 28.09
  Ionic Valenz
   ZVAL   =   1.00  4.00
  Atomic Wigner-Seitz radii
   RWIGS  =  -1.00 -1.00
  virtual crystal weights 
   VCA    =   1.00  1.00
   NELECT =     373.0000    total number of electrons
   NUPDOWN=      -1.0000    fix difference up-down

 DOS related values:
   EMIN   =  10.00;   EMAX   =-10.00  energy-range for DOS
   EFERMI =   0.00;   METHOD = LEGACY      
   ISMEAR =     0;   SIGMA  =   0.10  broadening in eV -4-tet -1-fermi 0-gaus
   EFERMI_NEDOS =   21; number of points for ismear=-14 and -15

 Electronic relaxation 2 (details)
   IALGO  =     38    algorithm
   LDIAG  =      F    sub-space diagonalisation (order eigenvalues)
   LSUBROT=      F    optimize rotation matrix (better conditioning)
   TURBO    =      0    0=normal 1=particle mesh
   IRESTART =      0    0=no restart 2=restart with 2 vectors
   NREBOOT  =      0    no. of reboots
   NMIN     =      0    reboot dimension
   EREF     =   0.00    reference energy to select bands
   IMIX   =      4    mixing-type and parameters
     AMIX     =   0.40;   BMIX     =  1.00
     AMIX_MAG =   1.60;   BMIX_MAG =  1.00
     AMIN     =   0.10
     WC   =   100.;   INIMIX=   1;  MIXPRE=   1;  MAXMIX= -45

 Intra band minimization:
   WEIMIN = 0.0000     energy-eigenvalue tresh-hold
   EBREAK =  0.10E-08  absolut break condition
   DEPER  =   0.30     relativ break condition  

   TIME   =   0.40     timestep for ELM

  volume/ion in A,a.u.               =      59.48       401.40
  Fermi-wavevector in a.u.,A,eV,Ry     =   0.644027  1.217035  5.643307  0.414771
  Thomas-Fermi vector in A             =   1.711221

 Write flags
   LWAVE        =      F    write WAVECAR
   LDOWNSAMPLE  =      F    k-point downsampling of WAVECAR
   LCHARG       =      F    write CHGCAR
   LVTOT        =      F    write LOCPOT, total local potential
   LVHAR        =      F    write LOCPOT, Hartree potential only
   WRT_POTENTIAL= false  ! write potential to hdf5 file
   LELF         =      F    write electronic localiz. function (ELF)
   LORBIT       =     11    0 simple, 1 ext, 2 COOP (PROOUT), +10 PAW based schemes


 Python interface
   PLUGINS active      =      F    recompile with -DPLUGINS to activate

 Dipole corrections
   LMONO      =      F    monopole corrections only (constant potential shift)
   LDIPOL     =      F    correct potential (dipole corrections)
   IDIPOL     =      0    1-x, 2-y, 3-z, 4-all directions 
   EPSILON    =  1.0000000 bulk dielectric constant
   LVACPOTAV  =      F  vacuum potentials using an averaging scheme for the charge density
   VACPOTFLAT =  0.1000000 required flatness to determine vacuum potential

Coulomb truncation method
  LTRUNCATE          =      F  Coulomb kernel truncation to be used
  IDIMENSIONALITY    =      3  Dimensionality of cutoff (0 molecules / 2 surfaces)
  ISURFACE           =     -1  Direction of surface normal
  LCOARSEN           =      F  Coarsen the charge grid before padding, preferred


 Exchange correlation treatment:
   METAGGA = SCAN    functional components
   XC_C    = 1    coefficients multiplying the functional components
   LIBXC   =     F    Libxc                    
   VOSKOWN =     0    Vosko Wilk Nusair interpolation
   LHFCALC =     F    Hartree Fock is set to
   LHFONE  =     F    Hartree Fock one center treatment
   AEXX    =    0.0000 exact exchange contribution

 Parameters of functionals:
   SCAN:
     P1 =  0.000000E+00
     P2 =  0.000000E+00
     P3 =  0.000000E+00

 Accuracy and mixing parameters for tau-dependent meta-GGA functionals:
   LMAXTAU = 6
   LMIXTAU = T

 Van der Waals corrections
   IVDW    =     0    specifies the selected vdW correction

 Linear response parameters
   LEPSILON=     F    determine dielectric tensor
   LRPA    =     F    only Hartree local field effects (RPA)
   LNABLA  =     F    use nabla operator in PAW spheres
   LVEL    =     F    velocity operator in full k-point grid
   CSHIFT  =0.1000    complex shift for real part using Kramers Kronig
   OMEGAMAX=  -1.0    maximum frequency
   DEG_THRESHOLD= 0.2000000E-02 threshold for treating states as degnerate
   RTIME   =   -0.100 relaxation time in fs
  (WPLASMAI=    0.000 imaginary part of plasma frequency in eV, 0.658/RTIME)
   DFIELD  = 0.0000000 0.0000000 0.0000000 field for delta impulse in time

  Optional k-point grid parameters
   LKPOINTS_OPT  =     F    use optional k-point grid
   KPOINTS_OPT_MODE=     1    mode for optional k-point grid

 Orbital magnetization related:
   ORBITALMAG=     F  switch on orbital magnetization
   LCHIMAG   =     F  perturbation theory with respect to B field
   DQ        =  0.001000  dq finite difference perturbation B field
   LLRAUG    =     F  two centre corrections for induced B field
   LBONE     =     F  B-component reconstruction in AE one-centre
   LVGVCALC  =     T  calculate vGv susceptibility
   LVGVAPPL  =     F  apply vGv susceptibility instead of pGv for G=0

 Random number generation:
   RANDOM_GENERATOR = DEFAULT
   PCG_SEED         = not used


--------------------------------------------------------------------------------------------------------


 Static calculation
 charge density and potential will be updated during run
 non-spin polarized calculation
 Variant of blocked Davidson
 perform Loewdin sub-space diagonalisation
    ordering is kept fixed
    before iterative eigenvector-optimisation
 modified Broyden-mixing scheme, WC =      100.0
 initial mixing is a Kerker type mixing with AMIX =  0.4000 and BMIX =      1.0000
 Hartree-type preconditioning will be used
 using additional bands           53
 reciprocal scheme for non local part
 use partial core corrections
 calculate Harris-corrections to forces   (improved forces if not selfconsistent)
 use gradient corrections 
 use of overlap-Matrix (Vanderbilt PP)
 Gauss-broadening in eV      SIGMA  =   0.10


--------------------------------------------------------------------------------------------------------


  energy-cutoff  :     1200.00
  volume of cell :     6126.61
      direct lattice vectors                 reciprocal lattice vectors
    14.542291027  0.000000000  0.000000000     0.068764956  0.000000000  0.000000000
     0.000000000 14.542291027  0.000000000     0.000000000  0.068764956  0.000000000
     0.000000000  0.000000000 28.970401100     0.000000000  0.000000000  0.034517989

  length of vectors
    14.542291027 14.542291027 28.970401100     0.068764956  0.068764956  0.034517989



 old parameters found on file WAVECAR:
  energy-cutoff  :     1200.00
  volume of cell :     6126.61
      direct lattice vectors                 reciprocal lattice vectors
    14.542291027  0.000000000  0.000000000     0.068764956  0.000000000  0.000000000
     0.000000000 14.542291027  0.000000000     0.000000000  0.068764956  0.000000000
     0.000000000  0.000000000 28.970401100     0.000000000  0.000000000  0.034517989

  length of vectors


 k-points in units of 2pi/SCALE and weight: read from INCAR                         
   0.00000000  0.00000000  0.00000000       0.250
   0.03438248  0.00000000  0.00000000       0.250
   0.00000000  0.03438248  0.00000000       0.250
   0.03438248  0.03438248  0.00000000       0.250

 k-points in reciprocal lattice and weights: read from INCAR                         
   0.00000000  0.00000000  0.00000000       0.250
   0.50000000  0.00000000  0.00000000       0.250
   0.00000000  0.50000000  0.00000000       0.250
   0.50000000  0.50000000  0.00000000       0.250

 position of ions in fractional coordinates (direct lattice) 
   0.86137047  0.28006798  0.60624156
   0.89782277  0.44364880  0.60840653
   0.74772950  0.49425500  0.61781233
   0.08521216  0.49067853  0.54478055
   0.05505460  0.35401299  0.59107263
   0.50393779  0.62596877  0.47464276
   0.29943012  0.10458393  0.49276367
   0.08588399  0.48875105  0.57171356
   0.12836767  0.81490599  0.62339872
   0.39884224  0.67572847  0.41237162
   0.17102051  0.76419871  0.54415716
   0.16725700  0.03431021  0.45956944
   0.01438274  0.42255309  0.64846603
   0.23892040  0.91130070  0.42131488
   0.29653512  0.90226499  0.49639289
   0.46283973  0.50743518  0.47133455
   0.88731548  0.09265115  0.55546870
   0.17574053  0.99752508  0.35256278
   0.30457374  0.30695714  0.46744265
   0.12494592  0.79612628  0.42040050
   0.40203706  0.21162415  0.58426844
   0.51069945  0.91815657  0.56749615
   0.70518462  0.96063956  0.45363856
   0.38299811  0.12669874  0.38165854
   0.25350614  0.62482521  0.48890180
   0.14626787  0.13100962  0.55802062
   0.63073899  0.17473175  0.41172544
   0.01123475  0.16807874  0.60071109
   0.62890228  0.03566027  0.58391118
   0.35700221  0.71504552  0.59710568
   0.49255100  0.61208994  0.59057488
   0.81747092  0.20910804  0.50913969
   0.85294676  0.86449240  0.56195739
   0.42900393  0.10630718  0.64320722
   0.60524989  0.15825636  0.53829013
   0.96865067  0.59748632  0.45540174
   0.54790679  0.95964934  0.43875751
   0.25181314  0.59131673  0.62053408
   0.27762819  0.36605305  0.39474638
   0.83931067  0.38022276  0.43013561
   0.07370641  0.34250105  0.48137515
   0.87907057  0.75622885  0.61674193
   0.74519207  0.83725460  0.50566856
   0.48355998  0.33874305  0.55550046
   0.73374271  0.60349019  0.50806515
   0.69722852  0.11521912  0.47888951
   0.84476373  0.65555833  0.34517989
   0.62427990  0.29315257  0.58119496
   0.43728117  0.48527292  0.54782780
   0.22408161  0.97419313  0.56896144
   0.66407693  0.23702730  0.65017226
   0.97873849  0.03051294  0.49835420
   0.24786672  0.25036495  0.58095126
   0.59232208  0.45763422  0.43066063
   0.41389214  0.28052320  0.36848261
   0.09241873  0.61215045  0.63549521
   0.36027817  0.59189298  0.43152358
   0.10766667  0.10246735  0.48284078
   0.88583016  0.71323700  0.41994037
   0.98434971  0.82914721  0.39435461
   0.59372488  0.09115070  0.65482011
   0.35747600  0.83680762  0.37306795
   0.88567888  0.22619407  0.43881481
   0.02736219  0.40996841  0.35893490
   0.60253642  0.80280335  0.53545586
   0.00530019  0.89584234  0.54146579
   0.10313712  0.90821315  0.60686910
   0.88793437  0.41850421  0.55839410
   0.44631620  0.97920609  0.49960306
   0.13990093  0.30741855  0.37039871
   0.27850082  0.15381208  0.44739460
   0.61312691  0.57184250  0.37112158
   0.50159909  0.80846959  0.41078172
   0.00076174  0.30555433  0.55422053
   0.07351249  0.74984058  0.53222429
   0.45816440  0.28087184  0.48196851
   0.36558545  0.95705003  0.61656278
   0.72848219  0.70503334  0.63177313
   0.45580232  0.13749347  0.52063280
   0.04191891  0.07549498  0.37358996
   0.53019294  0.06441110  0.37938795
   0.78249706  0.99116432  0.59168601
   0.63904649  0.66697400  0.56918270
   0.78170626  0.14592611  0.38530054
   0.62392714  0.71926768  0.39306708
   0.28222995  0.51277202  0.54902419
   0.94987096  0.97760387  0.41992243
   0.98285064  0.64891632  0.57701897
   0.10772237  0.66531195  0.46714442
   0.89054744  0.56842694  0.52771417
   0.34727540  0.76153750  0.52074291
   0.54069472  0.31499507  0.41210583
   0.72505082  0.44702722  0.48021914
   0.22002310  0.74382365  0.35783495
   0.78370733  0.39105049  0.35384737
   0.98500298  0.44874497  0.43134546
   0.75026005  0.34821198  0.54075921
   0.22379005  0.36327701  0.52360653
   0.06346153  0.21530514  0.42262001
   0.31845739  0.51608512  0.36508238
   0.49135174  0.74158879  0.48440652
   0.80083668  0.99086863  0.39300944
   0.74378927  0.72028541  0.45241455

 position of ions in cartesian coordinates  (Angst):
  12.52630000  4.07283000 17.56306110
  13.05640000  6.45167000 17.62578110
  10.87370000  7.18760000 17.89827110
   1.23918000  7.13559000 15.78251110
   0.80062000  5.14816000 17.12361110
   7.32841000  9.10302000 13.75059110
   4.35440000  1.52089000 14.27556110
   1.24895000  7.10756000 16.56277110
   1.86676000 11.85060000 18.06011110
   5.80008000  9.82664000 11.94657110
   2.48703000 11.11320000 15.76445110
   2.43230000  0.49894900 13.31391110
   0.20915800  6.14489000 18.78632110
   3.47445000 13.25240000 12.20566110
   4.31230000 13.12100000 14.38070110
   6.73075000  7.37927000 13.65475110
  12.90360000  1.34736000 16.09215110
   2.55567000 14.50630000 10.21388510
   4.42920000  4.46386000 13.54200110
   1.81700000 11.57750000 12.17917110
   5.84654000  3.07750000 16.92649110
   7.42674000 13.35210000 16.44059110
  10.25500000 13.96990000 13.14209110
   5.56967000  1.84249000 11.05680110
   3.68656000  9.08639000 14.16368110
   2.12707000  1.90518000 16.16608110
   9.17239000  2.54100000 11.92785110
   0.16337900  2.44425000 17.40284110
   9.14568000  0.51858200 16.91614110
   5.19163000 10.39840000 17.29839110
   7.16282000  8.90119000 17.10919110
  11.88790000  3.04091000 14.74998110
  12.40380000 12.57170000 16.28013110
   6.23870000  1.54595000 18.63397110
   8.80172000  2.30141000 15.59448110
  14.08640000  8.68882000 13.19317110
   7.96782000 13.95550000 12.71098110
   3.66194000  8.59910000 17.97712110
   4.03735000  5.32325000 11.43596110
  12.20550000  5.52931000 12.46120110
   1.07186000  4.98075000 13.94563110
  12.78370000 10.99730000 17.86726110
  10.83680000 12.17560000 14.64942110
   7.03207000  4.92610000 16.09307110
  10.67030000  8.77613000 14.71885110
  10.13930000  1.67555000 13.87362110
  12.28480000  9.53332000 10.00000000
   9.07846000  4.26311000 16.83745110
   6.35907000  7.05698000 15.87079110
   3.25866000 14.16700000 16.48304110
   9.65720000  3.44692000 18.83575110
  14.23310000  0.44372800 14.43752110
   3.60455000  3.64088000 16.83039110
   8.61372000  6.65505000 12.47641110
   6.01894000  4.07945000 10.67508910
   1.34398000  8.90207000 18.41055110
   5.23927000  8.60748000 12.50141110
   1.56572000  1.49011000 13.98809110
  12.88200000 10.37210000 12.16584110
  14.31470000 12.05770000 11.42461110
   8.63412000  1.32554000 18.97040110
   5.19852000 12.16910000 10.80792810
  12.87980000  3.28938000 12.71264110
   0.39790900  5.96188000 10.39848810
   8.76226000 11.67460000 15.51237110
   0.07707690 13.02760000 15.68648110
   1.49985000 13.20750000 17.58124110
  12.91260000  6.08601000 16.17690110
   6.49046000 14.23990000 14.47370110
   2.03448000  4.47057000 10.73059910
   4.05004000  2.23678000 12.96120110
   8.91627000  8.31590000 10.75154110
   7.29440000 11.75700000 11.90051110
   0.01107750  4.44346000 16.05599110
   1.06904000 10.90440000 15.41875110
   6.66276000  4.08452000 13.96282110
   5.31645000 13.91770000 17.86207110
  10.59380000 10.25280000 18.30272110
   6.62841000  1.99947000 15.08294110
   0.60959700  1.09787000 10.82305110
   7.71022000  0.93668500 10.99102110
  11.37930000 14.41380000 17.14138110
   9.29320000  9.69933000 16.48945110
  11.36780000  2.12210000 11.16231110
   9.07333000 10.45980000 11.38731110
   4.10427000  7.45688000 15.90545110
  13.81330000 14.21660000 12.16532110
  14.29290000  9.43673000 16.71647110
   1.56653000  9.67516000 13.53336110
  12.95060000  8.26623000 15.28809110
   5.05018000 11.07450000 15.08613110
   7.86294000  4.58075000 11.93887110
  10.54390000  6.50080000 13.91214110
   3.19964000 10.81690000 10.36662210
  11.39690000  5.68677000 10.25110010
  14.32420000  6.52578000 12.49625110
  10.91050000  5.06380000 15.66601110
   3.25442000  5.28288000 15.16909110
   0.92287600  3.13103000 12.24347110
   4.63110000  7.50506000 10.57658310
   7.14538000 10.78440000 14.03345110
  11.64600000 14.40950000 11.38564110
  10.81640000 10.47460000 13.10663110



--------------------------------------------------------------------------------------------------------


 k-point     1 :   0.0000 0.0000 0.0000  plane waves:  578099
 k-point     2 :   0.5000 0.0000 0.0000  plane waves:  578226
 k-point     3 :   0.0000 0.5000 0.0000  plane waves:  578226
 k-point     4 :   0.5000 0.5000 0.0000  plane waves:  578444

 maximum and minimum number of plane-waves per node :     36185    36055

 maximum number of plane-waves:    578444
 maximum index in each direction: 
   IXMAX=   41   IYMAX=   41   IZMAX=   81
   IXMIN=  -41   IYMIN=  -41   IZMIN=  -81


 parallel 3D FFT for wavefunctions:
    minimum data exchange during FFTs selected (reduces bandwidth)
 parallel 3D FFT for charge:
    minimum data exchange during FFTs selected (reduces bandwidth)


 total amount of memory used by VASP MPI-rank0   380088. kBytes
=======================================================================

   base                                    :      30000. kBytes
   nonl-proj                               :      78088. kBytes
   fftplans                                :     114276. kBytes
   grid                                    :      88184. kBytes
   one-center                              :         21. kBytes
   wavefun                                 :      69519. kBytes

     INWAV:  cpu time     20.3557: real time     20.3695
 Broyden mixing: mesh for mixing (old mesh)
   NGX = 83   NGY = 83   NGZ =163
  (NGX  =336   NGY  =336   NGZ  =672)
  gives a total of ****** points

 initial charge density was supplied:
 number of electron     372.9999999 magnetization 
 keeping initial charge density in first step


--------------------------------------------------------------------------------------------------------


 Maximum index for augmentation-charges        11542 (set IRDMAX)


--------------------------------------------------------------------------------------------------------


 First call to EWALD:  gamma=   0.097
 Maximum number of real-space cells   3x   3x   2
 Maximum number of reciprocal cells   2x   2x   4

    FEWALD:  cpu time      0.0178: real time      0.0179


--------------------------------------- Ionic step        1  -------------------------------------------




--------------------------------------- Iteration      1(   1)  ---------------------------------------


    POTLOK:  cpu time      2.3103: real time      2.3117
    SETDIJ:  cpu time      1.7818: real time      1.7827
    EDDIAG:  cpu time     42.1453: real time     42.1679
     EDDAV:  cpu time    195.0068: real time    195.1119
       DOS:  cpu time      0.0066: real time      0.0067
    CHARGE:  cpu time     24.5091: real time     24.5308
    MIXING:  cpu time      0.0519: real time      0.0523
    --------------------------------------------
      LOOP:  cpu time    265.8120: real time    265.9640

 eigenvalue-minimisations  :  1920
 total energy-change (2. order) :-0.9325654E+03  (-0.1036806E+01)
 number of electron     372.9999999 magnetization 
 augmentation part      -20.4840705 magnetization 

 Broyden mixing:
  rms(total) = 0.11404E+01    rms(broyden)= 0.11404E+01
  rms(prec ) = 0.11424E+01
  weight for this iteration     100.00

 Free energy of the ion-electron system (eV)
  ---------------------------------------------------
  alpha Z        PSCENC =        48.04138745
  Ewald energy   TEWEN  =     61270.38097713
  -Hartree energ DENC   =    -69563.62723594
  -exchange      EXHF   =         0.00000000
  -V(xc)+E(xc)   XCENC  =      -412.36087560
  PAW double counting   =     32512.94840528   -31615.33987900
  entropy T*S    EENTRO =        -0.27308176
  eigenvalues    EBANDS =     -2610.69907165
  atomic energy  EATOM  =      9438.36392702
  Solvation  Ediel_sol  =         0.00000000
  ---------------------------------------------------
  free energy    TOTEN  =      -932.56544707 eV

  energy without entropy =     -932.29236531  energy(sigma->0) =     -932.42890619


--------------------------------------------------------------------------------------------------------




--------------------------------------- Iteration      1(   2)  ---------------------------------------


    POTLOK:  cpu time      2.2656: real time      2.2820
    SETDIJ:  cpu time      1.7750: real time      1.7762
    EDDIAG:  cpu time     42.1247: real time     42.1481
     EDDAV:  cpu time    195.3656: real time    195.4669
       DOS:  cpu time      0.0027: real time      0.0027
    CHARGE:  cpu time     24.4202: real time     24.4408
    MIXING:  cpu time      0.0446: real time      0.0446
    --------------------------------------------
      LOOP:  cpu time    265.9984: real time    266.1613

 eigenvalue-minimisations  :  1928
 total energy-change (2. order) : 0.6643826E+02  (-0.1020397E+01)
 number of electron     372.9999999 magnetization 
 augmentation part      -20.4240884 magnetization 

 Broyden mixing:
  rms(total) = 0.77224E+00    rms(broyden)= 0.77223E+00
  rms(prec ) = 0.77654E+00
  weight for this iteration     100.00

 eigenvalues of (default mixing * dielectric matrix)
  average eigenvalue GAMMA=   2.5526
  2.5526

 Free energy of the ion-electron system (eV)
  ---------------------------------------------------
  alpha Z        PSCENC =        48.04138745
  Ewald energy   TEWEN  =     61270.38097713
  -Hartree energ DENC   =    -69549.33615094
  -exchange      EXHF   =         0.00000000
  -V(xc)+E(xc)   XCENC  =      -402.55295273
  PAW double counting   =     38766.59379188   -37868.76159945
  entropy T*S    EENTRO =        -0.26424444
  eigenvalues    EBANDS =     -2568.59232133
  atomic energy  EATOM  =      9438.36392702
  Solvation  Ediel_sol  =         0.00000000
  ---------------------------------------------------
  free energy    TOTEN  =      -866.12718542 eV

  energy without entropy =     -865.86294098  energy(sigma->0) =     -865.99506320


--------------------------------------------------------------------------------------------------------




--------------------------------------- Iteration      1(   3)  ---------------------------------------


    POTLOK:  cpu time      2.2618: real time      2.2790
    SETDIJ:  cpu time      1.8128: real time      1.8139
    EDDIAG:  cpu time     42.1083: real time     42.1335
     EDDAV:  cpu time    204.0198: real time    204.1325
       DOS:  cpu time      0.0037: real time      0.0037
    CHARGE:  cpu time     24.4195: real time     24.4408
    MIXING:  cpu time      0.0430: real time      0.0430
    --------------------------------------------
      LOOP:  cpu time    274.6689: real time    274.8463

 eigenvalue-minimisations  :  2080
 total energy-change (2. order) :-0.3291350E+01  (-0.9934007E+00)
 number of electron     372.9999999 magnetization 
 augmentation part      -20.3285199 magnetization 

 Broyden mixing:
  rms(total) = 0.37515E+00    rms(broyden)= 0.37515E+00
  rms(prec ) = 0.63711E+00
  weight for this iteration     100.00

 eigenvalues of (default mixing * dielectric matrix)
  average eigenvalue GAMMA=   1.6192
  2.6762  0.5622

 Free energy of the ion-electron system (eV)
  ---------------------------------------------------
  alpha Z        PSCENC =        48.04138745
  Ewald energy   TEWEN  =     61270.38097713
  -Hartree energ DENC   =    -69546.17524043
  -exchange      EXHF   =         0.00000000
  -V(xc)+E(xc)   XCENC  =      -405.56952926
  PAW double counting   =     50025.63729221   -49128.05516364
  entropy T*S    EENTRO =        -0.21119383
  eigenvalues    EBANDS =     -2571.83099186
  atomic energy  EATOM  =      9438.36392702
  Solvation  Ediel_sol  =         0.00000000
  ---------------------------------------------------
  free energy    TOTEN  =      -869.41853521 eV

  energy without entropy =     -869.20734138  energy(sigma->0) =     -869.31293830


--------------------------------------------------------------------------------------------------------




--------------------------------------- Iteration      1(   4)  ---------------------------------------


    POTLOK:  cpu time      2.2627: real time      2.2808
    SETDIJ:  cpu time      1.7750: real time      1.7763
    EDDIAG:  cpu time     42.1167: real time     42.1418
     EDDAV:  cpu time    214.6954: real time    214.8115
       DOS:  cpu time      0.0024: real time      0.0024
    CHARGE:  cpu time     24.3910: real time     24.4126
    MIXING:  cpu time      0.0434: real time      0.0434
    --------------------------------------------
      LOOP:  cpu time    285.2866: real time    285.4689

 eigenvalue-minimisations  :  2264
 total energy-change (2. order) : 0.3588866E+00  (-0.3897536E+00)
 number of electron     372.9999999 magnetization 
 augmentation part      -20.3374851 magnetization 

 Broyden mixing:
  rms(total) = 0.23374E+00    rms(broyden)= 0.23374E+00
  rms(prec ) = 0.40156E+00
  weight for this iteration     100.00

 eigenvalues of (default mixing * dielectric matrix)
  average eigenvalue GAMMA=   1.2299
  2.6509  0.7528  0.2861

 Free energy of the ion-electron system (eV)
  ---------------------------------------------------
  alpha Z        PSCENC =        48.04138745
  Ewald energy   TEWEN  =     61270.38097713
  -Hartree energ DENC   =    -69546.98785204
  -exchange      EXHF   =         0.00000000
  -V(xc)+E(xc)   XCENC  =      -407.70023085
  PAW double counting   =     51541.33835253   -50643.75997504
  entropy T*S    EENTRO =        -0.28336098
  eigenvalues    EBANDS =     -2568.45287384
  atomic energy  EATOM  =      9438.36392702
  Solvation  Ediel_sol  =         0.00000000
  ---------------------------------------------------
  free energy    TOTEN  =      -869.05964862 eV

  energy without entropy =     -868.77628764  energy(sigma->0) =     -868.91796813


--------------------------------------------------------------------------------------------------------




--------------------------------------- Iteration      1(   5)  ---------------------------------------


    POTLOK:  cpu time      2.2558: real time      2.2768
    SETDIJ:  cpu time      1.7811: real time      1.7818
    EDDIAG:  cpu time     42.1479: real time     42.1736
     EDDAV:  cpu time    209.1923: real time    209.3041
       DOS:  cpu time      0.0022: real time      0.0022
    CHARGE:  cpu time     24.3839: real time     24.4067
    MIXING:  cpu time      0.0438: real time      0.0438
    --------------------------------------------
      LOOP:  cpu time    279.8071: real time    279.9892

 eigenvalue-minimisations  :  2168
 total energy-change (2. order) : 0.4083194E-01  (-0.1379354E+00)
 number of electron     372.9999999 magnetization 
 augmentation part      -20.3517367 magnetization 

 Broyden mixing:
  rms(total) = 0.83454E-01    rms(broyden)= 0.83454E-01
  rms(prec ) = 0.10808E+00
  weight for this iteration     100.00

 eigenvalues of (default mixing * dielectric matrix)
  average eigenvalue GAMMA=   1.1005
  2.5763  1.0322  0.5332  0.2602

 Free energy of the ion-electron system (eV)
  ---------------------------------------------------
  alpha Z        PSCENC =        48.04138745
  Ewald energy   TEWEN  =     61270.38097713
  -Hartree energ DENC   =    -69551.71408368
  -exchange      EXHF   =         0.00000000
  -V(xc)+E(xc)   XCENC  =      -408.46662802
  PAW double counting   =     51593.53932167   -50695.93431386
  entropy T*S    EENTRO =        -0.25467661
  eigenvalues    EBANDS =     -2562.97472778
  atomic energy  EATOM  =      9438.36392702
  Solvation  Ediel_sol  =         0.00000000
  ---------------------------------------------------
  free energy    TOTEN  =      -869.01881668 eV

  energy without entropy =     -868.76414008  energy(sigma->0) =     -868.89147838


--------------------------------------------------------------------------------------------------------




--------------------------------------- Iteration      1(   6)  ---------------------------------------


    POTLOK:  cpu time      2.2656: real time      2.2751
    SETDIJ:  cpu time      1.7697: real time      1.7705
    EDDIAG:  cpu time     42.1421: real time     42.1680
     EDDAV:  cpu time    202.9821: real time    203.0893
       DOS:  cpu time      0.0020: real time      0.0020
    CHARGE:  cpu time     24.3953: real time     24.4171
    MIXING:  cpu time      0.0456: real time      0.0456
    --------------------------------------------
      LOOP:  cpu time    273.6023: real time    273.7675

 eigenvalue-minimisations  :  2064
 total energy-change (2. order) :-0.1255153E-01  (-0.2745207E-01)
 number of electron     372.9999999 magnetization 
 augmentation part      -20.3477974 magnetization 

 Broyden mixing:
  rms(total) = 0.56671E-01    rms(broyden)= 0.56671E-01
  rms(prec ) = 0.68784E-01
  weight for this iteration     100.00

 eigenvalues of (default mixing * dielectric matrix)
  average eigenvalue GAMMA=   1.0030
  2.5500  1.1856  0.2642  0.5075  0.5075

 Free energy of the ion-electron system (eV)
  ---------------------------------------------------
  alpha Z        PSCENC =        48.04138745
  Ewald energy   TEWEN  =     61270.38097713
  -Hartree energ DENC   =    -69549.79711553
  -exchange      EXHF   =         0.00000000
  -V(xc)+E(xc)   XCENC  =      -408.73169798
  PAW double counting   =     51374.33131019   -50476.70846600
  entropy T*S    EENTRO =        -0.26854893
  eigenvalues    EBANDS =     -2564.64314156
  atomic energy  EATOM  =      9438.36392702
  Solvation  Ediel_sol  =         0.00000000
  ---------------------------------------------------
  free energy    TOTEN  =      -869.03136821 eV

  energy without entropy =     -868.76281928  energy(sigma->0) =     -868.89709374


--------------------------------------------------------------------------------------------------------




--------------------------------------- Iteration      1(   7)  ---------------------------------------


    POTLOK:  cpu time      2.2584: real time      2.2758
    SETDIJ:  cpu time      1.7837: real time      1.7851
    EDDIAG:  cpu time     42.1310: real time     42.1556
     EDDAV:  cpu time    201.9683: real time    202.0753
       DOS:  cpu time      0.0024: real time      0.0024
    CHARGE:  cpu time     24.4235: real time     24.4446
    MIXING:  cpu time      0.0453: real time      0.0453
    --------------------------------------------
      LOOP:  cpu time    272.6127: real time    272.7840

 eigenvalue-minimisations  :  2040
 total energy-change (2. order) : 0.2490631E-02  (-0.4601621E-02)
 number of electron     372.9999999 magnetization 
 augmentation part      -20.3483380 magnetization 

 Broyden mixing:
  rms(total) = 0.34217E-01    rms(broyden)= 0.34217E-01
  rms(prec ) = 0.38141E-01
  weight for this iteration     100.00

 eigenvalues of (default mixing * dielectric matrix)
  average eigenvalue GAMMA=   1.0032
  2.5151  1.5382  0.2617  0.6491  0.5359  0.5192

 Free energy of the ion-electron system (eV)
  ---------------------------------------------------
  alpha Z        PSCENC =        48.04138745
  Ewald energy   TEWEN  =     61270.38097713
  -Hartree energ DENC   =    -69548.22335843
  -exchange      EXHF   =         0.00000000
  -V(xc)+E(xc)   XCENC  =      -408.73342312
  PAW double counting   =     51308.51993108   -50410.88595020
  entropy T*S    EENTRO =        -0.26454643
  eigenvalues    EBANDS =     -2566.22782208
  atomic energy  EATOM  =      9438.36392702
  Solvation  Ediel_sol  =         0.00000000
  ---------------------------------------------------
  free energy    TOTEN  =      -869.02887758 eV

  energy without entropy =     -868.76433115  energy(sigma->0) =     -868.89660436


--------------------------------------------------------------------------------------------------------




--------------------------------------- Iteration      1(   8)  ---------------------------------------


    POTLOK:  cpu time      2.2815: real time      2.2827
    SETDIJ:  cpu time      1.7846: real time      1.7855
    EDDIAG:  cpu time     42.1426: real time     42.1671
     EDDAV:  cpu time    207.2599: real time    207.3742
       DOS:  cpu time      0.0043: real time      0.0043
    CHARGE:  cpu time     24.4405: real time     24.4614
    MIXING:  cpu time      0.0457: real time      0.0457
    --------------------------------------------
      LOOP:  cpu time    277.9591: real time    278.1209

 eigenvalue-minimisations  :  2136
 total energy-change (2. order) : 0.1380523E-03  (-0.1820767E-02)
 number of electron     372.9999999 magnetization 
 augmentation part      -20.3462077 magnetization 

 Broyden mixing:
  rms(total) = 0.23970E-01    rms(broyden)= 0.23970E-01
  rms(prec ) = 0.27152E-01
  weight for this iteration     100.00

 eigenvalues of (default mixing * dielectric matrix)
  average eigenvalue GAMMA=   1.0494
  2.4361  2.1958  0.7833  0.7833  0.2623  0.4426  0.4426

 Free energy of the ion-electron system (eV)
  ---------------------------------------------------
  alpha Z        PSCENC =        48.04138745
  Ewald energy   TEWEN  =     61270.38097713
  -Hartree energ DENC   =    -69546.75355281
  -exchange      EXHF   =         0.00000000
  -V(xc)+E(xc)   XCENC  =      -408.58155945
  PAW double counting   =     51287.43534422   -50389.78978000
  entropy T*S    EENTRO =        -0.26588836
  eigenvalues    EBANDS =     -2567.85959472
  atomic energy  EATOM  =      9438.36392702
  Solvation  Ediel_sol  =         0.00000000
  ---------------------------------------------------
  free energy    TOTEN  =      -869.02873953 eV

  energy without entropy =     -868.76285117  energy(sigma->0) =     -868.89579535


--------------------------------------------------------------------------------------------------------




--------------------------------------- Iteration      1(   9)  ---------------------------------------


    POTLOK:  cpu time      2.2653: real time      2.2819
    SETDIJ:  cpu time      1.7887: real time      1.7900
    EDDIAG:  cpu time     42.1211: real time     42.1475
     EDDAV:  cpu time    202.7545: real time    202.8732
       DOS:  cpu time      0.0135: real time      0.0135
    CHARGE:  cpu time     24.4168: real time     24.4375
    MIXING:  cpu time      0.0605: real time      0.0607
    --------------------------------------------
      LOOP:  cpu time    273.4205: real time    273.6044

 eigenvalue-minimisations  :  2056
 total energy-change (2. order) :-0.5373673E-03  (-0.7034615E-03)
 number of electron     372.9999999 magnetization 
 augmentation part      -20.3450175 magnetization 

 Broyden mixing:
  rms(total) = 0.10664E-01    rms(broyden)= 0.10664E-01
  rms(prec ) = 0.11602E-01
  weight for this iteration     100.00

 eigenvalues of (default mixing * dielectric matrix)
  average eigenvalue GAMMA=   1.0948
  2.5426  2.5426  0.9790  0.9790  0.2624  0.5640  0.4520  0.4364

 Free energy of the ion-electron system (eV)
  ---------------------------------------------------
  alpha Z        PSCENC =        48.04138745
  Ewald energy   TEWEN  =     61270.38097713
  -Hartree energ DENC   =    -69546.43356783
  -exchange      EXHF   =         0.00000000
  -V(xc)+E(xc)   XCENC  =      -408.38083611
  PAW double counting   =     51294.16546732   -50396.50703371
  entropy T*S    EENTRO =        -0.26589443
  eigenvalues    EBANDS =     -2568.39370372
  atomic energy  EATOM  =      9438.36392702
  Solvation  Ediel_sol  =         0.00000000
  ---------------------------------------------------
  free energy    TOTEN  =      -869.02927689 eV

  energy without entropy =     -868.76338247  energy(sigma->0) =     -868.89632968


--------------------------------------------------------------------------------------------------------




--------------------------------------- Iteration      1(  10)  ---------------------------------------


    POTLOK:  cpu time      2.2645: real time      2.2832
    SETDIJ:  cpu time      1.8652: real time      1.8665
    EDDIAG:  cpu time     42.1479: real time     42.1721
     EDDAV:  cpu time    200.7733: real time    200.8745
       DOS:  cpu time      0.0048: real time      0.0048
    CHARGE:  cpu time     24.4420: real time     24.4640
    MIXING:  cpu time      0.0476: real time      0.0476
    --------------------------------------------
      LOOP:  cpu time    271.5452: real time    271.7126

 eigenvalue-minimisations  :  2024
 total energy-change (2. order) :-0.4208575E-03  (-0.2810898E-03)
 number of electron     372.9999999 magnetization 
 augmentation part      -20.3440861 magnetization 

 Broyden mixing:
  rms(total) = 0.45770E-02    rms(broyden)= 0.45770E-02
  rms(prec ) = 0.52920E-02
  weight for this iteration     100.00

 eigenvalues of (default mixing * dielectric matrix)
  average eigenvalue GAMMA=   1.0820
  2.6113  2.6113  1.1932  0.9298  0.2624  0.6174  0.6104  0.4820  0.4201

 Free energy of the ion-electron system (eV)
  ---------------------------------------------------
  alpha Z        PSCENC =        48.04138745
  Ewald energy   TEWEN  =     61270.38097713
  -Hartree energ DENC   =    -69546.26385768
  -exchange      EXHF   =         0.00000000
  -V(xc)+E(xc)   XCENC  =      -408.31037750
  PAW double counting   =     51314.36863845   -50416.70186940
  entropy T*S    EENTRO =        -0.26614837
  eigenvalues    EBANDS =     -2568.64237484
  atomic energy  EATOM  =      9438.36392702
  Solvation  Ediel_sol  =         0.00000000
  ---------------------------------------------------
  free energy    TOTEN  =      -869.02969775 eV

  energy without entropy =     -868.76354938  energy(sigma->0) =     -868.89662357


--------------------------------------------------------------------------------------------------------




--------------------------------------- Iteration      1(  11)  ---------------------------------------


    POTLOK:  cpu time      2.2598: real time      2.2824
    SETDIJ:  cpu time      1.7741: real time      1.7749
    EDDIAG:  cpu time     42.1347: real time     42.1594
     EDDAV:  cpu time    207.7830: real time    207.8937
       DOS:  cpu time      0.0025: real time      0.0025
    CHARGE:  cpu time     24.4247: real time     24.4471
    MIXING:  cpu time      0.0490: real time      0.0491
    --------------------------------------------
      LOOP:  cpu time    278.4280: real time    278.6091

 eigenvalue-minimisations  :  2144
 total energy-change (2. order) :-0.8633743E-04  (-0.6930688E-04)
 number of electron     372.9999999 magnetization 
 augmentation part      -20.3441442 magnetization 

 Broyden mixing:
  rms(total) = 0.24819E-02    rms(broyden)= 0.24819E-02
  rms(prec ) = 0.28871E-02
  weight for this iteration     100.00

 eigenvalues of (default mixing * dielectric matrix)
  average eigenvalue GAMMA=   1.0760
  2.6415  2.6415  1.4172  0.9455  0.7291  0.7291  0.2624  0.4860  0.4860  0.4214

 Free energy of the ion-electron system (eV)
  ---------------------------------------------------
  alpha Z        PSCENC =        48.04138745
  Ewald energy   TEWEN  =     61270.38097713
  -Hartree energ DENC   =    -69545.97060066
  -exchange      EXHF   =         0.00000000
  -V(xc)+E(xc)   XCENC  =      -408.30423954
  PAW double counting   =     51314.95599332   -50417.28538600
  entropy T*S    EENTRO =        -0.26623332
  eigenvalues    EBANDS =     -2568.94560949
  atomic energy  EATOM  =      9438.36392702
  Solvation  Ediel_sol  =         0.00000000
  ---------------------------------------------------
  free energy    TOTEN  =      -869.02978409 eV

  energy without entropy =     -868.76355077  energy(sigma->0) =     -868.89666743


--------------------------------------------------------------------------------------------------------




--------------------------------------- Iteration      1(  12)  ---------------------------------------


    POTLOK:  cpu time      2.2775: real time      2.2785
    SETDIJ:  cpu time      1.7790: real time      1.7806
    EDDIAG:  cpu time     42.1454: real time     42.1703
     EDDAV:  cpu time    202.2043: real time    202.3129
       DOS:  cpu time      0.0025: real time      0.0025
    CHARGE:  cpu time     24.4347: real time     24.4567
    MIXING:  cpu time      0.0489: real time      0.0489
    --------------------------------------------
      LOOP:  cpu time    272.8922: real time    273.0504

 eigenvalue-minimisations  :  2048
 total energy-change (2. order) :-0.7246566E-04  (-0.3140733E-04)
 number of electron     372.9999999 magnetization 
 augmentation part      -20.3442587 magnetization 

 Broyden mixing:
  rms(total) = 0.13582E-02    rms(broyden)= 0.13582E-02
  rms(prec ) = 0.16256E-02
  weight for this iteration     100.00

 eigenvalues of (default mixing * dielectric matrix)
  average eigenvalue GAMMA=   1.1073
  2.7513  2.7513  1.7799  1.0527  0.7959  0.7959  0.2624  0.5849  0.4210  0.4927
  0.4927

 Free energy of the ion-electron system (eV)
  ---------------------------------------------------
  alpha Z        PSCENC =        48.04138745
  Ewald energy   TEWEN  =     61270.38097713
  -Hartree energ DENC   =    -69545.75412065
  -exchange      EXHF   =         0.00000000
  -V(xc)+E(xc)   XCENC  =      -408.31355322
  PAW double counting   =     51311.22903526   -50413.55691379
  entropy T*S    EENTRO =        -0.26602919
  eigenvalues    EBANDS =     -2569.15456656
  atomic energy  EATOM  =      9438.36392702
  Solvation  Ediel_sol  =         0.00000000
  ---------------------------------------------------
  free energy    TOTEN  =      -869.02985656 eV

  energy without entropy =     -868.76382736  energy(sigma->0) =     -868.89684196


--------------------------------------------------------------------------------------------------------




--------------------------------------- Iteration      1(  13)  ---------------------------------------


    POTLOK:  cpu time      2.2645: real time      2.2821
    SETDIJ:  cpu time      1.7797: real time      1.7812
    EDDIAG:  cpu time     42.1322: real time     42.1575
     EDDAV:  cpu time    202.1541: real time    202.2567
       DOS:  cpu time      0.0021: real time      0.0021
    CHARGE:  cpu time     24.4474: real time     24.4686
    MIXING:  cpu time      0.0499: real time      0.0499
    --------------------------------------------
      LOOP:  cpu time    272.8298: real time    272.9981

 eigenvalue-minimisations  :  2048
 total energy-change (2. order) :-0.9609493E-04  (-0.2684310E-04)
 number of electron     372.9999999 magnetization 
 augmentation part      -20.3443747 magnetization 

 Broyden mixing:
  rms(total) = 0.73805E-03    rms(broyden)= 0.73804E-03
  rms(prec ) = 0.95191E-03
  weight for this iteration     100.00

 eigenvalues of (default mixing * dielectric matrix)
  average eigenvalue GAMMA=   1.1227
  2.8107  2.8107  2.0408  1.1423  0.8893  0.8893  0.2624  0.6198  0.6198  0.4179
  0.4846  0.4846

 Free energy of the ion-electron system (eV)
  ---------------------------------------------------
  alpha Z        PSCENC =        48.04138745
  Ewald energy   TEWEN  =     61270.38097713
  -Hartree energ DENC   =    -69545.40035792
  -exchange      EXHF   =         0.00000000
  -V(xc)+E(xc)   XCENC  =      -408.32076278
  PAW double counting   =     51306.06877116   -50408.39535220
  entropy T*S    EENTRO =        -0.26606008
  eigenvalues    EBANDS =     -2569.50248242
  atomic energy  EATOM  =      9438.36392702
  Solvation  Ediel_sol  =         0.00000000
  ---------------------------------------------------
  free energy    TOTEN  =      -869.02995265 eV

  energy without entropy =     -868.76389257  energy(sigma->0) =     -868.89692261


--------------------------------------------------------------------------------------------------------




--------------------------------------- Iteration      1(  14)  ---------------------------------------


    POTLOK:  cpu time      2.2782: real time      2.2794
    SETDIJ:  cpu time      1.7835: real time      1.7847
    EDDIAG:  cpu time     42.1620: real time     42.1851
     EDDAV:  cpu time    198.6826: real time    198.7800
       DOS:  cpu time      0.0038: real time      0.0038
    CHARGE:  cpu time     24.4297: real time     24.4654
    MIXING:  cpu time      0.0515: real time      0.0515
    --------------------------------------------
      LOOP:  cpu time    269.3913: real time    269.5500

 eigenvalue-minimisations  :  1984
 total energy-change (2. order) :-0.1424820E-03  (-0.1350336E-04)
 number of electron     372.9999999 magnetization 
 augmentation part      -20.3444609 magnetization 

 Broyden mixing:
  rms(total) = 0.45246E-03    rms(broyden)= 0.45246E-03
  rms(prec ) = 0.64780E-03
  weight for this iteration     100.00

 eigenvalues of (default mixing * dielectric matrix)
  average eigenvalue GAMMA=   1.1296
  2.8949  2.8949  2.1566  1.3086  0.9269  0.9269  0.2624  0.7148  0.6001  0.6001
  0.4190  0.4900  0.4900

 Free energy of the ion-electron system (eV)
  ---------------------------------------------------
  alpha Z        PSCENC =        48.04138745
  Ewald energy   TEWEN  =     61270.38097713
  -Hartree energ DENC   =    -69545.16066411
  -exchange      EXHF   =         0.00000000
  -V(xc)+E(xc)   XCENC  =      -408.32919032
  PAW double counting   =     51304.75884440   -50407.08520446
  entropy T*S    EENTRO =        -0.26606087
  eigenvalues    EBANDS =     -2569.73411136
  atomic energy  EATOM  =      9438.36392702
  Solvation  Ediel_sol  =         0.00000000
  ---------------------------------------------------
  free energy    TOTEN  =      -869.03009513 eV

  energy without entropy =     -868.76403426  energy(sigma->0) =     -868.89706470


--------------------------------------------------------------------------------------------------------




--------------------------------------- Iteration      1(  15)  ---------------------------------------


    POTLOK:  cpu time      2.2549: real time      2.2763
    SETDIJ:  cpu time      1.7717: real time      1.7728
    EDDIAG:  cpu time     42.1163: real time     42.1418
     EDDAV:  cpu time    197.9596: real time    198.0682
       DOS:  cpu time      0.0091: real time      0.0096
    CHARGE:  cpu time     24.4275: real time     24.4496
    MIXING:  cpu time      0.0665: real time      0.0666
    --------------------------------------------
      LOOP:  cpu time    268.6062: real time    268.7856

 eigenvalue-minimisations  :  1976
 total energy-change (2. order) :-0.1173748E-03  (-0.1071977E-04)
 number of electron     372.9999999 magnetization 
 augmentation part      -20.3445106 magnetization 

 Broyden mixing:
  rms(total) = 0.29958E-03    rms(broyden)= 0.29958E-03
  rms(prec ) = 0.45688E-03
  weight for this iteration     100.00

 eigenvalues of (default mixing * dielectric matrix)
  average eigenvalue GAMMA=   1.1399
  2.9664  2.9664  2.2604  1.5294  0.9657  0.9657  0.2624  0.7592  0.7592  0.4189
  0.5653  0.5653  0.4870  0.4870

[...]
   -.259E+01 0.115E+02 0.344E+03   0.374E+00 -.110E+02 -.346E+03   0.241E+01 -.156E+01 0.164E+01   0.319E-04 -.533E-04 0.626E-05
   -.213E+01 -.137E+01 0.267E+03   0.295E+01 0.172E+01 -.263E+03   -.144E+01 0.818E+00 -.289E+01   0.106E-03 -.270E-04 0.361E-04
   -.568E+00 0.153E+01 -.181E+03   0.268E+01 0.128E+01 0.184E+03   -.174E+01 -.301E+01 -.282E+01   -.316E-04 0.561E-04 0.435E-04
   0.693E+01 0.681E+00 -.109E+03   -.467E+01 -.144E+01 0.109E+03   -.263E+01 0.115E+01 0.494E+00   -.188E-04 -.924E-04 0.923E-04
   -.155E+02 -.165E+02 0.467E+02   0.138E+02 0.171E+02 -.451E+02   0.184E+01 -.790E+00 -.191E+01   0.188E-04 0.436E-04 0.143E-04
   0.189E+02 0.325E+02 -.342E+03   -.197E+02 -.317E+02 0.343E+03   0.137E+01 -.714E+00 -.102E+01   0.432E-04 -.157E-04 0.789E-04
   0.133E+02 0.179E+02 -.373E+03   -.147E+02 -.160E+02 0.374E+03   0.199E+01 -.220E+01 -.382E+00   -.492E-05 0.259E-04 0.490E-04
   0.258E+02 0.208E+02 -.608E+02   -.229E+02 -.190E+02 0.623E+02   -.327E+01 -.269E+01 -.242E+01   0.557E-04 0.544E-04 0.519E-04
   0.167E+02 -.719E+01 0.344E+03   -.160E+02 0.688E+01 -.345E+03   -.816E+00 0.686E+00 0.114E+01   -.393E-04 0.851E-04 -.227E-04
   -.693E+01 0.216E+02 0.350E+03   0.775E+01 -.224E+02 -.350E+03   -.790E+00 0.679E+00 -.475E+00   0.278E-04 0.545E-04 0.654E-05
   -.124E+02 0.353E+01 -.307E+03   0.130E+02 -.410E+01 0.306E+03   -.261E+00 0.125E+01 0.769E+00   -.539E-04 -.141E-04 0.112E-03
   -.666E+00 0.384E+02 -.233E+03   0.230E+00 -.351E+02 0.233E+03   0.308E+00 -.427E+01 -.194E+00   0.336E-04 0.405E-05 0.926E-04
   -.996E+01 -.154E+02 0.341E+03   0.895E+01 0.139E+02 -.339E+03   0.103E+01 0.216E+01 -.183E+01   -.117E-04 0.775E-04 -.752E-05
   -.174E+02 -.144E+02 0.304E+03   0.160E+02 0.114E+02 -.303E+03   0.264E+01 0.259E+01 -.660E+00   0.506E-04 -.403E-04 -.549E-06
   0.242E+02 0.931E+01 -.175E+03   -.228E+02 -.884E+01 0.176E+03   -.251E+01 -.409E+00 -.528E+00   -.194E-04 0.313E-04 0.157E-03
   0.659E+01 0.180E+02 0.202E+03   -.722E+01 -.180E+02 -.204E+03   0.472E+00 -.558E-01 0.129E+01   -.508E-04 0.106E-04 0.202E-04
   0.355E+01 0.161E+02 -.244E+03   -.296E+01 -.161E+02 0.243E+03   -.392E+00 0.953E+00 0.211E+01   -.484E-04 -.401E-04 0.633E-04
   -.556E+01 0.304E+02 0.946E+02   0.462E+01 -.283E+02 -.932E+02   0.131E+01 -.156E+01 -.184E+01   -.260E-04 -.103E-03 0.356E-04
   0.522E+01 -.197E+01 -.106E+03   -.474E+01 0.137E+01 0.106E+03   -.744E+00 0.636E+00 -.112E+01   0.170E-05 -.187E-04 0.613E-04
   0.138E+02 0.630E+01 -.864E+02   -.136E+02 -.623E+01 0.873E+02   -.742E+00 -.148E+01 -.160E+01   0.154E-04 -.821E-04 0.103E-03
   -.276E+02 -.171E+02 0.250E+03   0.266E+02 0.174E+02 -.250E+03   0.156E+01 -.151E+01 -.493E+00   -.650E-05 0.394E-04 -.140E-04
   0.125E+02 -.162E+02 0.396E+02   -.123E+02 0.146E+02 -.383E+02   -.862E+00 0.197E+01 -.189E+01   0.196E-04 -.632E-05 0.342E-05
   0.105E+02 0.384E+02 0.363E+03   -.116E+02 -.391E+02 -.364E+03   0.232E+01 0.934E+00 0.843E+00   -.718E-04 -.927E-04 -.386E-04
   0.113E+02 -.844E+01 0.366E+03   -.134E+02 0.689E+01 -.370E+03   0.223E+01 0.177E+01 0.314E+01   0.270E-04 0.110E-04 0.208E-04
   -.155E+02 -.275E+02 0.171E+03   0.147E+02 0.271E+02 -.173E+03   0.116E+01 -.355E+00 0.320E+01   -.181E-04 -.200E-04 -.274E-04
   0.101E+02 -.211E+02 -.159E+03   -.959E+01 0.220E+02 0.158E+03   -.436E+00 -.156E+01 0.115E+01   0.652E-05 0.578E-05 0.489E-04
   0.241E+02 -.323E+02 -.113E+03   -.210E+02 0.307E+02 0.111E+03   -.448E+01 0.280E+01 0.276E+01   -.112E-04 0.518E-04 0.384E-04
   0.859E+01 -.157E+01 0.205E+03   -.769E+01 0.146E+01 -.205E+03   -.186E+01 -.561E+00 0.978E+00   -.712E-05 0.127E-03 -.815E-05
   0.910E+01 -.152E+02 0.354E+03   -.850E+01 0.169E+02 -.357E+03   -.110E+01 -.171E+01 0.235E+01   -.727E-05 -.819E-04 -.127E-04
   -.417E+01 0.164E+02 0.250E+02   0.371E+01 -.131E+02 -.247E+02   0.830E+00 -.371E+01 -.306E+00   0.337E-04 -.522E-04 0.860E-04
   0.692E+01 0.390E+02 0.320E+03   -.567E+01 -.377E+02 -.318E+03   -.107E+01 -.121E+01 -.238E+01   -.194E-04 0.179E-04 -.258E-05
   0.493E+00 0.554E+01 0.139E+03   0.102E+01 -.515E+01 -.136E+03   -.209E+01 -.635E+00 -.240E+01   0.153E-04 -.576E-04 0.224E-04
 -----------------------------------------------------------------------------------------------
   0.178E+02 0.106E+02 0.598E+01   -.355E-13 0.201E-12 0.739E-12   -.179E+02 -.106E+02 -.598E+01   0.196E-03 -.185E-04 0.378E-02


 POSITION                                       TOTAL-FORCE (eV/Angst)
 -----------------------------------------------------------------------------------
     12.52630      4.07283     17.56306        -0.061311      0.028596     -0.361133
     13.05640      6.45167     17.62578         0.150430      0.062341      0.139248
     10.87370      7.18760     17.89827        -0.078156      0.609473     -0.284683
      1.23918      7.13559     15.78251         0.042182     -0.041486      0.733204
      0.80062      5.14816     17.12361         0.298816      0.181350      0.152263
      7.32841      9.10302     13.75059         0.121456      0.715371      0.384122
      4.35440      1.52089     14.27556         0.032432     -0.021196     -0.485730
      1.24895      7.10756     16.56277        -0.050316      0.067797     -0.895899
      1.86676     11.85060     18.06011        -0.032782     -0.347100      0.247974
      5.80008      9.82664     11.94657         0.432992      0.496816     -0.120578
      2.48703     11.11320     15.76445         0.202438      0.054124      0.500709
      2.43230      0.49895     13.31391         0.204315     -0.521841     -0.084789
      0.20916      6.14489     18.78632         0.498279      0.970462     -0.376092
      3.47445     13.25240     12.20566        -0.008868     -0.266773     -1.125747
      4.31230     13.12100     14.38070         0.282419      1.365581      0.816324
      6.73075      7.37927     13.65475         1.206770      0.363827     -0.162612
     12.90360      1.34736     16.09215        -0.384618      0.960266      0.579921
      2.55567     14.50630     10.21389         1.084283     -0.214425      0.469892
      4.42920      4.46386     13.54200         0.641800     -0.550088     -1.315360
      1.81700     11.57750     12.17917         0.288092     -0.560081     -0.286747
      5.84654      3.07750     16.92649        -0.916302      0.458689      0.642417
      7.42674     13.35210     16.44059         0.022221      0.935166      0.586853
     10.25500     13.96990     13.14209        -0.080651     -0.086311      1.117655
      5.56967      1.84249     11.05680        -0.601764      0.010361      0.337441
      3.68656      9.08639     14.16368         1.180353      0.046713      0.861461
      2.12707      1.90518     16.16608         1.242631     -0.272179      1.052558
      9.17239      2.54100     11.92785        -0.384214      0.527104     -0.859812
      0.16338      2.44425     17.40284        -1.000860     -0.209724     -0.800053
      9.14568      0.51858     16.91614        -0.073900     -1.929989      0.284148
      5.19163     10.39840     17.29839         0.424321     -0.703542      0.500630
      7.16282      8.90119     17.10919        -0.588076      0.295248     -0.239919
     11.88790      3.04091     14.74998        -0.297549     -0.494092      0.801477
     12.40380     12.57170     16.28013         0.196344     -0.102167      0.298404
      6.23870      1.54595     18.63397         0.869632     -0.928976     -0.145303
      8.80172      2.30141     15.59448         0.192882      0.449120      0.322650
     14.08640      8.68882     13.19317        -0.276203     -0.370307      0.544172
      7.96782     13.95550     12.71098        -0.175389     -0.961160     -0.868308
      3.66194      8.59910     17.97712         0.284472     -0.005653     -0.528879
      4.03735      5.32325     11.43596         1.033862      0.852705     -0.738161
     12.20550      5.52931     12.46120        -0.086229      0.651589     -0.406680
      1.07186      4.98075     13.94563         0.160322      0.053159      0.477829
     12.78370     10.99730     17.86726        -0.232327     -1.365893     -0.118183
     10.83680     12.17560     14.64942        -0.628503      1.240878     -0.840227
      7.03207      4.92610     16.09307         0.111105     -0.341011      0.569210
     10.67030      8.77613     14.71885         0.518501     -0.761491      0.240062
     10.13930      1.67555     13.87362         0.613218      0.094738     -0.267446
     12.28480      9.53332     10.00000        -0.588212     -0.118526      0.492901
      9.07846      4.26311     16.83745         0.421486      0.521391     -0.898466
      6.35907      7.05698     15.87079         0.056417      1.082181      1.045168
      3.25866     14.16700     16.48304         0.773176      0.620289     -0.320664
      9.65720      3.44692     18.83575         0.633113     -0.223119      0.947428
     14.23310      0.44373     14.43752        -1.175129     -1.770612     -0.265446
      3.60455      3.64088     16.83039        -0.523354     -0.095671     -1.003356
      8.61372      6.65505     12.47641         0.571308      0.904705      0.303466
      6.01894      4.07945     10.67509        -1.372531      0.063140     -0.006762
      1.34398      8.90207     18.41055        -0.372794     -0.821942      0.005690
      5.23927      8.60748     12.50141        -1.325549     -0.874952     -0.701113
      1.56572      1.49011     13.98809         1.049405      1.493778     -1.037869
     12.88200     10.37210     12.16584         0.249318     -0.330758     -0.975272
     14.31470     12.05770     11.42461        -0.720033      0.552668      0.173964
      8.63412      1.32554     18.97040        -1.220626      0.626084      0.425816
      5.19852     12.16910     10.80793        -0.984234     -0.468165      0.313562
     12.87980      3.28938     12.71264         0.716702      0.142939     -1.200581
      0.39791      5.96188     10.39849        -0.975665      0.577879     -1.084681
      8.76226     11.67460     15.51237        -0.758551      0.139470      0.014360
      0.07708     13.02760     15.68648         0.076890     -0.078170      0.054261
      1.49985     13.20750     17.58124        -0.448992      0.269498     -0.395404
     12.91260      6.08601     16.17690        -0.385018     -0.233736      1.159932
      6.49046     14.23990     14.47370        -0.395848      0.394674      0.524056
      2.03448      4.47057     10.73060         0.323137     -0.178287      0.172485
      4.05004      2.23678     12.96120         0.318407      0.037778      0.084734
      8.91627      8.31590     10.75154         0.358926     -1.022173     -0.365559
      7.29440     11.75700     11.90051        -0.699137      1.196380      0.244307
      0.01108      4.44346     16.05599         0.290073     -0.283711     -0.019330
      1.06904     10.90440     15.41875        -0.453255      0.447063      0.198586
      6.66276      4.08452     13.96282         0.256094     -0.179777     -0.416503
      5.31645     13.91770     17.86207         0.712764      0.147300     -0.846869
     10.59380     10.25280     18.30272         0.897596     -0.508494      0.243949
      6.62841      1.99947     15.08294        -0.458898     -1.060872     -0.994638
      0.60960      1.09787     10.82305        -0.091546      0.300224      0.867750
      7.71022      0.93669     10.99102        -0.074879      0.015456      0.255450
     11.37930     14.41380     17.14138         0.388351      0.761859     -0.652325
      9.29320      9.69933     16.48945        -0.118976     -1.122005      0.153323
     11.36780      2.12210     11.16231         0.038964      0.675510      0.401390
      9.07333     10.45980     11.38731         1.298560     -0.351372      0.515744
      4.10427      7.45688     15.90545        -1.165019      0.042157     -0.367519
     13.81330     14.21660     12.16532        -0.133873     -0.112506     -0.266613
     14.29290      9.43673     16.71647         0.178821      1.127079      1.249909
      1.56653      9.67516     13.53336         0.449983      0.583055     -0.409856
     12.95060      8.26623     15.28809        -0.263962      0.079274     -0.666670
      5.05018     11.07450     15.08613        -0.591430     -1.491023     -0.731306
      7.86294      4.58075     11.93887         0.536928     -1.313034      0.441316
     10.54390      6.50080     13.91214        -0.742887      0.427564     -0.726667
      3.19964     10.81690     10.36662         1.468888      0.416059      0.354339
     11.39690      5.68677     10.25110         0.431254      0.332667      0.099029
     14.32420      6.52578     12.49625         0.367049     -0.750724      0.740581
     10.91050      5.06380     15.66601         0.080089     -0.697009      0.204372
      3.25442      5.28288     15.16909        -1.578883      1.218695      1.450554
      0.92288      3.13103     12.24347        -1.073741     -0.688924      0.839241
      4.63110      7.50506     10.57658        -0.563366     -0.215540     -0.262534
      7.14538     10.78440     14.03345         0.450593     -0.555318     -0.034410
     11.64600     14.40950     11.38564         0.137706      0.191971     -0.345669
     10.81640     10.47460     13.10663        -0.654162     -0.278355     -0.329863
 -----------------------------------------------------------------------------------
    total drift:                               -0.003632      0.009609      0.004190


--------------------------------------------------------------------------------------------------------



  FREE ENERGIE OF THE ION-ELECTRON SYSTEM (eV)
  ---------------------------------------------------
  free  energy   TOTEN  =      -869.03059952 eV

  energy  without entropy=     -868.76451779  energy(sigma->0) =     -868.89755866



--------------------------------------------------------------------------------------------------------


    POTLOK:  cpu time      4.0459: real time      4.0489


--------------------------------------------------------------------------------------------------------


     LOOP+:  cpu time   6632.4143: real time   6636.6704
    4ORBIT:  cpu time      0.0000: real time      0.0000



 total charge

# of ion       s       p       d       tot
------------------------------------------
    1        0.390   0.003   0.000   0.393
    2        0.542   0.017   0.000   0.559
    3        0.393   0.001   0.000   0.394
    4        0.594   0.029   0.000   0.623
    5        0.554   0.017   0.000   0.571
    6        0.531   0.014   0.000   0.545
    7        0.555   0.017   0.000   0.572
    8        0.578   0.031   0.000   0.610
    9        0.564   0.016   0.000   0.581
   10        0.586   0.021   0.000   0.607
   11        0.578   0.018   0.000   0.596
   12        0.570   0.021   0.000   0.591
   13        0.373   0.001   0.000   0.374
   14        0.777   0.850   0.000   1.627
   15        0.773   0.881   0.000   1.654
   16        0.797   0.895   0.000   1.692
   17        0.764   0.897   0.000   1.661
   18        0.881   0.683   0.000   1.564
   19        0.772   0.985   0.000   1.757
   20        0.770   0.931   0.000   1.701
   21        0.758   0.946   0.000   1.704
   22        0.767   0.872   0.000   1.639
   23        0.759   0.927   0.000   1.686
   24        0.779   0.839   0.000   1.618
   25        0.758   0.907   0.000   1.664
   26        0.766   0.891   0.000   1.656
   27        0.761   0.908   0.000   1.669
   28        0.846   0.759   0.000   1.604
   29        0.768   0.930   0.000   1.698
   30        0.804   0.783   0.000   1.588
   31        0.792   0.824   0.000   1.616
   32        0.770   0.915   0.000   1.686
   33        0.757   0.971   0.000   1.727
   34        0.803   0.809   0.000   1.611
   35        0.782   0.990   0.000   1.772
   36        0.757   0.957   0.000   1.714
   37        0.759   0.938   0.000   1.697
   38        0.811   0.810   0.000   1.620
   39        0.761   0.914   0.000   1.675
   40        0.762   0.941   0.000   1.703
   41        0.782   0.826   0.000   1.608
   42        0.804   0.856   0.000   1.660
   43        0.761   0.954   0.000   1.715
   44        0.764   0.974   0.000   1.739
   45        0.762   0.891   0.000   1.653
   46        0.774   0.920   0.000   1.694
   47        0.927   0.586   0.000   1.513
   48        0.767   0.980   0.000   1.747
   49        0.754   0.992   0.000   1.746
   50        0.766   0.850   0.000   1.615
   51        0.867   0.743   0.000   1.610
   52        0.778   0.944   0.000   1.722
   53        0.800   0.856   0.000   1.656
   54        0.757   0.926   0.000   1.684
   55        0.800   0.848   0.000   1.648
   56        0.860   0.701   0.000   1.561
   57        0.759   1.018   0.000   1.777
   58        0.767   0.975   0.000   1.742
   59        0.752   0.975   0.000   1.727
   60        0.789   0.898   0.000   1.687
   61        0.809   0.858   0.000   1.667
   62        0.805   0.793   0.000   1.597
   63        0.777   0.866   0.000   1.643
   64        0.838   0.806   0.000   1.644
   65        0.762   0.964   0.000   1.725
   66        0.757   0.932   0.000   1.689
   67        0.792   0.886   0.000   1.678
   68        0.763   0.946   0.000   1.709
   69        0.761   0.917   0.000   1.678
   70        0.802   0.897   0.000   1.698
   71        0.801   0.822   0.000   1.623
   72        0.830   0.772   0.000   1.603
   73        0.758   0.918   0.000   1.676
   74        0.759   0.928   0.000   1.687
   75        0.763   0.960   0.000   1.722
   76        0.771   0.920   0.000   1.691
   77        0.817   0.730   0.000   1.548
   78        0.855   0.740   0.000   1.594
   79        0.774   0.943   0.000   1.717
   80        0.827   0.811   0.000   1.638
   81        0.800   0.865   0.000   1.665
   82        0.799   0.874   0.000   1.673
   83        0.759   0.927   0.000   1.686
   84        0.800   0.836   0.000   1.637
   85        0.782   0.881   0.000   1.663
   86        0.761   0.899   0.000   1.660
   87        0.760   0.914   0.000   1.673
   88        0.767   0.910   0.000   1.677
   89        0.760   0.984   0.000   1.744
   90        0.766   0.919   0.000   1.685
   91        0.768   0.909   0.000   1.677
   92        0.759   0.932   0.000   1.691
   93        0.761   0.907   0.000   1.668
   94        0.879   0.675   0.000   1.554
   95        0.922   0.594   0.000   1.515
   96        0.771   0.927   0.000   1.698
   97        0.758   0.933   0.000   1.691
   98        0.764   0.923   0.000   1.687
   99        0.750   0.857   0.000   1.607
  100        0.864   0.734   0.000   1.599
  101        0.782   0.864   0.000   1.645
  102        0.793   0.901   0.000   1.693
  103        0.768   0.927   0.000   1.696
--------------------------------------------------
tot         77.567  79.371   0.000 156.938


 total amount of memory used by VASP MPI-rank0   380088. kBytes
=======================================================================

   base                                    :      30000. kBytes
   nonl-proj                               :      78088. kBytes
   fftplans                                :     114276. kBytes
   grid                                    :      88184. kBytes
   one-center                              :         21. kBytes
   wavefun                                 :      69519. kBytes

  
  
 General timing and accounting informations for this job:
 ========================================================
  
                  Total CPU time used (sec):     6786.876
                            User time (sec):     6029.269
                          System time (sec):      757.607
                         Elapsed time (sec):     6791.215
  
                   Maximum memory used (kb):      640992.
                   Average memory used (kb):          N/A
  
                          Minor page faults:     11541748
                          Major page faults:         1170
                 Voluntary context switches:         2995
