ITEM: TIMESTEP
396109
ITEM: NUMBER OF ATOMS
13500
ITEM: BOX BOUNDS pp pp pp
-1.4500742788548537e+00 5.9371257885029635e+01
-1.4500742788548537e+00 5.9371257885029635e+01
-1.4500742788548537e+00 7.7429915937400111e+01
ITEM: ATOMS id type xs ys zs
1 2 0.972747 0.0416684 0.213791
2 2 0.76813 0.408229 0.217746
3 2 0.469166 0.51711 0.368725
4 2 0.904055 0.987733 0.377684
5 2 0.277776 0.127719 0.335832
6 2 0.323803 0.871387 0.144034
7 2 0.0214341 0.295777 0.689149
8 2 0.416324 0.151619 0.211451
9 2 0.193463 0.356649 0.373124
10 2 0.145024 0.101166 0.248938
11 2 0.342664 0.209368 0.109214
12 2 0.249099 0.322732 0.156762
13 2 0.189513 0.436393 0.0847977
14 2 0.0629857 0.38083 0.700195
15 2 0.546951 0.248746 0.352207
16 2 0.353458 0.1336 0.772427
17 2 0.291284 0.234927 0.0810379
18 2 0.0480272 0.130612 0.958513
19 2 0.074273 0.358272 0.388931
20 2 0.28337 0.150234 0.169627
21 2 0.0356276 0.0734256 0.138768
22 2 0.450976 0.0661362 0.391025
23 2 0.87319 0.0743168 0.488745
24 2 0.59466 0.0709213 0.384998
25 2 0.136379 0.341902 0.312523
26 2 0.722871 0.210198 0.119168
27 2 0.807397 0.109925 0.0700201
28 2 0.209238 0.33513 0.245103
29 2 0.177326 0.137819 0.0711789
30 2 0.157149 0.249164 0.673534
31 2 0.420671 0.145277 0.348346
32 2 0.309372 0.428329 0.102631
33 2 0.150047 0.46209 0.201838
34 2 0.212295 0.0754833 0.774689
35 2 0.135174 0.288492 0.988875
36 2 0.328371 0.935282 0.0317825
37 2 0.523474 0.0372545 0.0730737
38 2 0.32017 0.542001 0.749532
39 2 0.940996 0.654986 0.153236
40 2 0.947266 0.2119 0.352379
41 2 0.776998 0.482812 0.0678379
42 2 0.888966 0.670159 0.111657
43 2 0.076749 0.208638 0.0711212
44 2 0.364467 0.32005 0.127517
45 2 0.990866 0.791862 0.112355
46 2 0.916321 0.467117 0.122702
47 2 0.00849263 0.714126 0.637679
48 2 0.366774 0.521126 0.375642
49 2 0.206175 0.0208107 0.059339
50 2 0.256322 0.136606 0.188686
51 2 0.539639 0.0736671 0.6359
52 2 0.271615 0.0772377 0.733208
53 2 0.345823 0.895041 0.226808
54 2 0.409519 0.437524 0.23226
55 2 0.916962 0.430394 0.645927
56 2 0.134722 0.425945 0.796364
57 2 0.499268 0.228536 0.867211
58 2 0.0950917 0.249461 0.692405
59 2 0.714551 0.443625 0.316664
60 2 0.32276 0.177358 0.374581
61 2 0.070417 0.201204 0.62804
62 2 0.361816 0.390305 0.35356
63 2 0.910788 0.405035 0.212962
64 2 0.965013 0.752038 0.984081
65 2 0.563804 0.47145 0.853321
66 2 0.511347 0.254865 0.147714
67 2 0.28995 0.206954 0.246859
68 2 0.734023 0.339572 0.0737765
69 2 0.877707 0.717651 0.302403
70 2 0.556661 0.299006 0.141475
71 2 0.316686 0.52358 0.168361
72 2 0.0424717 0.146915 0.194854
73 2 0.26814 0.0203399 0.302852
74 2 0.474391 0.353838 0.35903
75 2 0.512847 0.477288 0.184464
76 2 0.48848 0.190257 0.16932
77 2 0.381858 0.262545 0.205953
78 2 0.0470601 0.197449 0.054038
79 2 0.23862 0.040265 0.213581
80 2 0.489424 0.233404 0.232453
81 2 0.162276 0.563687 0.0365756
82 2 0.189716 0.435852 0.15894
83 2 0.276093 0.907295 0.0325134
84 2 0.85135 0.397893 0.0713289
85 2 0.149301 0.490875 0.121418
86 2 0.326522 0.327183 0.0872627
87 2 0.582934 0.606881 0.196659
88 2 0.665129 0.189678 0.707763
89 2 0.402043 0.353973 0.190999
90 2 0.298337 0.141496 0.22521
91 2 0.229799 0.240502 0.205519
92 2 0.409543 0.178848 0.739166
93 2 0.37981 0.30274 0.151231
94 2 0.328411 0.206911 0.298505
95 2 0.134892 0.639134 0.0681201
96 2 0.160855 0.401212 0.430526
97 2 0.802384 0.393843 0.152254
98 2 0.398945 0.416043 0.85768
99 2 0.753601 0.911132 0.380885
100 2 0.150402 0.61831 0.254058
101 2 0.361034 0.37255 0.16018
102 2 0.536176 0.0883715 0.218247
103 2 0.415105 0.0813164 0.288056
104 2 0.306224 0.00766149 0.422489
105 2 0.487596 0.231791 0.404905
106 2 0.188838 0.0727625 0.925848
107 2 0.404571 0.374313 0.996633
108 2 0.216567 0.873961 0.221873
109 2 0.220191 0.654891 0.0133801
110 2 0.423307 0.386021 0.34676
111 2 0.278983 0.440058 0.164853
112 2 0.482969 0.377875 0.755526
113 2 0.285339 0.406349 0.15212
114 2 0.291304 0.572745 0.294371
115 2 0.836367 0.962277 0.181685
116 2 0.887672 0.97802 0.241451
117 2 0.457644 0.4088 0.64004
118 2 0.287978 0.245301 0.819931
119 2 0.118552 0.453068 0.219562
120 2 0.412944 0.0926212 0.226141
121 2 0.296109 0.868247 0.242016
122 2 0.911696 0.499339 0.617636
123 2 0.853825 0.811377 0.185624
124 2 0.730506 0.38778 0.257115
125 2 0.194399 0.2773 0.234364
126 2 0.228061 0.112339 0.149492
127 2 0.283862 0.612839 0.151442
128 2 0.555332 0.365728 0.253703
129 2 0.370665 0.354478 0.441357
130 2 0.911279 0.89881 0.36193
131 2 0.0245546 0.33644 0.945853
132 2 0.417413 0.331447 0.84394
133 2 0.722834 0.713087 0.38097
134 2 0.413071 0.555039 0.696158
135 2 0.143331 0.670749 0.934648
136 2 0.684287 0.166892 0.246755
137 2 0.145946 0.123844 0.422248
138 2 0.288543 0.112641 0.243129
139 2 0.354266 0.515981 0.170812
140 2 0.320702 0.253716 0.419469
141 2 0.918427 0.30133 0.73276
142 2 0.00861087 0.73822 0.603644
143 2 0.103266 0.0756304 0.143239
144 2 0.944962 0.505202 0.326169
145 2 0.196663 0.312243 0.126073
146 2 0.261642 0.0206841 0.195535
147 2 0.101635 0.345079 0.27382
148 2 0.376423 0.362511 0.395573
149 2 0.521892 0.205019 0.664442
150 2 0.131342 0.228785 0.276899
151 2 0.829907 0.305707 0.978483
152 2 0.471011 0.471354 0.937763
153 2 0.305784 0.154103 0.327112
154 2 0.248812 0.304229 0.31895
155 2 0.486294 0.144276 0.898499
156 2 0.378481 0.161706 0.440715
157 2 0.450434 0.521505 0.216887
158 2 0.173863 0.48254 0.774647
159 2 0.0884905 0.119881 0.0801828
160 2 0.33421 0.914837 0.179931
161 2 0.231343 0.318092 0.205098
162 2 0.974446 0.26106 0.313259
163 2 0.539368 0.585161 0.168728
164 2 0.0167207 0.0931896 0.193408
165 2 0.235229 0.136961 0.108804
166 2 0.294154 0.583372 0.651562
167 2 0.776208 0.230425 0.0461159
168 2 0.32114 0.0893145 0.290166
169 2 0.894513 0.596208 0.299013
170 2 0.535682 0.305806 0.94277
171 2 0.453951 0.309763 0.19626
172 2 0.131159 0.0291423 0.935969
173 2 0.387112 0.222603 0.36756
174 2 0.373589 0.189786 0.0250416
175 2 0.244285 0.247499 0.334262
176 2 0.268531 0.251435 0.953521
177 2 0.600771 0.163346 0.33996
178 2 0.893383 0.289606 0.201527
179 2 0.383206 0.77939 0.163306
180 2 0.367447 0.337839 0.467281
181 2 0.988176 0.352262 0.0899396
182 2 0.518224 0.337664 0.0970324
183 2 0.0547481 0.319646 0.253083
184 2 0.389379 0.271201 0.339717
185 2 0.0177674 0.948344 0.395244
186 2 0.169156 0.496191 0.19887
187 2 0.446426 0.306272 0.166159
188 2 0.168796 0.154477 0.0135991
189 2 0.330442 0.296621 0.17911
190 2 0.233482 0.204121 0.196771
191 2 0.187456 0.308702 0.815457
192 2 0.289064 0.789879 0.111811
193 2 0.584384 0.480122 0.671747
194 2 0.407196 0.609719 0.394827
195 2 0.213096 0.198871 0.346254
196 2 0.644342 0.0355374 0.016355
197 2 0.232819 0.148254 0.0280345
198 2 0.762985 0.152407 0.782874
199 2 0.0717938 0.430558 0.800759
200 2 0.316993 0.220047 0.896386
201 2 0.330033 0.549871 0.0797684
202 2 0.755124 0.28165 0.194963
203 2 0.883217 0.172326 0.0524768
204 2 0.675072 0.0954789 0.342108
205 2 0.203663 0.461704 0.343437
206 2 0.275003 0.660696 0.19935
207 2 0.185654 0.90605 0.0284409
208 2 0.0865543 0.939059 0.152532
209 2 0.411563 0.886786 0.612986
210 2 0.0206146 0.519268 0.910388
211 2 0.0438193 0.976791 0.704499
212 2 0.988471 0.967033 0.731971
213 2 0.358832 0.415387 0.258164
214 2 0.482447 0.199134 0.97537
215 2 0.98088 0.908425 0.187937
216 2 0.183655 0.974607 0.100995
217 2 0.149797 0.866962 0.261937
218 2 0.876935 0.217425 0.272526
219 2 0.255662 0.0939559 0.914278
220 2 0.243579 0.140719 0.299224
221 2 0.826321 0.272155 0.870864
222 2 0.817006 0.202486 0.0300095
223 2 0.164479 0.0486198 0.288609
224 2 0.346534 0.844652 0.154801
225 2 0.399975 0.631205 0.221816
226 2 0.426865 0.368671 0.843104
227 2 0.229658 0.50986 0.126255
228 2 0.125983 0.201012 0.773071
229 2 0.758896 0.350431 0.20548
230 2 0.489624 0.406484 0.331625
231 2 0.218358 0.326651 0.375579
232 2 0.32335 0.235201 0.210625
233 2 0.147437 0.94794 0.46475
234 2 0.52055 0.613919 0.732878
235 2 0.304405 0.840724 0.0484771
236 2 0.355549 0.986757 0.703329
237 2 0.0413193 0.895483 0.224337
238 2 0.163221 0.399462 0.1959
239 2 0.943629 0.203557 0.0674481
240 2 0.851287 0.425368 0.941732
241 2 0.200626 0.312443 0.222325
242 2 0.102663 0.325983 0.225509
243 2 0.761006 0.27677 0.129144
244 2 0.430964 0.425437 0.078586
245 2 0.921679 0.294662 0.702568
246 2 0.106615 0.222106 0.184657
247 2 0.448905 0.706427 0.27625
248 2 0.229335 0.372758 0.0337972
249 2 0.521053 0.832336 0.246724
250 2 0.928504 0.653092 0.349446
251 2 0.664681 0.964982 0.0827961
252 2 0.285543 0.88132 0.011108
253 2 0.364205 0.93709 0.987314
254 2 0.235141 0.08932 0.396555
255 2 0.611674 0.359369 0.196402
256 2 0.135218 0.537191 0.0893506
257 2 0.482994 0.0876 0.39112
258 2 0.520385 0.901928 0.942321
259 2 0.572828 0.573061 0.211107
260 2 0.480207 0.304467 0.262397
261 2 0.112515 0.0689469 0.024961
262 2 0.221292 0.267257 0.148371
263 2 0.350899 0.402221 0.471324
264 2 0.416144 0.855655 0.94389
265 2 0.438969 0.976142 0.881035
266 2 0.506465 0.115067 0.129762
267 2 0.287853 0.386572 0.879597
268 2 0.245677 0.412596 0.364468
269 2 0.887362 0.0141678 0.453985
270 2 0.153301 0.678647 0.238646
271 2 0.303778 0.0717748 0.147372
272 2 0.329981 0.564447 0.106877
273 2 0.506825 0.247338 0.0878282
274 2 0.289364 0.081079 0.227169
275 2 0.369715 0.410323 0.161289
276 2 0.5932 0.91529 0.399693
277 2 0.763919 0.34878 0.117847
278 2 0.623932 0.52615 0.368089
279 2 0.703968 0.243793 0.310615
280 2 0.011589 0.319737 0.337211
281 2 0.951313 0.508181 0.0947609
282 2 0.28564 0.528856 0.11869
283 2 0.339362 0.945587 0.369543
284 2 0.511445 0.916899 0.386766
285 2 0.541955 0.22328 0.375026
286 2 0.162409 0.168604 0.377194
287 2 0.110887 0.187107 0.314583
288 2 0.43124 0.723789 0.155952
289 2 0.312052 0.319195 0.199184
290 2 0.290011 0.0248062 0.94378
291 2 0.81404 0.473916 0.157835
292 2 0.261507 0.346437 0.109274
293 2 0.414422 0.884922 0.2155
294 2 0.161468 0.483985 0.272536
295 2 0.492968 0.269165 0.2208
296 2 0.977348 0.913409 0.217031
297 2 0.473319 0.243696 0.662387
298 2 0.148706 0.997658 0.14978
299 2 0.399766 0.352972 0.241986
300 2 0.60928 0.982875 0.253576
301 2 0.0350625 0.517868 0.131802
302 2 0.447532 0.119558 0.107441
303 2 0.16069 0.189812 0.762825
304 2 0.254319 0.321028 0.0183508
305 2 0.453165 0.0274327 0.304718
306 2 0.0211185 0.302055 0.0934492
307 2 0.348825 0.567598 0.674369
308 2 0.173745 0.299333 0.149358
309 2 0.369617 0.680792 0.120291
310 2 0.871958 0.419682 0.0290248
311 2 0.813044 0.364647 0.834898
312 2 0.143952 0.428399 0.64071
313 2 0.282049 0.416961 0.29779
314 2 0.743039 0.016654 0.918482
315 2 0.49238 0.36361 0.185077
316 2 0.379504 0.394829 0.0727408
317 2 0.244566 0.309269 0.939066
318 2 0.0351929 0.114008 0.395913
319 2 0.171285 0.0993493 0.188609
320 2 0.433768 0.156537 0.685776
321 2 0.345015 0.786438 0.162036
322 2 0.0740763 0.280978 0.218404
323 2 0.315407 0.0581811 0.239125
324 2 0.934685 0.196164 0.303947
325 2 0.192037 0.234876 0.267822
326 2 0.419178 0.322859 0.204696
327 2 0.436356 0.0666312 0.213572
328 2 0.488246 0.180863 0.26769
329 2 0.180694 0.36426 0.161929
330 2 0.337405 0.366359 0.228173
331 2 0.197405 0.350402 0.123044
332 2 0.905096 0.585694 0.163444
333 2 0.122749 0.36504 0.0300155
334 2 0.612095 0.323634 0.291328
335 2 0.534243 0.601778 0.0136777
336 2 0.961269 0.964529 0.181583
337 2 0.968683 0.175661 0.814821
338 2 0.411632 0.347265 0.101873
339 2 0.341828 0.154114 0.128121
340 2 0.34146 0.486119 0.325818
341 2 0.184097 0.983021 0.153539
342 2 0.284753 0.369864 0.0929582
343 2 0.4928 0.0241539 0.301578
344 2 0.725678 0.49505 0.0665037
345 2 0.382671 0.210734 0.145152
346 2 0.318404 0.0355531 0.21472
347 2 0.517846 0.532296 0.169119
348 2 0.951556 0.421541 0.32017
349 2 0.955533 0.597339 0.969862
350 2 0.867377 0.456784 0.0735301
351 2 0.317634 0.183165 0.906631
352 2 0.154967 0.955065 0.218162
353 2 0.338088 0.885025 0.735281
354 2 0.156784 0.0111646 0.712715
355 2 0.392365 0.154272 0.367831
356 2 0.711257 0.498089 0.227549
357 2 0.40532 0.521193 0.142588
358 2 0.23268 0.756176 0.766539
359 2 0.669583 0.0994328 0.389231
360 2 0.0866469 0.148048 0.13345
361 2 0.896659 0.782448 0.302807
362 2 0.439166 0.342644 0.662132
363 2 0.721845 0.265441 0.331721
364 2 0.373024 0.138575 0.173697
365 2 0.536642 0.358044 0.363373
366 2 0.197913 0.515058 0.811362
367 2 0.366519 0.00899797 0.250546
368 2 0.463269 0.984114 0.0262379
369 2 0.24392 0.967508 0.254562
370 2 0.951351 0.173496 0.0236691
371 2 0.694175 0.267793 0.288348
372 2 0.024949 0.146715 0.0689585
373 2 0.16623 0.111423 0.16072
374 2 0.184533 0.368075 0.205852
375 2 0.520504 0.973156 0.227647
376 2 0.291383 0.445127 0.78366
377 2 0.309795 0.203579 0.0726609
378 2 0.311233 0.667354 0.064252
379 2 0.260318 0.246414 0.222727
380 2 0.366283 0.309527 0.177988
381 2 0.272869 0.991111 0.212907
382 2 0.319262 0.0856146 0.422146
383 2 0.413744 0.410174 0.301659
384 2 0.958215 0.370375 0.29826
385 2 0.323355 0.0158461 0.328771
386 2 0.124348 0.39668 0.23249
387 2 0.294811 0.308419 0.224839
388 2 0.582573 0.475036 0.250134
389 2 0.309543 0.402884 0.920755
390 2 0.99282 0.570145 0.93224
391 2 0.431592 0.54679 0.721779
392 2 0.169561 0.332698 0.211622
393 2 0.129493 0.171625 0.0986783
394 2 0.981828 0.578551 0.688854
395 2 0.243186 0.926334 0.0306103
396 2 0.526389 0.114085 0.366415
397 2 0.986884 0.816043 0.243748
398 2 0.696175 0.0147253 0.104608
399 2 0.55853 0.255965 0.111397
400 2 0.821794 0.975045 0.0651999
401 2 0.517504 0.0593898 0.328868
402 2 0.264219 0.486928 0.044512
403 2 0.563947 0.415778 0.774001
404 2 0.69839 0.346759 0.230789
405 2 0.714387 0.107835 0.781328
406 2 0.534973 0.978386 0.200413
407 2 0.595986 0.440697 0.334604
408 2 0.11018 0.0682763 0.704069
409 2 0.143273 0.336466 0.954968
410 2 0.841068 0.767111 0.0358615
411 2 0.313238 0.177777 0.254365
412 2 0.959811 0.354511 0.945804
413 2 0.2707 0.655836 0.654498
414 2 0.190519 0.302995 0.901931
415 2 0.105834 0.0416563 0.237565
416 2 0.892058 0.949698 0.827449
417 2 0.054834 0.0784048 0.2443
418 2 0.123371 0.194061 0.231668
419 2 0.537479 0.558122 0.647837
420 2 0.0828721 0.22363 0.915281
421 2 0.165539 0.0382385 0.0950758
422 2 0.562993 0.956505 0.64492
423 2 0.821935 0.207823 0.403505
424 2 0.0349922 0.111605 0.238759
425 2 0.171715 0.118463 0.265625
426 2 0.0322261 0.34586 0.0208671
427 2 0.110713 0.963892 0.762876
428 2 0.0541807 0.00654334 0.265011
429 2 0.0941664 0.232659 0.113683
430 2 0.307593 0.606864 0.0593029
431 2 0.420721 0.98259 0.38276
432 2 0.278233 0.417676 0.0614397
433 2 0.750043 0.969172 0.0943992
434 2 0.402145 0.305646 0.274035
435 2 0.110708 0.132654 0.21539
436 2 0.0346237 0.198609 0.359648
437 2 0.279317 0.305019 0.169561
438 2 0.231117 0.400669 0.12479
439 2 0.967424 0.220204 0.141469
440 2 0.247626 0.227085 0.383715
441 2 0.291416 0.107544 0.146364
442 2 0.178526 0.502557 0.103967
443 2 0.222147 0.242864 0.712299
444 2 0.115294 0.892973 0.384772
445 2 0.519328 0.40263 0.146727
446 2 0.0666105 0.483385 0.630435
447 2 0.223891 0.0801598 0.965114
448 2 0.241362 0.452244 0.273655
449 2 0.367956 0.600697 0.682145
450 2 0.396405 0.425584 0.258574
451 2 0.632057 0.98309 0.205159
452 2 0.270687 0.550131 0.408626
453 2 0.0479688 0.158879 0.0902629
454 2 0.701489 0.995284 0.259149
455 2 0.575719 0.386164 0.127173
456 2 0.318783 0.475138 0.129316
457 2 0.225946 0.128186 0.243287
458 2 0.548822 0.340242 0.231111
459 2 0.350302 0.0968112 0.111871
460 2 0.440676 0.305605 0.329072
461 2 0.810975 0.790485 0.91704
462 2 0.484604 0.403095 0.0170636
463 2 0.0126873 0.960586 0.232828
464 2 0.0639673 0.234809 0.254994
465 2 0.973812 0.205735 0.917995
466 2 0.549385 0.327309 0.323037
467 2 0.383285 0.0543256 0.99478
468 2 0.61305 0.174017 0.871376
469 2 0.165704 0.479741 0.699833
470 2 0.29827 0.184314 0.179059
471 2 0.430913 0.989955 0.353525
472 2 0.991546 0.061096 0.112629
473 2 0.236502 0.0631934 0.274569
474 2 0.377617 0.0843429 0.280979
475 2 0.422759 0.136835 0.0517326
476 2 0.768263 0.157594 0.213408
477 2 0.828769 0.686464 0.344526
478 2 0.27702 0.279794 0.111384
479 2 0.289274 0.011298 0.109747
480 2 0.72183 0.149477 0.341207
481 2 0.414577 0.154574 0.0770374
482 2 0.682886 0.193195 0.154661
483 2 0.75402 0.16717 0.268702
484 2 0.383878 0.287063 0.931292
485 2 0.119003 0.281096 0.319904
486 2 0.447978 0.269533 0.159835
487 2 0.323317 0.229435 0.823422
488 2 0.849398 0.180425 0.307889
489 2 0.757588 0.606344 0.263032
490 2 0.410594 0.474003 0.371754
491 2 0.317092 0.0351598 0.440973
492 2 0.381532 0.425763 0.31295
493 2 0.345214 0.434638 0.729559
494 2 0.20453 0.489424 0.0393555
495 2 0.303122 0.0900457 0.776015
496 2 0.197733 0.300544 0.844232
497 2 0.0169764 0.23299 0.843804
498 2 0.0283929 0.436634 0.292936
499 2 0.298672 0.349589 0.733699
500 2 0.610303 0.481582 0.107629
501 2 0.980409 0.196053 0.0587331
502 2 0.0410695 0.117524 0.0534295
503 2 0.258948 0.00275341 0.092739
504 2 0.733662 0.98167 0.317108
505 2 0.500167 0.99852 0.900019
506 2 0.227289 0.303588 0.71769
507 2 0.375952 0.311908 0.809071
508 2 0.183999 0.331144 0.0659477
509 2 0.0429742 0.545956 0.922295
510 2 0.320637 0.373063 0.0121626
511 2 0.299735 0.250182 0.0352832
512 2 0.963132 0.351956 0.133311
513 2 0.895927 0.344802 0.219716
514 2 0.652298 0.338638 0.997757
515 2 0.284082 0.00435445 0.258831
516 2 0.341321 0.392762 0.077226
517 2 0.11913 0.216057 0.969161
518 2 0.295141 0.52697 0.32813
519 2 0.160923 0.777184 0.238173
520 2 0.588174 0.45083 0.306335
521 2 0.330989 0.138686 0.210424
522 2 0.341072 0.838081 0.101313
523 2 0.0289727 0.397062 0.32601
524 2 0.140059 0.337663 0.868491
525 2 0.374907 0.755325 0.209258
526 2 0.380998 0.964866 0.852488
527 2 0.140713 0.292103 0.392177
528 2 0.522135 0.440148 0.185826
529 2 0.544613 0.181163 0.198102
530 2 0.2929 0.972118 0.061205
531 2 0.120965 0.32982 0.0733693
532 2 0.485704 0.750586 0.301026
533 2 0.120579 0.543039 0.117116
534 2 0.173371 0.223924 0.174911
535 2 0.557978 0.210718 0.656111
536 2 0.935342 0.333073 0.117676
537 2 0.140935 0.128772 0.905101
538 2 0.602051 0.913884 0.168717
539 2 0.498526 0.0344734 0.257759
540 2 0.19487 0.0982521 0.826856
541 2 0.926595 0.965164 0.862533
542 2 0.159584 0.369815 0.0380057
543 2 0.228655 0.469978 0.218029
544 2 0.186684 0.212182 0.750676
545 2 0.331397 0.42714 0.0361013
546 2 0.483519 0.418113 0.144099
547 2 0.379918 0.264311 0.730897
548 2 0.659431 0.356791 0.234172
549 2 0.710213 0.944626 0.79937
550 2 0.888823 0.210113 0.745789
551 2 0.257151 0.585734 0.192141
552 2 0.253747 0.385822 0.146282
553 2 0.777589 0.101264 0.00511454
554 2 0.591887 0.962381 0.985663
555 2 0.466755 0.381685 0.887313
556 2 0.204 0.292384 0.0998368
557 2 0.273302 0.368932 0.94271
558 2 0.933984 0.397511 0.189522
559 2 0.598859 0.323259 0.203159
560 2 0.691123 0.11487 0.281249
561 2 0.833295 0.30418 0.834369
562 2 0.185906 0.407955 0.408804
563 2 0.333172 0.140569 0.379979
564 2 0.185301 0.0171112 0.201419
565 2 0.0966929 0.210716 0.15693
566 2 0.415272 0.59426 0.274371
567 2 0.413974 0.315188 0.723253
568 2 0.157528 0.896111 0.191553
569 2 0.98687 0.33387 0.228265
570 2 0.239135 0.078211 0.325419
571 2 0.415067 0.531511 0.987373
572 2 0.104445 0.289685 0.234278
573 2 0.552532 0.359821 0.283352
574 2 0.453436 0.427016 0.975928
575 2 0.98317 0.116692 0.0339615
576 2 0.255578 0.114081 0.258574
577 2 0.814814 0.589704 0.256022
578 2 0.413173 0.871063 0.110538
579 2 0.679903 0.167882 0.840365
580 2 0.0870744 0.313663 0.176827
581 2 0.563299 0.145805 0.639253
582 2 0.140695 0.202254 0.180015
583 2 0.271969 0.844591 0.196268
584 2 0.475086 0.152648 0.0746747
585 2 0.118416 0.540645 0.84782
586 2 0.342924 0.545081 0.306614
587 2 0.546067 0.488552 0.199181
588 2 0.0432405 0.579368 0.252559
589 2 0.885208 0.387237 0.952096
590 2 0.400125 0.827742 0.359332
591 2 0.285059 0.0807548 0.298238
592 2 0.11062 0.515957 0.0490625
593 2 0.0451636 0.822525 0.0167527
594 2 0.1103 0.633042 0.767592
595 2 0.927234 0.89039 0.0573332
596 2 0.90107 0.166118 0.26743
597 2 0.130153 0.442556 0.145847
598 2 0.199245 0.663239 0.680119
599 2 0.110964 0.136108 0.923601
600 2 0.902161 0.294091 0.987602
601 2 0.436507 0.203369 0.241242
602 2 0.927959 0.351599 0.288373
603 2 0.430893 0.591264 0.134903
604 2 0.309281 0.5402 0.211763
605 2 0.0344029 0.589145 0.0587583
606 2 0.629155 0.51523 0.107079
607 2 0.414187 0.379108 0.318543
608 2 0.121706 0.576784 0.899358
609 2 0.173666 0.433485 0.209045
610 2 0.134936 0.344922 0.118722
611 2 0.267243 0.99988 0.0633263
612 2 0.203163 0.157251 0.111901
613 2 0.370787 0.301932 0.904573
614 2 0.194198 0.258368 0.399259
615 2 0.133258 0.295055 0.780078
616 2 0.480661 0.955051 0.0961181
617 2 0.184975 0.265041 0.322229
618 2 0.971531 0.996463 0.0693967
619 2 0.166144 0.364446 0.109867
620 2 0.1891 0.533492 0.37805
621 2 0.313756 0.253608 0.13618
622 2 0.0936144 0.480941 0.226155
623 2 0.517393 0.624937 0.267285
624 2 0.403113 0.487147 0.15597
625 2 0.239085 0.306516 0.418335
626 2 0.0997402 0.0957918 0.397576
627 2 0.381013 0.214132 0.962326
628 2 0.365974 0.848117 0.205255
629 2 0.783531 0.287089 0.332237
630 2 0.590341 0.18281 0.714646
631 2 0.469676 0.205903 0.875884
632 2 0.204451 0.219305 0.293723
633 2 0.09315 0.312417 0.748036
634 2 0.730346 0.68844 0.188577
635 2 0.683969 0.415826 0.932093
636 2 0.305851 0.419565 0.449871
637 2 0.341459 0.299635 0.960696
638 2 0.147779 0.0349096 0.159353
639 2 0.153938 0.261129 0.112905
640 2 0.367891 0.469951 0.344164
641 2 0.491553 0.00344428 0.349653
642 2 0.119898 0.401417 0.373813
643 2 0.437557 0.95232 0.349396
644 2 0.755407 0.242652 0.906966
645 2 0.341799 0.605681 0.229345
646 2 0.0474375 0.172083 0.712723
647 2 0.434125 0.0292625 0.221605
648 2 0.384739 0.463956 0.221832
649 2 0.141335 0.27802 0.196136
650 2 0.341983 0.993449 0.122153
651 2 0.236341 0.363875 0.984892
652 2 0.107261 0.840999 0.00474641
653 2 0.340924 0.142618 0.999543
654 2 0.247685 0.371563 0.270894
655 2 0.469432 0.340696 0.959919
656 2 0.159213 0.25533 0.812843
657 2 0.249852 0.143677 0.937877
658 2 0.194153 0.507282 0.964681
659 2 0.985924 0.00852904 0.043753
660 2 0.163772 0.475647 0.670284
661 2 0.330882 0.182429 0.953182
662 2 0.252153 0.349153 0.213347
663 2 0.757169 0.900574 0.267979
664 2 0.408517 0.277891 0.294556
665 2 0.478451 0.423522 0.220114
666 2 0.980976 0.664046 0.0756786
667 2 0.26651 0.292731 0.268415
668 2 0.905732 0.3065 0.158449
669 2 0.320695 0.386216 0.895528
670 2 0.836334 0.120039 0.42465
671 2 0.158494 0.582606 0.261112
672 2 0.865701 0.570859 0.645761
673 2 0.0766825 0.525186 0.258363
674 2 0.522712 0.216657 0.23792
675 2 0.411323 0.0832528 0.0893796
676 2 0.200165 0.374074 0.399367
677 2 0.171706 0.810184 0.104638
678 2 0.0135343 0.643623 0.922172
679 2 0.282528 0.270668 0.182769
680 2 0.97318 0.322207 0.716247
681 2 0.910556 0.37958 0.691286
682 2 0.211982 0.123854 0.0646671
683 2 0.0874521 0.637008 0.319139
684 2 0.019876 0.673799 0.214298
685 2 0.289187 0.951067 0.111118
686 2 0.603479 0.399931 0.370749
687 2 0.414983 0.56781 0.977173
688 2 0.0559058 0.343657 0.778695
689 2 0.555243 0.245106 0.873103
690 2 0.0578724 0.0598146 0.408637
691 2 0.476169 0.205182 0.309728
692 2 0.606194 0.250836 0.39557
693 2 0.275517 0.339522 0.23488
694 2 0.216975 0.491811 0.240967
695 2 0.381385 0.261271 0.116968
696 2 0.844879 0.116339 0.875778
697 2 0.0488667 0.436244 0.173554
698 2 0.57817 0.939661 0.945514
699 2 0.270452 0.119958 0.987544
700 2 0.222322 0.329412 0.177889
701 2 0.603337 0.725566 0.786152
702 2 0.920267 0.361218 0.0999345
703 2 0.590564 0.418539 0.594795
704 2 0.378051 0.324197 0.324871
705 2 0.183749 0.0252754 0.269536
706 2 0.179375 0.264709 0.0611048
707 2 0.996293 0.161154 0.954208
708 2 0.150413 0.505934 0.920367
709 2 0.0921236 0.497304 0.0961313
710 2 0.263004 0.505234 0.403119
711 2 0.814141 0.911014 0.940473
712 2 0.305335 0.313218 0.738976
713 2 0.87177 0.238587 0.137677
714 2 0.348935 0.403583 0.23058
715 2 0.628726 0.0680494 0.210487
716 2 0.0221549 0.53655 0.0889135
717 2 0.239392 0.88176 0.24425
718 2 0.218059 0.903604 0.175598
719 2 0.0739248 0.34022 0.10919
720 2 0.041626 0.378909 0.281567
721 2 0.127617 0.47021 0.661419
722 2 0.45495 0.327741 0.789253
723 2 0.169218 0.280723 0.857572
724 2 0.483218 0.100695 0.817906
725 2 0.843846 0.716898 0.197314
726 2 0.489678 0.0703589 0.346892
727 2 0.103175 0.370159 0.188028
728 2 0.588765 0.0782227 0.111018
729 2 0.217892 0.83343 0.65754
730 2 0.188651 0.208881 0.245499
731 2 0.400136 0.134305 0.0279615
732 2 0.292263 0.167269 0.277375
733 2 0.520574 0.620996 0.202337
734 2 0.140299 0.405732 0.14661
735 2 0.0909851 0.242847 0.14155
736 2 0.923049 0.718725 0.361053
737 2 0.976107 0.780638 0.158729
738 2 0.22698 0.23179 0.358512
739 2 0.133404 0.160217 0.0259604
740 2 0.42866 0.33493 0.275754
741 2 0.233431 0.787391 0.141893
742 2 0.458366 0.382825 0.184487
743 2 0.103013 0.307667 0.150045
744 2 0.430752 0.818457 0.112845
745 2 0.00271772 0.296674 0.360388
746 2 0.771894 0.434049 0.362158
747 2 0.350355 0.431256 0.183202
748 2 0.522977 0.141587 0.309417
749 2 0.927658 0.0558508 0.501837
750 2 0.0551927 0.595489 0.105196
751 2 0.834905 0.208683 0.324703
752 2 0.0894757 0.184348 0.243392
753 2 0.3965 0.293907 0.192826
754 2 0.89489 0.984198 0.00694481
755 2 0.322069 0.0658229 0.0320127
756 2 0.480429 0.446118 0.0529949
757 2 0.2647 0.215017 0.120565
758 2 0.0823972 0.28388 0.704002
759 2 0.434182 0.321758 0.698087
760 2 0.391679 0.119408 0.212839
761 2 0.036205 0.282755 0.966441
762 2 0.487991 0.197869 0.116745
763 2 0.998981 0.142833 0.716656
764 2 0.109755 0.0966851 0.26014
765 2 0.926785 0.56318 0.122998
766 2 0.343905 0.541937 0.264359
767 2 0.991769 0.0215855 0.390368
768 2 0.28881 0.402469 0.239454
769 2 0.0668694 0.352544 0.00886171
770 2 0.431728 0.996123 0.20517
771 2 0.514392 0.41864 0.209745
772 2 0.262875 0.633287 0.261824
773 2 0.232779 0.0305589 0.0967843
774 2 0.205353 0.577327 0.174095
775 2 0.245531 0.339676 0.254871
776 2 0.668942 0.294808 0.29481
777 2 0.0796318 0.317709 0.944822
778 2 0.0927721 0.592185 0.998702
779 2 0.96691 0.268255 0.691329
780 2 0.826503 0.393599 0.127869
781 2 0.34072 0.624867 0.695718
782 2 0.980159 0.175469 0.208163
783 2 0.312557 0.966618 0.299858
784 2 0.874521 0.0861137 0.148982
785 2 0.446773 0.3271 0.353722
786 2 0.981478 0.887655 0.872353
787 2 0.134986 0.0577157 0.327958
788 2 0.488704 0.0159576 0.117863
789 2 0.163276 0.384022 0.890415
790 2 0.386162 0.135645 0.705536
791 2 0.252737 0.989505 0.151347
792 2 0.123324 0.427011 0.322863
793 2 0.240813 0.42913 0.0558521
794 2 0.472839 0.119479 0.336199
795 2 0.547103 0.0376383 0.647688
796 2 0.196091 0.163343 0.140439
797 2 0.422272 0.250267 0.144181
798 2 0.392519 0.21577 0.0429579
799 2 0.0476169 0.477162 0.998087
800 2 0.0809587 0.261299 0.0031772
801 2 0.453781 0.0538382 0.348026
802 2 0.390777 0.606767 0.310442
803 2 0.923144 0.504994 0.0199188
804 2 0.383068 0.0223393 0.144727
805 2 0.715733 0.146271 0.107666
806 2 0.541364 0.275716 0.250588
807 2 0.121818 0.310879 0.275828
808 2 0.854799 0.339273 0.0672779
809 2 0.98895 0.154148 0.359763
810 2 0.139565 0.599198 0.311525
811 2 0.188481 0.312203 0.0189913
812 2 0.211961 0.191604 0.100893
813 2 0.750301 0.190134 0.221077
814 2 0.252722 0.207759 0.25946
815 2 0.143373 0.999257 0.314929
816 2 0.566939 0.147991 0.870549
817 2 0.366156 0.462521 0.960654
818 2 0.482938 0.392494 0.28445
819 2 0.0451889 0.00692096 0.392356
820 2 0.554023 0.614376 0.120054
821 2 0.193524 0.126686 0.202561
822 2 0.235953 0.461463 0.000131154
823 2 0.383866 0.720531 0.404914
824 2 0.299191 0.933201 0.136642
825 2 0.268568 0.173905 0.819861
826 2 0.265466 0.244358 0.166035
827 2 0.455943 0.276888 0.214578
828 2 0.319156 0.722316 0.186384
829 2 0.151575 0.267901 0.142025
830 2 0.928545 0.547347 0.304243
831 2 0.173889 0.198685 0.305555
832 2 0.874618 0.132254 0.737331
833 2 0.445693 0.166984 0.737005
834 2 0.927327 0.198061 0.118321
835 2 0.0481194 0.336099 0.211755
836 2 0.52816 0.161117 0.151062
837 2 0.0514757 0.971061 0.082232
838 2 0.29769 0.466554 0.00543269
839 2 0.950101 0.870324 0.0751385
840 2 0.222851 0.104103 0.120653
841 2 0.230292 0.301404 0.137172
842 2 0.186625 0.163908 0.210453
843 2 0.0794428 0.579381 0.344742
844 2 0.308547 0.290487 0.129086
845 2 0.914634 0.906242 0.676073
846 2 0.363926 0.341932 0.237696
847 2 0.526554 0.251884 0.304439
848 2 0.235388 0.115274 0.871149
849 2 0.30331 0.36534 0.242339
850 2 0.334624 0.124541 0.292574
851 2 0.687246 0.334401 0.820427
852 2 0.976509 0.051577 0.258475
853 2 0.227854 0.468513 0.830464
854 2 0.321609 0.234306 0.769175
855 2 0.205729 0.998159 0.283472
856 2 0.294424 0.990098 0.930892
857 2 0.718163 0.0402023 0.0607951
858 2 0.183342 0.173412 0.783068
859 2 0.88507 0.375697 0.104844
860 2 0.57173 0.219592 0.682699
861 2 0.263144 0.158329 0.719246
862 2 0.142856 0.453335 0.118831
863 2 0.549089 0.300424 0.379509
864 2 0.613392 0.180503 0.153303
865 2 0.0231499 0.808408 0.782078
866 2 0.284025 0.122294 0.852696
867 2 0.338439 0.402779 0.769428
868 2 0.176121 0.894123 0.263043
869 2 0.983662 0.967554 0.111304
870 2 0.121102 0.440113 0.271071
871 2 0.949085 0.600637 0.775643
872 2 0.550216 0.0849418 0.982585
873 2 0.905498 0.491927 0.164191
874 2 0.192942 0.630155 0.145949
875 2 0.361214 0.832417 0.0628384
876 2 0.10977 0.332814 0.195981
877 2 0.072802 0.646648 0.209772
878 2 0.956024 0.93289 0.340135
879 2 0.109005 0.387192 0.0940419
880 2 0.018744 0.245521 0.0524213
881 2 0.0495322 0.343201 0.704643
882 2 0.579123 0.944918 0.16898
883 2 0.726021 0.0699529 0.378748
884 2 0.989689 0.301504 0.210991
885 2 0.165438 0.960468 0.889223
886 2 0.205395 0.261037 0.37039
887 2 0.648888 0.93435 0.373695
888 2 0.194033 0.9606 0.0492651
889 2 0.0108555 0.235485 0.00203478
890 2 0.45308 0.145893 0.296092
891 2 0.25202 0.397342 0.248491
892 2 0.172991 0.978023 0.238207
893 2 0.143273 0.0351897 0.232565
894 2 0.316439 0.566258 0.371065
895 2 0.139733 0.264329 0.76313
896 2 0.978461 0.939393 0.713418
897 2 0.364407 0.482758 0.157177
898 2 0.230506 0.428953 0.251792
899 2 0.448187 0.344407 0.299796
900 2 0.461941 0.882502 0.635503
901 2 0.255957 0.551916 0.237114
902 2 0.0334715 0.247335 0.0245691
903 2 0.566938 0.214279 0.268801
904 2 0.607015 0.368184 0.66017