ITEM: TIMESTEP
0
ITEM: NUMBER OF ATOMS
1000
ITEM: BOX BOUNDS pp pp pp
0.0000000000000000e+00 2.1158707884739954e+01
0.0000000000000000e+00 2.1158707884739954e+01
0.0000000000000000e+00 2.1158707884739954e+01
ITEM: ATOMS id element x y z fx fy fz c_PEa
1 H 19.1139 19.0096 20.8419 0.0702933 0.103556 -0.312038 0.308332
2 H 20.7918 3.49109 19.8331 1.21865 0.540222 0.723268 -0.18715
3 H 17.9241 17.0502 15.4622 0.352846 0.965334 0.923064 0.00982999
4 H 16.9669 9.58418 2.1165 -0.00746917 0.377733 0.877827 0.503946
5 H 21.0136 15.4617 18.7153 0.956039 0.0133272 1.75635 1.32283
6 H 3.48006 16.4955 8.5296 -0.389554 0.7771 -0.342033 1.53477
7 H 9.27581 5.73334 17.7617 0.0376437 -0.175296 0.305671 0.14137
8 H 2.04911 16.9094 1.05647 -0.30779 0.255778 0.527041 -0.550272
9 H 17.4804 2.41061 5.86297 1.10049 0.550345 0.100153 -0.0718182
10 H 20.582 17.3061 8.14423 -0.0748412 0.384008 -0.463513 -0.0204163
11 H 7.72042 5.20329 8.99752 -0.361446 -0.596177 1.35657 1.43472
12 H 6.81547 12.4731 4.93929 -0.533363 0.12824 0.322013 0.870456
13 H 17.2141 18.8886 12.5665 -0.00964813 0.202092 1.07635 -0.504302
14 H 16.2595 17.6308 14.7949 -0.218798 0.409704 0.332872 0.0194659
15 H 2.50384 2.34122 18.1186 1.70103 -0.404952 0.449014 -0.271598
16 H 13.6456 16.7463 4.3328 -0.535787 0.52431 -0.0692664 0.00179381
17 H 6.72796 2.46073 2.81988 0.783345 -0.41218 0.912481 -0.382817
18 H 1.13507 11.5109 20.091 -0.317144 0.00832826 0.395786 -0.333183
19 H 4.48695 13.9326 12.8266 -0.257681 2.84714 -2.53623 2.41
20 H 13.0855 8.39387 4.91475 0.436063 0.0203116 0.2473 0.452555
21 H 10.719 4.24152 20.4282 0.879333 -0.723672 0.415064 0.877158
22 H 10.4292 18.3017 0.424804 -0.454387 0.344937 0.533847 0.357331
23 H 15.9886 7.61722 6.44431 0.113681 0.399563 0.133667 0.155291
24 H 3.96897 10.3361 0.235843 -0.83992 -0.404488 0.198616 -0.0894968
25 H 19.6724 16.8607 11.149 -0.649537 -0.300577 -0.161353 0.441594
26 H 7.44856 19.6624 10.2258 -1.01953 0.276293 0.658268 -0.128968
27 H 2.71856 13.19 4.25476 -0.132363 0.478671 1.25455 0.248253
28 H 5.66854 18.3603 0.693647 -0.791265 0.206259 -0.200536 1.69929
29 H 9.55606 0.659689 13.4212 -1.43573 -0.252245 -0.192573 0.1944
30 H 9.93134 16.3526 7.75889 -0.850995 -0.86763 0.30073 -0.27543
31 H 0.0282538 8.5319 13.4657 -0.729925 0.603225 -0.695932 0.402677
32 H 18.0069 3.39774 12.1716 -0.21594 1.14508 0.37992 0.254029
33 H 17.7237 20.4323 8.77597 0.333212 -0.580579 0.874184 -0.0103886
34 H 17.2487 13.449 19.1341 -0.164502 -0.675436 -0.102001 0.13705
35 H 10.6996 5.43957 13.2001 -0.744929 0.158141 0.34458 -0.0685365
36 H 7.30922 3.25542 0.756379 -0.160496 -0.0509478 -0.17096 0.130495
37 H 6.05144 7.96391 14.222 0.173197 -0.0691705 -0.524761 -0.246454
38 H 20.0938 16.5727 19.8768 -0.138377 -0.244894 1.72827 0.121601
39 H 19.0263 2.46366 7.77051 0.274091 -0.318066 0.294858 -0.0409223
40 H 20.6785 13.3147 19.8617 0.671456 0.336144 -0.651414 -0.640696
41 H 13.6969 6.71967 11.0429 0.832615 0.446605 1.69062 0.677242
42 H 2.27576 7.88138 15.6747 0.914366 -0.211781 -1.16801 -0.307883
43 H 8.43991 9.54036 16.5586 0.583988 0.96885 -0.290864 0.458357
44 H 9.43363 10.7755 20.4511 -0.784569 -0.10055 -1.24203 0.124004
45 H 14.9253 4.04612 9.31361 0.390983 -0.951076 -0.243356 0.280148
46 H 0.34196 10.4278 8.69531 0.144802 -0.038617 0.222184 0.699793
47 H 9.90151 7.2781 15.0042 0.387255 -0.651516 -0.894811 0.0228
48 H 17.3003 0.863987 7.85656 -1.0591 0.295203 -1.28521 -0.37081
49 H 13.3992 19.5853 12.29 -0.285943 0.139946 0.198394 0.351171
50 H 14.5111 13.0434 6.69535 0.485714 -0.45843 0.3924 -0.395077
51 H 6.10782 17.3392 19.2493 -0.303755 0.00391253 -0.729531 0.549184
52 H 0.973568 4.21959 14.2896 0.658433 -0.640407 -0.271364 0.299157
53 H 4.03282 18.665 11.7034 -0.158635 -0.648607 -0.57668 1.12524
54 H 9.22068 3.08179 2.4725 0.201921 -0.198406 0.510905 0.155162
55 H 2.90507 2.78727 10.3818 0.222148 -0.209789 -0.524526 0.609378
56 H 8.23556 1.01195 6.6001 -0.0856141 0.693921 0.445477 0.0618858
57 H 16.6137 17.4675 2.23245 -0.946862 0.88314 -0.527896 -0.641277
58 H 3.30843 10.1204 12.5959 -0.552497 -0.821507 -0.0622891 0.464194
59 H 14.537 18.9779 0.368929 -0.209333 -0.408908 -0.383338 1.2705
60 H 8.92478 7.77983 17.34 -0.666989 -0.564375 -0.219302 -0.0937112
61 H 5.41553 13.2272 11.2207 -0.781123 0.00930328 -0.263667 1.71732
62 H 3.25704 7.24979 7.204 -0.118608 -0.646245 -1.02439 1.33067
63 H 10.8367 20.8192 1.43972 0.11496 0.105161 0.00319917 1.15938
64 H 17.9675 16.8581 21.0215 -0.480822 1.18076 0.283308 -0.458282
65 H 2.68819 7.76954 17.6999 0.772102 1.23925 -0.110659 -0.212819
66 H 20.9492 1.07354 11.9004 0.2432 0.486563 -0.304669 -0.169178
67 H 2.95806 13.0205 16.7494 -0.918839 0.874934 1.16692 0.489648
68 H 16.2539 2.13875 0.301083 -0.305019 -0.175604 -0.823037 0.0459553
69 H 16.0006 4.35069 12.0259 -0.0502467 0.194358 0.540176 2.19793
70 H 7.23119 12.244 8.54334 1.10264 4.3026 3.67561 0.175659
71 H 18.7566 10.0396 15.3575 0.854579 0.300862 -1.32157 0.291957
72 H 4.35758 20.4045 10.7392 -0.911968 0.0338231 -0.652281 0.855133
73 H 4.50378 5.63958 5.61755 0.346389 -0.411742 -0.299129 -0.0302983
74 H 19.321 6.69394 1.19525 0.308459 -0.00509764 0.363329 0.629622
75 H 14.1724 1.8086 3.16013 0.216376 0.301235 -1.09579 -0.0303107
76 H 4.59381 5.13231 16.4335 1.41698 -0.593791 -0.0716655 0.269446
77 H 21.0011 3.64775 8.06619 1.48051 -0.0473595 0.184859 0.290533
78 H 3.96999 11.5725 9.63532 -0.331909 -0.0739505 -1.19316 1.18091
79 H 16.0447 5.92728 3.93791 0.0437325 -0.626531 1.1678 2.73602
80 H 17.8089 12.4018 9.59613 -0.148217 0.609705 -0.126357 -0.24525
81 H 5.87136 5.33822 20.4811 0.106947 0.0132995 0.518962 0.468604
82 H 13.4206 4.90123 19.3856 0.186744 -0.334191 -0.289614 0.578153
83 H 10.462 3.33512 12.5061 -0.0318893 -0.259503 -0.0324914 0.0788046
84 H 19.9148 0.324787 15.2891 -0.0187682 0.133331 0.151989 -0.157037
85 H 8.49156 4.80287 4.3461 -0.00987562 0.0894089 0.233328 0.130804
86 H 19.2127 2.60575 13.5548 0.420229 -0.398382 -0.973347 -0.1087
87 H 16.2868 0.722253 9.50824 -0.996375 0.423204 0.80494 0.10548
88 H 16.0979 14.902 3.99656 -0.408792 -0.331021 -0.398015 -0.114163
89 H 11.5796 5.95293 16.8705 -0.439252 0.296325 -0.56385 -0.174375
90 H 10.7281 3.4062 14.9006 -0.663749 -0.0210392 0.230698 -0.148532
91 H 3.57587 16.0719 14.0651 -0.693819 1.68799 -0.821195 2.12935
92 H 18.6765 13.6332 12.4308 -1.32912 0.00837364 -1.00519 0.217358
93 H 16.764 0.828258 19.2543 -0.0363551 -0.146645 0.528195 -0.314293
94 H 5.89583 9.29284 2.52271 -0.094425 -0.612235 -0.433622 0.646869
95 H 7.43768 16.1651 15.1615 0.00935302 0.393831 -0.0759645 0.128885
96 H 3.99472 1.02418 3.08716 0.429498 -0.104956 -0.244886 0.434913
97 H 19.2305 20.8764 18.1584 0.627666 -0.0375654 -0.475242 -0.0859638
98 H 3.59765 3.75469 15.3117 -0.753263 0.252909 -0.813289 0.413124
99 H 8.64437 9.56855 13.6452 0.274337 -0.189715 0.135151 -0.20458
100 H 15.3494 0.991263 5.42072 0.325562 0.739104 -0.119602 -0.169324
101 H 2.80493 8.36546 8.55632 0.402695 0.327955 0.0813806 1.51449
102 H 6.99403 19.3319 8.32271 -0.500332 0.560486 -0.103258 -0.170893
103 H 1.70451 3.53176 19.596 -0.475875 0.777008 2.0045 -0.521895
104 H 12.8762 4.05471 9.69333 0.436606 -0.974821 -0.225348 0.115684
105 H 5.02617 9.95995 19.0735 -0.124601 -0.5694 -0.363642 -0.180165
106 H 10.7251 0.330754 6.25249 -0.172004 -0.347109 -0.0698648 0.0670094
107 H 15.6093 6.90093 20.3822 1.83646 -0.867812 -0.215615 2.21322
108 H 16.1018 5.70162 16.9943 -0.359004 -0.548369 -1.42964 0.637083
109 H 12.4236 19.6216 19.5857 0.193744 -0.657458 -0.558766 0.72621
110 H 0.335696 18.2679 16.511 -0.631765 0.576256 -0.63688 0.30206
111 H 14.4895 7.79681 9.71882 -0.467338 0.142738 -0.983502 0.0660565
112 H 4.17406 17.4046 1.67815 -0.18633 0.957287 -0.857532 1.32219
113 H 7.59821 11.1852 3.16068 -0.688038 -0.713102 1.49255 0.357744
114 H 13.351 19.5345 5.42375 -1.17676 0.202379 0.759099 -0.205803
115 H 2.04839 13.3938 11.9578 -1.01386 -0.446505 -0.652495 0.81479
116 H 17.7245 18.0842 10.6007 -0.225654 -0.632906 -0.436771 -0.129132
117 H 11.0943 6.06432 5.07986 -0.888784 -0.245485 -0.579034 0.184103
118 H 13.0041 10.4566 17.5954 0.10554 -0.616062 -0.675828 0.597613
119 H 20.665 14.4907 4.40325 0.782899 0.994025 0.927729 -0.113662
120 H 6.72457 13.1577 15.6662 1.87643 -0.922405 -0.869982 -0.114772
121 H 13.1043 0.0935902 6.13276 -0.377621 0.74762 -0.266786 -0.0987323
122 H 2.4313 11.6042 0.54985 0.471079 -0.446357 0.0570149 0.168262
123 H 5.63932 5.86262 14.9469 -0.307596 0.0259521 -0.611817 -0.328442
124 H 6.23318 0.0724505 3.27691 -0.361556 0.290121 -1.08588 0.066527
125 H 15.3686 0.343113 3.56061 -0.595997 -0.552313 -0.352402 0.0976745
126 H 20.3215 15.6076 12.5476 -0.595493 -0.296406 -0.33351 0.328532
127 H 6.77305 7.22602 11.1209 -0.156912 -1.37518 -0.150463 0.310846
128 H 18.6959 9.72555 1.13656 0.571998 -0.531631 -0.662186 0.266027
129 H 2.02482 0.832693 3.29499 0.224649 -0.297532 -0.643867 0.0851893
130 H 2.49242 2.22345 1.20553 -0.462767 -1.97916 0.261197 -0.293008
131 H 4.89044 13.4765 19.2644 0.406406 0.246607 0.433823 0.172699
132 H 20.9568 11.6622 14.7392 -0.409019 -0.721929 -1.06087 0.677462
133 H 6.31827 19.9808 17.7724 -0.0891591 0.0396816 -0.693106 0.342975
134 H 1.58709 18.3092 4.08078 -0.715184 -0.827242 -0.636776 -0.123113
135 H 13.6017 17.6518 1.19361 -0.433706 -0.581425 -0.53971 0.0677189
136 H 19.3841 18.8959 3.61632 0.422469 -0.321055 -0.208139 -0.334918
137 H 17.6067 11.3905 3.98367 0.44566 -0.850482 -0.225264 0.142274
138 H 11.3055 7.20836 13.0748 0.149867 0.00066551 2.23732 -0.071879
139 H 0.615625 2.25044 0.410544 -1.04203 0.200271 -0.723497 -0.193959
140 H 1.90328 11.2005 16.1767 -0.582197 -1.49128 0.487165 0.0915332
141 H 4.22345 13.3196 7.83914 -0.0844597 0.739207 -0.893754 1.26461
142 H 0.143371 16.4212 6.26887 -0.483617 -0.267065 0.294751 0.328957
143 H 3.32579 8.81087 19.3985 -0.812694 0.464845 -0.980191 0.0479609
144 H 21.0458 10.6129 18.0592 -0.442946 -0.576859 0.582516 -0.517122
145 H 19.3596 5.43762 18.4789 -3.15046 1.3038 1.1265 0.00368861
146 H 19.4928 20.9105 11.1648 -0.158538 -0.107416 0.433522 0.289021
147 H 1.31605 8.86522 4.4635 -0.690239 -0.581092 -1.4728 0.667825
148 H 9.04473 9.98331 6.17202 -0.477735 -1.21447 -0.72159 1.15425
149 H 11.3239 17.3794 6.41398 -1.07414 1.2221 -0.83341 -0.438499
150 H 20.6703 1.61549 18.8273 -0.175663 -0.462084 -0.784453 -0.590786
151 H 12.5303 11.1855 9.64382 0.682897 0.270207 0.158066 0.474022
152 H 13.5497 8.44948 18.1983 0.575272 -0.152689 -1.84796 0.571934
153 H 17.5288 3.60748 1.46972 0.820348 0.454548 0.652256 -0.0688323
154 H 9.34881 14.9462 15.5738 0.208965 0.579794 -0.608487 0.0491205
155 H 20.3401 0.134107 5.05053 0.56722 -0.374746 0.798049 -0.321792
156 H 12.1806 18.3446 15.8674 -0.896961 3.13679 0.292472 1.8376
157 H 20.5382 8.65674 18.8746 0.301935 1.10407 0.344472 0.412562
158 H 7.52854 10.2506 19.1822 -0.446526 -0.394348 -0.0957813 0.588884
159 H 8.13613 15.3234 17.7417 -0.0287512 0.25754 0.00106841 0.088614
160 H 11.0299 20.0564 17.9826 -0.506825 1.07393 -0.428482 -0.170228
161 H 0.692465 0.109451 17.6676 0.350418 -0.0260058 0.678205 -0.423921
162 H 3.07851 20.9558 4.87648 -0.832032 0.59546 -0.0453058 0.0582151
163 H 16.8291 9.2467 13.9875 -0.119131 -0.126786 -0.533249 -0.013109
164 H 10.347 11.3878 10.7861 -0.174884 -0.215207 0.227078 0.71758
165 H 16.2961 12.3655 13.6467 0.534574 0.647756 -0.414725 -0.170975
166 H 15.5786 4.61048 18.5245 -0.535782 0.552658 1.34731 0.0700832
167 H 1.31048 11.9017 5.76782 -0.237366 0.521709 -0.129929 0.186864
168 H 1.45609 1.51782 13.7106 0.0722662 -0.275324 -0.022722 -0.0239801
169 H 10.5509 16.5494 17.238 -0.197765 0.175471 -0.181989 0.139905
170 H 10.8635 9.04039 1.52879 0.759507 -0.97833 1.32845 0.732432
171 H 13.8836 6.29605 17.7473 0.0278676 -0.178909 -0.353042 0.274362
172 H 4.35179 19.7096 20.5207 -0.0728827 1.01223 -0.834977 0.178074
173 H 7.77372 12.1354 6.69824 2.10593 3.3478 -1.49528 0.631873
174 H 17.1975 13.1194 3.00854 -1.39479 0.159506 -0.0103215 -0.375351
175 H 4.01475 19.4246 6.41762 0.358661 -0.028741 -0.3045 0.484597
176 H 5.61651 9.79366 5.73872 -0.764288 -0.0022697 -1.58272 0.900925
177 H 15.7746 3.19559 16.9209 0.0429792 -0.398943 -0.969375 0.070326
178 H 1.85201 15.7617 5.33382 -0.745214 -2.39668 0.557909 -0.289519
179 H 13.6836 1.4499 10.2381 0.593665 0.236947 0.00909151 -0.0889742
180 H 2.11977 7.74174 11.9819 0.212391 -0.106352 0.413089 0.282442
181 H 11.3908 13.6397 18.1469 0.509183 0.532286 -0.163134 1.46592
182 H 10.2017 20.0118 15.1835 0.588456 0.565054 -0.115047 0.00838323
183 H 15.9679 10.0303 18.7922 1.24306 0.895772 -0.848396 1.08064
184 H 5.03095 11.9899 18.1109 1.72995 -0.646901 -0.45415 0.0832948
185 H 7.99646 8.88792 11.2286 0.540471 1.60228 -0.248138 -0.405603
186 H 9.8547 7.99129 9.63024 -0.772521 0.344133 0.190915 1.87536
187 H 16.2568 13.4187 16.9336 -0.285679 -1.19284 -0.174181 -0.296667
188 H 0.0661284 10.4632 0.702623 -0.279342 -0.158967 0.144399 -0.151469
189 H 10.6279 13.595 4.02736 0.648416 0.718926 -0.56523 -0.117898
190 H 14.5319 12.8685 12.3783 -0.131476 -0.351244 -0.21611 0.317336
191 H 0.889461 4.86594 6.31528 -0.334331 0.421384 -0.509096 0.734144
192 H 9.10139 0.648019 11.6747 -0.10055 -0.393109 -0.125926 -0.0459893
193 H 12.283 5.32641 12.2837 1.37913 -0.743296 0.817133 0.202811
194 H 20.9406 3.54747 1.50116 0.535821 1.12039 0.645271 -0.140537
195 H 3.52983 14.5462 19.9129 -0.491948 -1.11849 0.968575 -0.185559
196 H 12.7347 13.5985 8.05698 -1.03107 -0.591492 1.0202 0.0141576
197 H 9.05043 19.4384 6.46684 0.468421 -0.735188 -1.71887 -0.246044
198 H 11.9833 15.8501 8.13408 1.34549 -0.367197 -0.269578 -0.249855
199 H 9.03656 13.6211 1.18863 0.69741 0.133171 -0.174331 0.755387
200 H 14.6513 3.56105 6.99963 -1.17697 -0.506554 0.454867 0.246487
201 H 0.470984 18.741 19.5863 -5.62448e-05 0.608123 -0.330817 0.131715
202 H 7.74371 5.39251 16.5022 0.797917 -0.784144 -0.49675 0.0371211
203 H 15.9189 5.41048 1.02819 0.181181 -1.65509 -0.548392 0.83994
204 H 7.84582 0.172002 20.5485 0.314344 -0.414715 -0.748088 0.699425
205 H 3.3748 3.78425 20.3366 0.15822 0.24024 0.519698 0.0335372
206 H 18.9173 6.91693 14.0537 1.37964 -0.106106 -0.0819759 0.834482
207 H 19.8683 10.2796 4.46384 0.95117 0.677472 -0.661932 0.0436598
208 H 16.5208 1.82214 2.08307 -0.601127 0.3911 0.664549 -0.0728126
209 H 4.413 0.145448 16.5028 0.0250406 -0.201209 -0.644889 0.162775
210 H 15.9758 10.4935 8.75645 -0.920966 0.790295 0.507716 0.15817
211 H 10.6644 9.84367 17.418 0.503997 -1.02039 -1.4323 0.449727
212 H 17.6385 16.5925 9.13458 0.468492 -0.0564629 -0.243076 0.329757
213 H 0.710907 6.15014 8.90169 -1.05313 -0.434931 -0.524138 2.07831
214 H 9.77141 14.9433 6.23588 -0.198688 -0.254781 0.303931 0.0724487
215 H 3.41726 0.203153 18.5442 -0.0444846 -0.321355 0.0980301 0.304553
216 H 6.19951 20.8752 6.64329 -0.118957 -0.455428 0.639273 0.778393
217 H 8.95586 15.3889 12.3204 0.859523 -0.773902 0.174181 0.320937
218 H 2.42923 0.0151911 20.3548 -0.684625 0.481033 -0.281139 0.0313049
219 H 7.64757 5.64019 20.6806 -0.0219992 -0.908741 0.437135 0.795836
220 H 0.782136 4.4596 17.4 0.854755 1.38558 -0.447233 -0.355946
221 H 8.48646 7.2158 20.9572 -0.429445 0.82259 -0.14864 0.279939
222 H 4.78262 2.62548 2.06115 0.0557411 1.01104 -0.756772 0.281615
223 H 7.67197 20.7768 15.0947 0.0519604 0.322844 0.13466 0.418155
224 H 12.468 12.9203 2.12888 -0.154792 0.121417 0.493888 -0.187775
225 H 11.3866 8.45451 14.9966 0.443899 -0.041785 0.827308 0.0652346
226 H 5.74606 4.64601 12.396 -0.713517 0.790155 0.360953 0.207141
227 H 4.51755 21.1396 14.0027 -0.461483 0.0649813 1.08505 0.953579
228 H 19.6125 0.810816 6.85451 -0.264999 1.10053 -0.454701 -0.283478
229 H 7.14424 13.1631 18.9092 -0.242206 0.210173 0.928362 0.0713549
230 H 20.3593 14.2126 1.97287 2.93446 -1.35259 2.80791 -0.241193
231 H 0.204745 12.1226 12.7934 -0.0550805 0.382004 -0.105879 0.553177
232 H 19.2832 14.1862 16.4156 -1.1569 0.156093 -0.921677 1.16191
233 H 6.34746 10.7347 7.33521 -1.30518 -4.47503 6.51544 0.521029
234 H 8.13073 3.1843 16.4817 -0.330542 0.146333 -0.820708 0.119172
235 H 15.3488 11.5114 1.99999 0.120945 -0.391561 -0.607554 0.508195
236 H 10.6531 6.74165 6.81715 0.475072 -1.79617 -2.1148 1.22892
237 H 1.2724 15.8996 8.68641 -0.0635724 -0.855926 0.206207 0.527461
238 H 9.09495 19.4665 11.5037 0.784654 0.431045 -0.312033 0.281456
239 H 8.19662 13.0767 3.85414 0.358466 0.750379 -0.847329 0.29809
240 H 6.89856 17.6164 9.59018 -0.642923 -0.290468 0.164037 -0.045551
241 H 8.04923 13.5981 17.1346 1.30971 -0.179781 -0.882966 0.0556663
242 H 20.3117 18.8524 5.38785 -0.2458 0.0838693 0.212644 0.123
243 H 8.11301 16.5167 5.25641 0.819335 0.683125 0.336799 -0.222574
244 H 17.8169 3.39836 4.28537 -0.00812167 1.39153 -1.06042 -0.0843435
245 H 17.1712 0.850685 4.49882 -0.751939 0.220908 0.611934 -0.0298099
246 H 3.99961 6.84617 15.6703 -0.2339 0.497896 0.219147 0.627809
247 H 4.28648 12.2748 2.40991 -0.482889 0.531178 -0.435033 0.264965
248 H 11.3357 15.596 13.0147 -0.121154 0.100144 0.665557 0.336737
249 H 15.9479 16.504 19.7268 -0.409099 0.33275 -1.74967 0.507674
250 H 2.04824 15.1652 20.7351 -0.801734 0.481026 -0.296521 0.174542
251 H 17.2096 18.8898 5.48824 0.226526 0.709004 0.507018 -0.114651
252 H 11.0547 20.8364 20.0956 0.648327 -0.840048 1.14573 -0.11841
253 H 4.99772 19.1798 14.3007 -0.0315574 0.451915 0.412425 0.143213
254 H 19.442 2.60882 2.30908 0.0495263 0.579401 -0.248951 -0.238814
255 H 16.1698 21.0285 15.6659 -0.428002 -0.402641 0.548728 -0.194989
256 H 7.89956 15.3245 21.0199 -0.756764 -0.299102 -1.01138 0.412582
257 H 12.2605 4.77307 6.43026 -0.627829 1.0752 -1.35155 0.217885
258 H 4.2582 14.2651 2.178 0.167971 -0.154906 -0.267593 0.761095
259 H 13.5961 7.52165 16.3216 -1.33542 0.718874 -0.182415 0.0820899
260 H 4.85428 16.6884 17.1887 0.720087 0.708903 0.45943 0.233675
261 H 20.8679 17.5746 18.2383 -0.430181 0.230958 -1.12312 0.231144
262 H 10.2674 13.7688 7.77604 1.19318 0.29596 -0.178357 0.0404432
263 H 2.59576 15.8228 7.04422 -0.123349 -0.0521063 -0.502009 0.248135
264 H 15.6948 18.5885 4.54426 -0.538212 -0.541263 -0.283834 -0.113041
265 H 0.989665 4.48917 11.8958 0.777194 -0.898472 -1.58381 0.158494
266 H 5.10665 19.0053 9.77986 1.0861 0.341039 -0.615721 1.00565
267 H 4.70967 7.12405 4.34472 0.149084 -0.713491 -0.222171 0.188365
268 H 7.3297 10.5086 5.63732 0.38456 -0.271073 -3.22345 0.446921
269 H 1.01068 3.13404 16.1046 0.132193 0.694826 -0.0647173 -0.361567
270 H 13.1587 1.43327 8.39427 -0.216346 0.672436 -1.67327 -0.32803
271 H 3.19273 1.03317 10.0111 -0.271674 -0.129602 0.129154 0.639282
272 H 14.018 9.95071 10.6908 -0.597273 0.534693 0.499425 0.463991
273 H 1.74311 14.9031 13.5657 -0.613072 1.38951 -2.41909 2.45879
274 H 0.0341994 7.66165 15.502 -0.703977 2.01168 0.0400319 -0.121279
275 H 18.5292 4.79629 14.5669 -0.701204 1.16735 -0.438 0.710859
276 H 12.341 8.59504 8.93402 1.03532 -0.125159 1.37665 1.33515
277 H 11.8613 17.6547 13.2755 0.93703 -0.085821 -0.852503 1.32903
278 H 2.87523 7.95368 0.266386 -0.152551 -0.126332 0.142226 0.330896
279 H 12.5748 3.13439 20.1544 -0.909928 0.0825196 1.19985 1.18106
280 H 12.5507 10.5984 3.82021 0.458264 -0.0926778 0.171073 0.175349
281 H 18.5724 10.6137 17.3355 -0.746719 -0.603123 0.337436 0.0798005
282 H 18.1667 10.4328 9.06058 0.0714616 0.923881 0.364535 0.372714
283 H 1.02149 12.3576 3.62227 -1.3971 0.270412 -0.183082 -0.0431975
284 H 4.13654 7.30081 10.0825 -0.469679 -0.0382889 0.167629 0.263679
285 H 20.0284 9.56134 6.11164 0.0491254 -0.818038 0.139523 0.41623
286 H 4.58075 14.8179 6.08039 0.0916946 -0.360698 0.876381 0.41834
287 H 3.28597 19.9086 8.37921 0.0893411 0.943195 0.16597 0.913579
288 H 11.3805 0.782162 4.34386 -0.0885971 -0.194162 -0.0743279 0.374467
289 H 14.6304 3.23983 13.9379 -0.131661 -0.553753 -0.485365 0.413043
290 H 17.5981 11.0192 12.1484 0.167295 0.338975 0.769075 -0.40245
291 H 3.59338 1.56236 4.86327 0.323508 -0.498292 -0.470973 0.309212
292 H 4.96314 1.72771 9.66777 0.233487 -1.19138 0.528611 0.149501
293 H 11.041 9.81851 20.957 0.706692 -0.16496 -0.852472 0.213201
294 H 14.196 3.0485 15.7511 -1.01385 0.242474 0.189216 -0.0861815
295 H 20.5196 6.07971 4.49476 -0.26065 -0.143403 0.131204 0.645694
296 H 17.5497 15.2721 14.9136 -0.715288 0.315379 0.673427 -0.286666
297 H 10.4182 4.22046 9.46913 -0.868208 -1.54864 0.215824 0.540343
298 H 3.51808 11.8253 19.8214 0.484877 0.580268 0.0275484 0.095013
299 H 0.10883 13.1609 9.9866 -1.68703 -0.394679 0.894022 0.466517
300 H 1.18323 3.40366 10.4276 -0.850729 -1.22659 -0.375617 0.263384
301 H 19.6243 17.6026 14.0864 -0.618178 -0.440796 -0.897614 0.52935
302 H 7.84069 5.015 6.13937 -0.392251 -0.985158 -0.563521 0.313956
303 H 17.5569 7.13122 20.6487 -1.39524 -0.312889 -0.750126 2.73319
304 H 14.1789 0.217124 15.6446 0.0894425 0.4013 -0.930364 -0.270976
305 H 20.0112 2.70042 4.3147 0.144837 0.364289 0.63753 0.0530821
306 H 7.4947 18.42 6.18522 -0.141141 0.0667638 -1.39782 -0.173488
307 H 8.03113 6.9476 12.7117 1.9209 1.38436 0.000112385 -0.0183862
308 H 18.9435 9.56505 12.4264 0.247118 0.0187923 0.380369 0.0572029
309 H 15.1662 15.3582 14.3046 -0.915282 1.10442 -0.981255 -0.505212
310 H 15.225 19.5854 6.02606 0.93391 0.883899 0.0850733 -0.413522
311 H 8.92201 16.0522 10.1213 0.199871 -0.563309 -0.699525 0.0342951
312 H 5.70174 9.85152 11.0894 -0.123407 -0.567605 -0.243556 0.306117
313 H 19.2948 14.2534 20.69 -0.339105 -0.03322 -0.824269 -0.11552
314 H 16.6167 3.56279 7.17802 0.964964 0.550015 0.494543 -0.411208
315 H 18.2085 13.0181 14.9794 0.0559158 -0.128109 -0.159127 0.173598
316 H 3.02975 1.62748 12.0705 -0.431271 0.522237 0.487464 0.615254
317 H 2.17555 1.97075 6.37744 0.305751 0.392992 0.746451 0.751595
318 H 8.79937 18.8463 14.4851 0.180101 1.03184 -0.257194 1.36785
319 H 13.026 15.7487 11.516 0.277708 -0.0869083 0.7035 0.723153
320 H 8.92217 8.59352 3.87212 -0.209637 0.0376881 -0.388351 0.513339
321 H 8.03014 20.2176 2.05317 0.0905773 0.400411 0.43543 0.630351
322 H 6.36326 1.72786 18.057 1.69369 0.126373 -0.616007 0.467396
323 H 15.5811 14.5661 7.98003 -0.216888 1.1189 0.0450785 -0.0861368
324 H 17.3353 18.4337 8.51513 0.0495037 -0.129228 0.23277 -0.0984509
325 H 6.185 12.0348 20.8498 -1.34252 -0.351088 -0.357892 0.395839
326 H 11.9543 3.80917 8.03276 0.444524 -0.965104 -0.522042 0.0447192
327 H 4.80324 2.08778 16.5256 -0.856654 -1.23119 -2.25799 0.160364
328 H 6.65396 9.21459 17.7587 0.278659 -0.170658 0.993316 0.147163
329 H 18.0062 20.7456 20.9151 -0.503653 -0.114437 -0.0802413 0.29742
330 H 10.932 17.4448 18.9455 0.113635 0.398038 0.471388 0.19318
331 H 4.78549 15.2383 11.4771 0.398703 -0.802875 0.322765 4.35326
332 H 2.72417 6.34088 19.9743 -0.0696495 -0.000899719 0.243598 0.161922
333 H 9.2437 18.2043 8.25398 0.66149 0.127952 0.250753 -0.0872392
334 H 9.71531 20.3441 0.0637317 -0.565915 0.62631 0.284626 0.493973
335 H 0.702617 8.68737 17.1091 -0.0159421 -0.0376985 0.400587 0.148243
336 H 18.3928 20.1802 4.49045 0.805544 -0.0830815 0.967539 0.0285055
337 H 13.2828 1.099 19.6638 -0.172558 0.299793 0.492395 0.40242
338 H 18.9885 13.3601 4.48258 0.827165 -1.31103 -0.574518 -0.00174306
339 H 11.0779 15.3946 5.0199 -0.204076 -0.0303927 -0.0270699 -0.21704
340 H 0.406745 19.738 11.6188 0.56013 -0.580671 0.213148 -0.235764
341 H 12.7085 1.26964 17.6977 -0.840055 0.328486 -0.40958 0.114405
342 H 4.49794 11.4019 11.4938 0.145475 -1.50641 -2.33881 0.742044
343 H 3.50757 3.66559 17.1206 0.00677697 0.131203 0.308571 0.235275
344 H 2.66207 18.2588 2.4718 0.239378 -0.0884101 0.299291 0.52997
345 H 17.0378 4.78047 20.5461 -0.928237 -0.345183 0.0626453 0.327138
346 H 13.7306 13.9459 9.52691 -0.184314 0.643858 -0.0584734 0.535097
347 H 2.34776 7.08016 5.14801 -0.931695 -0.739688 0.95347 0.333973
348 H 8.08592 1.14807 9.73165 0.133434 -0.336494 0.290728 0.159697
349 H 11.5206 10.136 11.8601 -0.250268 -0.204312 1.28397 0.159679
350 H 7.8524 5.14394 14.062 2.23735 -2.10808 1.07497 -0.327535
351 H 4.05747 12.11 5.35939 1.23375 0.68186 -1.42926 0.465719
352 H 9.59836 18.6767 3.94045 0.133785 -0.975584 0.875433 -0.131816
353 H 14.415 20.6915 9.25718 0.580985 -0.479258 0.405825 -0.232102
354 H 13.8275 18.0053 6.847 -0.0503475 0.0598414 3.17314 -0.376773
355 H 7.75888 13.7755 13.0152 0.500835 0.268872 0.229856 1.05699
356 H 10.0627 7.7116 2.46387 0.000694435 -0.642036 1.41691 -0.106107
357 H 1.50229 7.2944 13.8039 1.41033 0.536519 0.327543 0.161178
358 H 9.92822 1.47786 15.4138 0.485757 -0.434556 0.109622 -0.114374
359 H 13.7271 10.8323 6.76291 1.34228 -0.150717 0.428063 0.325647
360 H 3.68079 16.4604 4.54453 -0.379576 -1.15339 0.175651 0.362221
361 H 5.8084 17.4992 15.1799 1.14126 0.778171 0.13979 -0.288815
362 H 19.8069 7.24398 12.0901 -0.296891 1.28777 -0.905562 0.351851
363 H 14.4028 4.21415 4.94414 -0.459082 -0.471258 -1.30853 0.0487476
364 H 13.7212 3.35793 0.662104 0.349494 -0.662321 -0.242433 1.18014
365 H 13.4667 14.3466 1.48787 0.997809 -1.09565 1.81108 0.265348
366 H 18.5096 14.6895 1.63904 0.255149 -0.239262 0.387917 0.0102974
367 H 19.2371 6.04688 15.963 0.459181 -0.0886382 -1.0975 0.340642
368 H 11.2629 11.7808 16.6648 1.20365 0.0347935 -0.165768 1.0469
369 H 18.5649 3.12138 15.4488 -0.47365 -0.109051 -0.165965 -0.220747
370 H 17.844 9.959 19.3561 0.347182 1.90007 0.0567515 1.49775
371 H 19.9194 4.36468 11.3064 -0.691094 -0.0330936 0.660184 0.768248
372 H 12.2696 14.6775 6.39026 1.116 0.0694337 -0.345964 -0.0365085
373 H 16.5756 5.19399 15.2025 0.662404 0.0442455 0.150155 0.412308
374 H 18.1968 5.82147 6.58222 -0.633161 -0.248193 -0.276066 -0.0152107
375 H 18.0514 6.13192 4.39365 0.765948 -0.598243 -0.203297 0.409765
376 H 13.3885 16.0538 19.7039 -0.145073 1.50861 -1.32822 1.51312
377 H 18.1978 15.2503 7.05846 -0.202621 0.486548 0.61701 -0.161533
378 H 5.97633 17.3273 5.60598 -0.0759517 -0.373553 -0.529181 0.129989
379 H 17.2947 19.5305 1.17623 0.291144 -0.130325 0.013821 0.461494
380 H 15.1608 10.5058 0.142218 0.654969 0.890079 0.75817 0.653441
381 H 9.10387 7.58573 7.26463 -0.416644 0.10561 -0.916499 1.30042
382 H 9.33863 15.3155 3.96116 -0.917634 -0.432374 0.951833 0.218295
383 H 7.90308 11.1139 12.5995 0.332166 0.243242 -0.629099 0.306497
384 H 14.4125 8.05358 12.8189 0.961755 1.14889 0.12414 0.449274
385 H 5.72096 10.5228 13.5366 1.687 -3.14059 -0.724171 0.749317
386 H 12.237 12.6974 0.0918054 1.4953 -0.9966 0.280078 0.35668
387 H 14.8725 5.2929 6.42431 -0.108354 2.50759 1.49439 0.112604
388 H 13.8622 8.9356 2.24837 -0.180396 1.01992 1.04604 0.760057
389 H 19.2526 0.307815 3.42518 0.433785 -0.794961 -4.25341 -0.361613
390 H 16.4853 15.8982 12.6885 0.89731 0.222202 0.191742 -0.235054
391 H 13.0317 9.42927 12.5448 0.345539 -0.555761 -0.645219 0.197406
392 H 3.11322 9.30213 1.93993 -0.529951 -0.319314 0.763897 0.135494
393 H 16.9106 13.9905 10.5315 0.795324 -0.0769724 -0.34201 0.446478
394 H 1.74005 17.3464 17.9889 -0.332114 0.255856 0.630903 0.36706
395 H 10.0652 10.8838 1.02524 0.293906 -0.314466 1.60972 0.32527
396 H 3.34187 18.2086 21.0275 -0.0223617 -0.625812 -0.280366 0.414781
397 H 13.8765 20.4906 17.5828 0.474652 -0.162062 -0.429173 -0.356903
398 H 14.8428 0.117563 7.49877 0.222506 0.617553 0.42002 -0.084709
399 H 1.42388 13.4372 18.4972 -0.397366 0.808379 0.0811129 -0.145737
400 H 16.2281 11.658 7.097 -0.889739 -1.10036 1.02456 0.795712
401 H 7.30296 2.90117 6.87726 -1.10023 -0.225526 -0.465323 0.773952
402 H 13.0832 19.9203 15.6848 0.429347 -0.834222 1.06108 -0.0878384
403 H 14.478 14.9103 5.39499 0.287404 0.0938095 0.206223 -0.278653
404 H 8.89578 16.2266 2.38029 1.68119 0.624231 0.224729 0.336463
405 H 7.77278 5.13961 2.28315 -0.116169 -0.245776 -0.0662227 0.0473897
406 H 20.0153 5.57986 9.7048 -0.339491 -0.228978 0.00456465 1.7507
407 H 8.08035 11.6065 15.9114 0.187635 -0.220869 -0.0577684 1.58144
408 H 6.68425 15.1873 8.52113 1.00558 -0.861112 0.246479 0.654771
409 H 14.6149 16.1353 9.68026 0.271784 -1.28062 0.926604 -0.389124
410 H 8.21594 14.1386 6.83445 -0.0553592 0.451349 0.922769 0.189225
411 H 17.3829 7.47602 7.86403 0.1918 -0.390235 -1.14354 0.661787
412 H 1.97217 4.86952 1.47545 -0.33192 -0.425252 -0.573045 0.240656
413 H 10.6326 20.5171 7.96213 -0.461873 -0.124202 0.526397 -0.362888
414 H 9.50215 8.81254 21.0934 -0.949716 0.274336 0.13179 0.270897
415 H 14.9217 18.8431 18.8159 -0.0162456 0.0137958 -0.593995 1.29466
416 H 15.1359 2.13948 18.9351 0.133803 -0.504078 0.0409901 -0.0550411
417 H 14.4567 13.8385 17.0741 -0.586088 -0.302353 -0.570702 0.549331
418 H 12.9996 12.1642 5.53327 0.32879 0.884718 -0.785002 -0.117947
419 H 0.0506143 16.208 16.4874 0.272781 -0.0362255 1.49215 1.60664
420 H 13.386 18.2683 14.3154 1.34598 -0.193375 -0.206758 0.099413
421 H 5.56677 14.4597 4.54221 -0.288478 -1.07512 -0.231755 0.387858
422 H 17.5803 2.1195 17.3107 -0.625235 0.352779 1.509 -0.339541
423 H 0.273763 0.997204 8.91007 1.79228 1.37809 0.770668 0.214869
424 H 1.35343 7.17443 1.24984 -0.0557945 -0.250319 -0.793273 0.565364
425 H 17.4924 17.9975 3.84747 -0.043717 -1.44832 0.447187 0.169937
426 H 10.819 14.6691 11.2719 -0.307473 0.237307 0.255028 0.243336
427 H 2.44744 5.77 13.6354 1.05967 0.576057 0.509433 0.524275
428 H 11.2402 2.78358 2.75138 0.556175 -0.788748 0.252066 0.513307
429 H 18.5636 12.2947 1.86581 -0.738368 -2.14896 0.781738 0.12016
430 H 6.19565 2.17486 4.94829 -0.164145 0.825394 -0.848992 -0.243654
431 H 20.1473 14.4832 6.30375 -0.0991899 -0.124839 1.46025 0.0811627
432 H 19.1103 15.1524 9.47322 -0.659879 -0.235282 0.404521 0.451963
433 H 17.9083 20.5913 15.2806 -0.208647 -0.53442 -0.646506 -0.345099
434 H 11.2057 1.85164 8.42611 -0.920878 -0.121058 0.511304 -0.339317
435 H 14.3126 7.12385 7.51908 1.16969 1.24627 -0.522879 0.678839
436 H 4.89127 5.46502 10.9559 -0.154072 0.624053 0.259192 0.25959
437 H 19.6705 11.8737 11.3372 0.0814112 0.61949 -0.0807823 0.329295
438 H 18.7347 1.44326 18.5272 0.565274 0.00446412 -0.948546 0.084551
439 H 14.7672 12.3922 20.4392 0.273191 -0.808505 -0.595833 0.910458
440 H 15.3634 11.2456 11.5034 0.532715 0.383666 -0.0950227 0.309881
441 H 6.38796 17.6541 17.1713 0.969727 0.649562 0.0425333 -0.321582
442 H 14.5102 12.3102 14.8564 -0.486816 -0.279683 -0.460403 0.0197323
443 H 13.7616 1.43224 12.8921 -0.127293 -0.219632 0.0730764 0.410515