 vasp.6.5.0 16Dec24 (build Jan 20 2025 08:32:48) complex                         
 executed on        HPECrayEX_GCC date 2025.07.21  14:21:17
 running  128 mpi-ranks, with    1 threads/rank, on    1 nodes
 distrk:  each k-point on  128 cores,    1 groups
 distr:  one band on NCORE=  16 cores,    8 groups


--------------------------------------------------------------------------------------------------------


 INCAR:
   SYSTEM = a-Si SPC
   NCORE = 16
   ISTART = 1
   ICHARG = 1
   ISPIN = 1
   ISYM = 1
   EDIFF = 1E-6
   NELM = 150
   EDIFFG = -0.01
   NSW = 0
   ISIF = 2
   IBRION = -1
   PREC = Accurate
   ENCUT = 1200
   KSPACING = 0.23
   KGAMMA = .TRUE.
   METAGGA = SCAN
   LASPH = .TRUE.
   LDIAG = .FALSE.
   LMIXTAU = .TRUE.
   ADDGRID = .TRUE.
   ALGO = Normal
   ISMEAR = 0
   SIGMA = 0.1
   LORBIT = 11
   NEDOS = 2000
   LWAVE = .FALSE.
   LCHARG = .FALSE.

 POTCAR:    PAW_PBE H 15Jun2001                   
 POTCAR:    PAW_PBE Si 05Jan2001                  
 POTCAR:    PAW_PBE H 15Jun2001                   
   SHA256 =  030f79b5d3ab3cf0e668861823c8fb652ff669f3e15e46930bd03bfd63a607b6 H/POTCAR              
   COPYR  = (c) Copyright 15Jun2001 Georg Kresse                                                    
   COPYR  = This file is part of the software VASP. Any use, copying, and all other rights are regul
   COPYR  = If you do not have a valid VASP license, you may not use, copy or distribute this file. 
   VRHFIN =H: ultrasoft test                                                                        
   LEXCH  = PE                                                                                      
   EATOM  =    12.4884 eV,    0.9179 Ry                                                             
                                                                                                    
   TITEL  = PAW_PBE H 15Jun2001                                                                     
   LULTRA =        F    use ultrasoft PP ?                                                          
   IUNSCR =        0    unscreen: 0-lin 1-nonlin 2-no                                               
   RPACOR =    0.000    partial core radius                                                         
   POMASS =    1.000; ZVAL   =    1.000    mass and valenz                                          
   RCORE  =    1.100    outmost cutoff radius                                                       
   RWIGS  =    0.700; RWIGS  =    0.370    wigner-seitz radius (au A)                               
   ENMAX  =  250.000; ENMIN  =  200.000 eV                                                          
   RCLOC  =    0.701    cutoff for local pot                                                        
   LCOR   =        T    correct aug charges                                                         
   LPAW   =        T    paw PP                                                                      
   EAUG   =  400.000                                                                                
   RMAX   =    1.123    core radius for proj-oper                                                   
   RAUG   =    1.200    factor for augmentation sphere                                              
   RDEP   =    1.112    radius for radial grids                                                     
   RDEPT  =    0.926    core radius for aug-charge                                                  
                                                                                                    
   Atomic configuration                                                                             
    2 entries                                                                                       
     n  l   j            E        occ.                                                              
     1  0  0.50        -6.4927   1.0000                                                             
     2  1  0.50        -3.4015   0.0000                                                             
   Description                                                                                      
     l       E           TYP  RCUT    TYP  RCUT                                                     
     0     -6.4927494     23  1.100                                                                 
     0      6.8029130     23  1.100                                                                 
     1     -4.0817478     23  1.100                                                                 
  local pseudopotential read in
  atomic valenz-charges read in
  non local Contribution for L=           0  read in
    real space projection operators read in
  non local Contribution for L=           0  read in
    real space projection operators read in
  non local Contribution for L=           1  read in
    real space projection operators read in
    PAW grid and wavefunctions read in

   number of l-projection  operators is LMAX  =           3
   number of lm-projection operators is LMMAX =           5

 POTCAR:    PAW_PBE Si 05Jan2001                  
   SHA256 =  79d9987ad8750f624c4d6acb2a16d13abf6a777132adc04dc6c8399be72b42bb Si/POTCAR             
   COPYR  = (c) Copyright 05Jan2001 Georg Kresse                                                    
   COPYR  = This file is part of the software VASP. Any use, copying, and all other rights are regul
   COPYR  = If you do not have a valid VASP license, you may not use, copy or distribute this file. 
   VRHFIN =Si: s2p2                                                                                 
   LEXCH  = PE                                                                                      
   EATOM  =   103.0669 eV,    7.5752 Ry                                                             
                                                                                                    
   TITEL  = PAW_PBE Si 05Jan2001                                                                    
   LULTRA =        F    use ultrasoft PP ?                                                          
   IUNSCR =        1    unscreen: 0-lin 1-nonlin 2-no                                               
   RPACOR =    1.500    partial core radius                                                         
   POMASS =   28.085; ZVAL   =    4.000    mass and valenz                                          
   RCORE  =    1.900    outmost cutoff radius                                                       
   RWIGS  =    2.480; RWIGS  =    1.312    wigner-seitz radius (au A)                               
   ENMAX  =  245.345; ENMIN  =  184.009 eV                                                          
   ICORE  =        2    local potential                                                             
   LCOR   =        T    correct aug charges                                                         
   LPAW   =        T    paw PP                                                                      
   EAUG   =  322.069                                                                                
   DEXC   =    0.000                                                                                
   RMAX   =    1.950    core radius for proj-oper                                                   
   RAUG   =    1.300    factor for augmentation sphere                                              
   RDEP   =    1.993    radius for radial grids                                                     
   RDEPT  =    1.837    core radius for aug-charge                                                  
                                                                                                    
   Atomic configuration                                                                             
    6 entries                                                                                       
     n  l   j            E        occ.                                                              
     1  0  0.50     -1785.8828   2.0000                                                             
     2  0  0.50      -139.4969   2.0000                                                             
     2  1  1.50       -95.5546   6.0000                                                             
     3  0  0.50       -10.8127   2.0000                                                             
     3  1  0.50        -4.0811   2.0000                                                             
     3  2  1.50        -4.0817   0.0000                                                             
   Description                                                                                      
     l       E           TYP  RCUT    TYP  RCUT                                                     
     0    -10.8127223     23  1.900                                                                 
     0     -7.6451159     23  1.900                                                                 
     1     -4.0811372     23  1.900                                                                 
     1      2.4879257     23  1.900                                                                 
     2     -4.0817478      7  1.900                                                                 
  local pseudopotential read in
  partial core-charges read in
  partial kinetic energy density read in
  atomic valenz-charges read in
  non local Contribution for L=           0  read in
    real space projection operators read in
  non local Contribution for L=           0  read in
    real space projection operators read in
  non local Contribution for L=           1  read in
    real space projection operators read in
  non local Contribution for L=           1  read in
    real space projection operators read in
    PAW grid and wavefunctions read in

   number of l-projection  operators is LMAX  =           4
   number of lm-projection operators is LMMAX =           8

 -----------------------------------------------------------------------------
|                                                                             |
|               ----> ADVICE to this user running VASP <----                  |
|                                                                             |
|     You have a (more or less) 'large supercell' and for larger cells it     |
|     might be more efficient to use real-space projection operators.         |
|     Therefore, try LREAL= Auto in the INCAR file.                           |
|     Mind: For very accurate calculation, you might also keep the            |
|     reciprocal projection scheme (i.e. LREAL=.FALSE.).                      |
|                                                                             |
 -----------------------------------------------------------------------------

 -----------------------------------------------------------------------------
|                                                                             |
|               ----> ADVICE to this user running VASP <----                  |
|                                                                             |
|     You enforced a specific xc type in the INCAR file but a different       |
|     type was found in the POTCAR file.                                      |
|     I HOPE YOU KNOW WHAT YOU ARE DOING!                                     |
|                                                                             |
 -----------------------------------------------------------------------------

  PAW_PBE H 15Jun2001                   :
 energy of atom  1       EATOM=  -12.4884
 kinetic energy error for atom=    0.0000 (will be added to EATOM!!)
  PAW_PBE Si 05Jan2001                  :
 energy of atom  2       EATOM= -103.0669
 kinetic energy error for atom=    0.0001 (will be added to EATOM!!)


 POSCAR:  H Si
  positions in cartesian coordinates
  No initial velocities read in


 exchange-correlation table for SCAN
   RHO(1)=    0.500       N(1)  =     2000
   RHO(2)=  100.500       N(2)  =     4000



--------------------------------------------------------------------------------------------------------


 ion  position               nearest neighbor table
   1  0.269  0.372  0.607-  19 1.48
   2  0.680  0.944  0.470-  24 1.49
   3  0.906  0.086  0.576-  25 1.58
   4  0.361  0.155  0.428-  52 2.24  30 2.34  39 2.44
   5  0.020  0.488  0.464-  56 2.24  33 2.39  45 2.43  44 2.47
   6  0.333  0.627  0.491-  38 2.33  16 2.40  35 2.41  21 2.47
   7  0.567  0.837  0.395-  24 2.44
   8  0.111  0.716  0.549-  10 2.32  42 2.32  58 2.38  50 2.40
   9  0.136  0.081  0.420-  34 2.27  39 2.29  27 3.14
  10  0.125  0.572  0.587-   8 2.32  38 2.32  45 2.37
  11  0.758  0.280  0.577-  17 2.36  18 2.43
  12  0.049  0.928  0.596-  42 2.30  58 2.32  27 2.35
  13  0.782  0.375  0.437-  17 2.19  28 2.28  44 2.30
  14  0.012  0.255  0.497-  43 2.30  34 2.33  23 2.34  44 3.01
  15  0.615  0.462  0.514-  17 2.34  36 2.36  55 2.36  31 2.39
  16  0.236  0.672  0.418-  50 2.31   6 2.40
  17  0.766  0.408  0.520-  13 2.19  15 2.34  11 2.36  40 2.39
  18  0.706  0.150  0.525-  20 2.30  25 2.37  11 2.43  57 2.51
  19  0.344  0.424  0.582-   1 1.48  38 2.36  29 2.43
  20  0.575  0.100  0.567-  18 2.30  49 2.33  22 2.35
  21  0.399  0.707  0.567-  41 2.37   6 2.47  59 2.56
  22  0.501  0.009  0.503-  24 2.25  60 2.30  20 2.35  52 2.39
  23  0.033  0.322  0.580-  45 2.30  14 2.34
  24  0.596  0.891  0.484-   2 1.49  22 2.25  54 2.33   7 2.44
  25  0.825  0.043  0.543-   3 1.58  18 2.37  46 2.37  61 2.38
  26  0.713  0.645  0.423-  55 2.31  48 2.47
  27  0.125  0.031  0.540-  34 2.34  12 2.35  47 2.41  51 2.45   9 3.14
  28  0.735  0.246  0.393-  57 2.27  13 2.28
  29  0.417  0.318  0.521-  30 2.37  19 2.43  36 2.46  49 2.50
  30  0.290  0.221  0.502-  43 2.30  51 2.33   4 2.34  29 2.37
  31  0.575  0.474  0.605-  15 2.39
  32  0.903  0.868  0.443-  37 2.25  46 2.33  53 2.47
  33  0.180  0.451  0.456-  38 2.36   5 2.39  43 2.41
  34  0.022  0.098  0.480-   9 2.27  14 2.33  27 2.34  46 2.39
  35  0.454  0.606  0.427-   6 2.41  55 2.42
  36  0.540  0.356  0.458-  15 2.36  57 2.37  29 2.46
  37  0.856  0.800  0.517-  32 2.25  48 2.31  61 2.31  42 2.44
  38  0.242  0.517  0.533-  10 2.32   6 2.33  19 2.36  33 2.36
  39  0.272  0.017  0.447-   9 2.29  47 2.38   4 2.44  60 2.47
  40  0.853  0.530  0.559-  45 2.35  48 2.39  17 2.39
  41  0.336  0.853  0.588-  60 2.35  21 2.37  58 2.43
  42  0.980  0.788  0.582-  12 2.30   8 2.32  37 2.44  58 2.95
  43  0.158  0.288  0.469-  14 2.30  30 2.30  33 2.41
  44  0.934  0.374  0.411-  13 2.30   5 2.47  14 3.01
  45  0.005  0.474  0.559-  23 2.30  40 2.35  10 2.37   5 2.43
  46  0.881  0.025  0.456-  32 2.33  25 2.37  34 2.39
  47  0.187  0.901  0.492-  53 2.36  39 2.38  27 2.41  60 2.80  58 3.10
  48  0.828  0.648  0.495-  37 2.31  40 2.39  56 2.44  26 2.47
  49  0.505  0.237  0.591-  20 2.33  29 2.50
  50  0.097  0.714  0.455-  56 2.28  53 2.30  16 2.31   8 2.40
  51  0.271  0.104  0.563-  30 2.33  60 2.37  27 2.45
  52  0.506  0.102  0.426-   4 2.24  57 2.35  22 2.39
  53  0.072  0.865  0.431-  50 2.30  47 2.36  32 2.47
  54  0.617  0.828  0.567-  59 2.21  24 2.33  61 2.44
  55  0.593  0.611  0.479-  26 2.31  15 2.36  59 2.36  35 2.42
  56  0.968  0.628  0.443-   5 2.24  50 2.28  48 2.44
  57  0.617  0.213  0.448-  28 2.27  52 2.35  36 2.37  18 2.51
  58  0.174  0.829  0.607-  12 2.32   8 2.38  41 2.43  42 2.95  47 3.10
  59  0.573  0.683  0.562-  54 2.21  55 2.36  21 2.56
  60  0.353  0.976  0.529-  22 2.30  41 2.35  51 2.37  39 2.47  47 2.80
  61  0.771  0.896  0.571-  37 2.31  25 2.38  54 2.44

  LATTYP: Found a simple tetragonal cell.
 ALAT       =    14.5307357155
 C/A-ratio  =     1.7528495803
  
  Lattice vectors:
  
 A1 = (  14.5307357155,   0.0000000000,   0.0000000000)
 A2 = (   0.0000000000,  14.5307357155,   0.0000000000)
 A3 = (   0.0000000000,   0.0000000000,  25.4701940000)


Analysis of symmetry for initial positions (statically):
=====================================================================
 Subroutine PRICEL returns:
 Original cell was already a primitive cell.
 

 Routine SETGRP: Setting up the symmetry group for a 
 simple tetragonal supercell.


 Subroutine GETGRP returns: Found  1 space group operations
 (whereof  1 operations were pure point group operations)
 out of a pool of 16 trial point group operations.


The static configuration has the point symmetry C_1 .


Analysis of symmetry for dynamics (positions and initial velocities):
=====================================================================
 Subroutine PRICEL returns:
 Original cell was already a primitive cell.
 

 Routine SETGRP: Setting up the symmetry group for a 
 simple tetragonal supercell.


 Subroutine GETGRP returns: Found  1 space group operations
 (whereof  1 operations were pure point group operations)
 out of a pool of 16 trial point group operations.


The dynamic configuration has the point symmetry C_1 .


 Subroutine INISYM returns: Found  1 space group operations
 (whereof  1 operations are pure point group operations),
 and found     1 'primitive' translations


----------------------------------------------------------------------------------------

                                     Primitive cell                                     

  volume of cell :    5377.8348

  direct lattice vectors                    reciprocal lattice vectors
    14.530735716  0.000000000  0.000000000     0.068819640  0.000000000  0.000000000
     0.000000000 14.530735716  0.000000000     0.000000000  0.068819640  0.000000000
     0.000000000  0.000000000 25.470194000     0.000000000  0.000000000  0.039261578

  length of vectors
    14.530735716 14.530735716 25.470194000     0.068819640  0.068819640  0.039261578

  position of ions in fractional coordinates (direct lattice)
     0.268776480  0.372060308  0.607384223
     0.680274571  0.944177932  0.470150875
     0.905976150  0.085754777  0.576073115
     0.361137943  0.155360337  0.428387942
     0.019845864  0.487730982  0.464189005
     0.332611514  0.626754913  0.490698814
     0.567414490  0.837163392  0.394894597
     0.110589032  0.716391806  0.549022281
     0.136472099  0.081283565  0.419838538
     0.124655078  0.571986867  0.586598751
     0.758144681  0.280064278  0.576816337
     0.049053951  0.927592399  0.596145989
     0.781990687  0.374783501  0.436826433
     0.011678418  0.255094448  0.497085888
     0.614607558  0.462028911  0.513966403
     0.236379635  0.672302504  0.418480165
     0.766010766  0.408017193  0.520192112
     0.705883047  0.149805904  0.524709941
     0.343577235  0.423927606  0.581559135
     0.574702490  0.099827017  0.566828584
     0.399087845  0.707369551  0.567402981
     0.501002161  0.008849517  0.503313167
     0.033233555  0.322119959  0.579859894
     0.596066859  0.891131754  0.484042799
     0.824596926  0.042738717  0.542699204
     0.713473853  0.645022398  0.423493594
     0.124549784  0.030751987  0.539648186
     0.735179568  0.246444507  0.392615777
     0.416823354  0.317962565  0.520516412
     0.289769223  0.221300563  0.501641409
     0.574586185  0.473508715  0.604821228
     0.903223364  0.868029001  0.442779666
     0.179544935  0.451496753  0.456462326
     0.022478903  0.098043900  0.480133524
     0.453554461  0.605753224  0.427336949
     0.540381448  0.355919349  0.458165886
     0.855503826  0.799849383  0.517324053
     0.241874195  0.517469325  0.533135869
     0.271804544  0.016779398  0.447081950
     0.852881798  0.529997940  0.558765434
     0.336020839  0.853336007  0.588122493
     0.979874679  0.787544432  0.581569343
     0.158285172  0.288369432  0.469267097
     0.933648527  0.374420821  0.411495413
     0.004522545  0.473600245  0.558728135
     0.881283663  0.024911746  0.456110150
     0.187333254  0.901248241  0.492454200
     0.827838331  0.648066979  0.495224889
     0.504521598  0.237373390  0.591472291
     0.097037069  0.714499266  0.454969994
     0.270522434  0.104208075  0.563082244
     0.505733512  0.102091183  0.426140649
     0.071582748  0.864815123  0.430996482
     0.617286019  0.828037908  0.567240438
     0.592969287  0.611030314  0.479398547
     0.967783069  0.628117542  0.443376050
     0.617310794  0.213217008  0.447981040
     0.173739310  0.829221606  0.606642179
     0.572924191  0.682514650  0.561864743
     0.353034430  0.976378642  0.529079755
     0.770855669  0.896238171  0.570999734

  ion indices of the primitive-cell ions
   primitive index   ion index
                 1           1
                 2           2
                 3           3
                 4           4
                 5           5
                 6           6
                 7           7
                 8           8
                 9           9
                10          10
                11          11
                12          12
                13          13
                14          14
                15          15
                16          16
                17          17
                18          18
                19          19
                20          20
                21          21
                22          22
                23          23
                24          24
                25          25
                26          26
                27          27
                28          28
                29          29
                30          30
                31          31
                32          32
                33          33
                34          34
                35          35
                36          36
                37          37
                38          38
                39          39
                40          40
                41          41
                42          42
                43          43
                44          44
                45          45
                46          46
                47          47
                48          48
                49          49
                50          50
                51          51
                52          52
                53          53
                54          54
                55          55
                56          56
                57          57
                58          58
                59          59
                60          60
                61          61

----------------------------------------------------------------------------------------


 -----------------------------------------------------------------------------
|                                                                             |
|           W    W    AA    RRRRR   N    N  II  N    N   GGGG   !!!           |
|           W    W   A  A   R    R  NN   N  II  NN   N  G    G  !!!           |
|           W    W  A    A  R    R  N N  N  II  N N  N  G       !!!           |
|           W WW W  AAAAAA  RRRRR   N  N N  II  N  N N  G  GGG   !            |
|           WW  WW  A    A  R   R   N   NN  II  N   NN  G    G                |
|           W    W  A    A  R    R  N    N  II  N    N   GGGG   !!!           |
|                                                                             |
|     The requested file  could not be found or opened for reading            |
|     k-point information. Automatic k-point generation is used as a          |
|     fallback, which may lead to unwanted results.                           |
|                                                                             |
 -----------------------------------------------------------------------------



Automatic generation of k-mesh.
 Grid dimensions derived from KSPACING:
 generate k-points for:    2    2    2

 Generating k-lattice:

  Cartesian coordinates                     Fractional coordinates (reciprocal lattice)
     0.034409820  0.000000000  0.000000000     0.500000000  0.000000000  0.000000000
     0.000000000  0.034409820  0.000000000     0.000000000  0.500000000  0.000000000
     0.000000000  0.000000000  0.019630789     0.000000000  0.000000000  0.500000000

  Length of vectors
     0.034409820  0.034409820  0.019630789

  Shift w.r.t. Gamma in fractional coordinates (k-lattice)
     0.000000000  0.000000000  0.000000000

 
 Subroutine IBZKPT returns following result:
 ===========================================
 
 Found      8 irreducible k-points:
 
 Following reciprocal coordinates:
            Coordinates               Weight
  0.000000  0.000000  0.000000      1.000000
  0.500000  0.000000  0.000000      1.000000
  0.000000  0.500000  0.000000      1.000000
  0.500000  0.500000  0.000000      1.000000
  0.000000  0.000000  0.500000      1.000000
  0.500000  0.000000  0.500000      1.000000
  0.000000  0.500000  0.500000      1.000000
  0.500000  0.500000  0.500000      1.000000
 
 Following cartesian coordinates:
            Coordinates               Weight
  0.000000  0.000000  0.000000      1.000000
  0.034410  0.000000  0.000000      1.000000
  0.000000  0.034410  0.000000      1.000000
  0.034410  0.034410  0.000000      1.000000
  0.000000  0.000000  0.019631      1.000000
  0.034410  0.000000  0.019631      1.000000
  0.000000  0.034410  0.019631      1.000000
  0.034410  0.034410  0.019631      1.000000
 


--------------------------------------------------------------------------------------------------------




 Dimension of arrays:
   k-points           NKPTS =      8   k-points in BZ     NKDIM =      8   number of bands    NBANDS=    152
   number of dos      NEDOS =   2000   number of ions     NIONS =     61
   non local maximal  LDIM  =      4   non local SUM 2l+1 LMDIM =      8
   total plane-waves  NPLWV = ******
   max r-space proj   IRMAX =      1   max aug-charges    IRDMAX= 404443
   dimension x,y,z NGX =   168 NGY =  168 NGZ =  288
   dimension x,y,z NGXF=   336 NGYF=  336 NGZF=  576
   support grid    NGXF=   672 NGYF=  672 NGZF= 1152
   ions per type =               3  58
   NGX,Y,Z   is equivalent  to a cutoff of  19.22, 19.22, 18.80 a.u.
   NGXF,Y,Z  is equivalent  to a cutoff of  38.44, 38.44, 37.60 a.u.

 SYSTEM =  a-Si SPC                                
 POSCAR =   H Si                                   

 Startparameter for this run:
   NWRITE =      2    write-flag & timer
   PREC   = accura    normal or accurate (medium, high low for compatibility)
   ISTART =      1    job   : 0-new  1-cont  2-samecut
   ICHARG =      1    charge: 1-file 2-atom 10-const
   ISPIN  =      1    spin polarized calculation?
   LNONCOLLINEAR =      F non collinear calculations
   LSORBIT =      F    spin-orbit coupling
   INIWAV =      1    electr: 0-lowe 1-rand  2-diag
   LASPH  =      T    aspherical Exc in radial PAW
 Electronic Relaxation 1
   ENCUT  = 1200.0 eV  88.20 Ry    9.39 a.u.  41.04 41.04 71.94*2*pi/ulx,y,z
   ENINI  = 1200.0     initial cutoff
   ENAUG  =  400.0 eV  augmentation charge cutoff
   NELM   =    150;   NELMIN=  2; NELMDL=  0     # of ELM steps 
   EDIFF  = 0.1E-05   stopping-criterion for ELM
   LREAL  =      F    real-space projection
   NLSPLINE    = F    spline interpolate recip. space projectors
   LCOMPAT=      F    compatible to vasp.4.4
   GGA_COMPAT  = T    GGA compatible to vasp.4.4-vasp.4.6
   LMAXPAW     = -100 max onsite density
   LMAXMIX     =    2 max onsite mixed and CHGCAR
   VOSKOWN=      0    Vosko Wilk Nusair interpolation
   ROPT   =    0.00000   0.00000
 Ionic relaxation
   EDIFFG = -.1E-01   stopping-criterion for IOM
   NSW    =      0    number of steps for IOM
   NBLOCK =      1;   KBLOCK =      1    inner block; outer block 
   IBRION =     -1    ionic relax: 0-MD 1-quasi-New 2-CG
   NFREE  =      0    steps in history (QN), initial steepest desc. (CG)
   ISIF   =      2    stress and relaxation
   IWAVPR =     10    prediction:  0-non 1-charg 2-wave 3-comb
   ISYM   =      1    0-nonsym 1-usesym 2-fastsym
   LCORR  =      T    Harris-Foulkes like correction to forces

   POTIM  = 0.5000    time-step for ionic-motion
   TEIN   =    0.0    initial temperature
   TEBEG  =    0.0;   TEEND  =   0.0 temperature during run
   SMASS  =  -3.00    Nose mass-parameter (am)
   estimated Nose-frequenzy (Omega)   =  0.10E-29 period in steps = 0.13E+47 mass=  -0.483E-26a.u.
   SCALEE = 1.0000    scale energy and forces
   NPACO  =    256;   APACO  = 10.0  distance and # of slots for P.C.
   PSTRESS=    0.0 pullay stress

  Mass of Ions in am
   POMASS =   1.00 28.09
  Ionic Valenz
   ZVAL   =   1.00  4.00
  Atomic Wigner-Seitz radii
   RWIGS  =  -1.00 -1.00
  virtual crystal weights 
   VCA    =   1.00  1.00
   NELECT =     235.0000    total number of electrons
   NUPDOWN=      -1.0000    fix difference up-down

 DOS related values:
   EMIN   =  10.00;   EMAX   =-10.00  energy-range for DOS
   EFERMI =   0.00;   METHOD = LEGACY      
   ISMEAR =     0;   SIGMA  =   0.10  broadening in eV -4-tet -1-fermi 0-gaus
   EFERMI_NEDOS =   21; number of points for ismear=-14 and -15

 Electronic relaxation 2 (details)
   IALGO  =     38    algorithm
   LDIAG  =      F    sub-space diagonalisation (order eigenvalues)
   LSUBROT=      F    optimize rotation matrix (better conditioning)
   TURBO    =      0    0=normal 1=particle mesh
   IRESTART =      0    0=no restart 2=restart with 2 vectors
   NREBOOT  =      0    no. of reboots
   NMIN     =      0    reboot dimension
   EREF     =   0.00    reference energy to select bands
   IMIX   =      4    mixing-type and parameters
     AMIX     =   0.40;   BMIX     =  1.00
     AMIX_MAG =   1.60;   BMIX_MAG =  1.00
     AMIN     =   0.10
     WC   =   100.;   INIMIX=   1;  MIXPRE=   1;  MAXMIX= -45

 Intra band minimization:
   WEIMIN = 0.0000     energy-eigenvalue tresh-hold
   EBREAK =  0.16E-08  absolut break condition
   DEPER  =   0.30     relativ break condition  

   TIME   =   0.40     timestep for ELM

  volume/ion in A,a.u.               =      88.16       594.94
  Fermi-wavevector in a.u.,A,eV,Ry     =   0.576627  1.089667  4.523919  0.332499
  Thomas-Fermi vector in A             =   1.619203

 Write flags
   LWAVE        =      F    write WAVECAR
   LDOWNSAMPLE  =      F    k-point downsampling of WAVECAR
   LCHARG       =      F    write CHGCAR
   LVTOT        =      F    write LOCPOT, total local potential
   LVHAR        =      F    write LOCPOT, Hartree potential only
   WRT_POTENTIAL= false  ! write potential to hdf5 file
   LELF         =      F    write electronic localiz. function (ELF)
   LORBIT       =     11    0 simple, 1 ext, 2 COOP (PROOUT), +10 PAW based schemes


 Python interface
   PLUGINS active      =      F    recompile with -DPLUGINS to activate

 Dipole corrections
   LMONO      =      F    monopole corrections only (constant potential shift)
   LDIPOL     =      F    correct potential (dipole corrections)
   IDIPOL     =      0    1-x, 2-y, 3-z, 4-all directions 
   EPSILON    =  1.0000000 bulk dielectric constant
   LVACPOTAV  =      F  vacuum potentials using an averaging scheme for the charge density
   VACPOTFLAT =  0.1000000 required flatness to determine vacuum potential

Coulomb truncation method
  LTRUNCATE          =      F  Coulomb kernel truncation to be used
  IDIMENSIONALITY    =      3  Dimensionality of cutoff (0 molecules / 2 surfaces)
  ISURFACE           =     -1  Direction of surface normal
  LCOARSEN           =      F  Coarsen the charge grid before padding, preferred


 Exchange correlation treatment:
   METAGGA = SCAN    functional components
   XC_C    = 1    coefficients multiplying the functional components
   LIBXC   =     F    Libxc                    
   VOSKOWN =     0    Vosko Wilk Nusair interpolation
   LHFCALC =     F    Hartree Fock is set to
   LHFONE  =     F    Hartree Fock one center treatment
   AEXX    =    0.0000 exact exchange contribution

 Parameters of functionals:
   SCAN:
     P1 =  0.000000E+00
     P2 =  0.000000E+00
     P3 =  0.000000E+00

 Accuracy and mixing parameters for tau-dependent meta-GGA functionals:
   LMAXTAU = 6
   LMIXTAU = T

 Van der Waals corrections
   IVDW    =     0    specifies the selected vdW correction

 Linear response parameters
   LEPSILON=     F    determine dielectric tensor
   LRPA    =     F    only Hartree local field effects (RPA)
   LNABLA  =     F    use nabla operator in PAW spheres
   LVEL    =     F    velocity operator in full k-point grid
   CSHIFT  =0.1000    complex shift for real part using Kramers Kronig
   OMEGAMAX=  -1.0    maximum frequency
   DEG_THRESHOLD= 0.2000000E-02 threshold for treating states as degnerate
   RTIME   =   -0.100 relaxation time in fs
  (WPLASMAI=    0.000 imaginary part of plasma frequency in eV, 0.658/RTIME)
   DFIELD  = 0.0000000 0.0000000 0.0000000 field for delta impulse in time

  Optional k-point grid parameters
   LKPOINTS_OPT  =     F    use optional k-point grid
   KPOINTS_OPT_MODE=     1    mode for optional k-point grid

 Orbital magnetization related:
   ORBITALMAG=     F  switch on orbital magnetization
   LCHIMAG   =     F  perturbation theory with respect to B field
   DQ        =  0.001000  dq finite difference perturbation B field
   LLRAUG    =     F  two centre corrections for induced B field
   LBONE     =     F  B-component reconstruction in AE one-centre
   LVGVCALC  =     T  calculate vGv susceptibility
   LVGVAPPL  =     F  apply vGv susceptibility instead of pGv for G=0

 Random number generation:
   RANDOM_GENERATOR = DEFAULT
   PCG_SEED         = not used


--------------------------------------------------------------------------------------------------------


 Static calculation
 charge density and potential will be updated during run
 non-spin polarized calculation
 Variant of blocked Davidson
 perform Loewdin sub-space diagonalisation
    ordering is kept fixed
    before iterative eigenvector-optimisation
 modified Broyden-mixing scheme, WC =      100.0
 initial mixing is a Kerker type mixing with AMIX =  0.4000 and BMIX =      1.0000
 Hartree-type preconditioning will be used
 using additional bands           34
 reciprocal scheme for non local part
 use partial core corrections
 calculate Harris-corrections to forces   (improved forces if not selfconsistent)
 use gradient corrections 
 use of overlap-Matrix (Vanderbilt PP)
 Gauss-broadening in eV      SIGMA  =   0.10


--------------------------------------------------------------------------------------------------------


  energy-cutoff  :     1200.00
  volume of cell :     5377.83
      direct lattice vectors                 reciprocal lattice vectors
    14.530735716  0.000000000  0.000000000     0.068819640  0.000000000  0.000000000
     0.000000000 14.530735716  0.000000000     0.000000000  0.068819640  0.000000000
     0.000000000  0.000000000 25.470194000     0.000000000  0.000000000  0.039261578

  length of vectors
    14.530735716 14.530735716 25.470194000     0.068819640  0.068819640  0.039261578



 old parameters found on file WAVECAR:
  energy-cutoff  :     1200.00
  volume of cell :     5377.83
      direct lattice vectors                 reciprocal lattice vectors
    14.530735716  0.000000000  0.000000000     0.068819640  0.000000000  0.000000000
     0.000000000 14.530735716  0.000000000     0.000000000  0.068819640  0.000000000
     0.000000000  0.000000000 25.470194000     0.000000000  0.000000000  0.039261578

  length of vectors


 k-points in units of 2pi/SCALE and weight: read from INCAR                         
   0.00000000  0.00000000  0.00000000       0.125
   0.03440982  0.00000000  0.00000000       0.125
   0.00000000  0.03440982  0.00000000       0.125
   0.03440982  0.03440982  0.00000000       0.125
   0.00000000  0.00000000  0.01963079       0.125
   0.03440982  0.00000000  0.01963079       0.125
   0.00000000  0.03440982  0.01963079       0.125
   0.03440982  0.03440982  0.01963079       0.125

 k-points in reciprocal lattice and weights: read from INCAR                         
   0.00000000  0.00000000  0.00000000       0.125
   0.50000000  0.00000000  0.00000000       0.125
   0.00000000  0.50000000  0.00000000       0.125
   0.50000000  0.50000000  0.00000000       0.125
   0.00000000  0.00000000  0.50000000       0.125
   0.50000000  0.00000000  0.50000000       0.125
   0.00000000  0.50000000  0.50000000       0.125
   0.50000000  0.50000000  0.50000000       0.125

 position of ions in fractional coordinates (direct lattice) 
   0.26877648  0.37206031  0.60738422
   0.68027457  0.94417793  0.47015088
   0.90597615  0.08575478  0.57607312
   0.36113794  0.15536034  0.42838794
   0.01984586  0.48773098  0.46418900
   0.33261151  0.62675491  0.49069881
   0.56741449  0.83716339  0.39489460
   0.11058903  0.71639181  0.54902228
   0.13647210  0.08128356  0.41983854
   0.12465508  0.57198687  0.58659875
   0.75814468  0.28006428  0.57681634
   0.04905395  0.92759240  0.59614599
   0.78199069  0.37478350  0.43682643
   0.01167842  0.25509445  0.49708589
   0.61460756  0.46202891  0.51396640
   0.23637963  0.67230250  0.41848017
   0.76601077  0.40801719  0.52019211
   0.70588305  0.14980590  0.52470994
   0.34357724  0.42392761  0.58155914
   0.57470249  0.09982702  0.56682858
   0.39908784  0.70736955  0.56740298
   0.50100216  0.00884952  0.50331317
   0.03323355  0.32211996  0.57985989
   0.59606686  0.89113175  0.48404280
   0.82459693  0.04273872  0.54269920
   0.71347385  0.64502240  0.42349359
   0.12454978  0.03075199  0.53964819
   0.73517957  0.24644451  0.39261578
   0.41682335  0.31796257  0.52051641
   0.28976922  0.22130056  0.50164141
   0.57458618  0.47350872  0.60482123
   0.90322336  0.86802900  0.44277967
   0.17954494  0.45149675  0.45646233
   0.02247890  0.09804390  0.48013352
   0.45355446  0.60575322  0.42733695
   0.54038145  0.35591935  0.45816589
   0.85550383  0.79984938  0.51732405
   0.24187419  0.51746932  0.53313587
   0.27180454  0.01677940  0.44708195
   0.85288180  0.52999794  0.55876543
   0.33602084  0.85333601  0.58812249
   0.97987468  0.78754443  0.58156934
   0.15828517  0.28836943  0.46926710
   0.93364853  0.37442082  0.41149541
   0.00452254  0.47360025  0.55872814
   0.88128366  0.02491175  0.45611015
   0.18733325  0.90124824  0.49245420
   0.82783833  0.64806698  0.49522489
   0.50452160  0.23737339  0.59147229
   0.09703707  0.71449927  0.45496999
   0.27052243  0.10420808  0.56308224
   0.50573351  0.10209118  0.42614065
   0.07158275  0.86481512  0.43099648
   0.61728602  0.82803791  0.56724044
   0.59296929  0.61103031  0.47939855
   0.96778307  0.62811754  0.44337605
   0.61731079  0.21321701  0.44798104
   0.17373931  0.82922161  0.60664218
   0.57292419  0.68251465  0.56186474
   0.35303443  0.97637864  0.52907975
   0.77085567  0.89623817  0.57099973

 position of ions in cartesian coordinates  (Angst):
   3.90552000  5.40631000 15.47019400
   9.88489000 13.71960000 11.97483400
  13.16450000  1.24608000 14.67269400
   5.24760000  2.25750000 10.91112400
   0.28837500  7.08709000 11.82298400
   4.83309000  9.10721000 12.49819400
   8.24495000 12.16460000 10.05804200
   1.60694000 10.40970000 13.98370400
   1.98304000  1.18111000 10.69336900
   1.81133000  8.31139000 14.94078400
  11.01640000  4.06954000 14.69162400
   0.71279000 13.47860000 15.18395400
  11.36290000  5.44588000 11.12605400
   0.16969600  3.70671000 12.66087400
   8.93070000  6.71362000 13.09082400
   3.43477000  9.76905000 10.65877100
  11.13070000  5.92879000 13.24939400
  10.25700000  2.17679000 13.36446400
   4.99243000  6.15998000 14.81242400
   8.35085000  1.45056000 14.43723400
   5.79904000 10.27860000 14.45186400
   7.27993000  0.12859000 12.81948400
   0.48290800  4.68064000 14.76914400
   8.66129000 12.94880000 12.32866400
  11.98200000  0.62102500 13.82265400
  10.36730000  9.37265000 10.78646400
   1.80980000  0.44684900 13.74494400
  10.68270000  3.58102000 10.00000000
   6.05675000  4.62023000 13.25765400
   4.21056000  3.21566000 12.77690400
   8.34916000  6.88043000 15.40491400
  13.12450000 12.61310000 11.27768400
   2.60892000  6.56058000 11.62618400
   0.32663500  1.42465000 12.22909400
   6.59048000  8.80204000 10.88435500
   7.85214000  5.17177000 11.66957400
  12.43110000 11.62240000 13.17634400
   3.51461000  7.51921000 13.57907400
   3.94952000  0.24381700 11.38726400
  12.39300000  7.70126000 14.23186400
   4.88263000 12.39960000 14.97959400
  14.23830000 11.44360000 14.81268400
   2.30000000  4.19022000 11.95232400
  13.56660000  5.44061000 10.48086800
   0.06571590  6.88176000 14.23091400
  12.80570000  0.36198600 11.61721400
   2.72209000 13.09580000 12.54290400
  12.02910000  9.41689000 12.61347400
   7.33107000  3.44921000 15.06491400
   1.41002000 10.38220000 11.58817400
   3.93089000  1.51422000 14.34181400
   7.34868000  1.48346000 10.85388500
   1.04015000 12.56640000 10.97756400
   8.96962000 12.03200000 14.44772400
   8.61628000  8.87872000 12.21037400
  14.06260000  9.12701000 11.29287400
   8.96998000  3.09820000 11.41016400
   2.52456000 12.04920000 15.45129400
   8.32501000  9.91744000 14.31080400
   5.12985000 14.18750000 13.47576400
  11.20110000 13.02300000 14.54347400



--------------------------------------------------------------------------------------------------------


 k-point     1 :   0.0000 0.0000 0.0000  plane waves:  507559
 k-point     2 :   0.5000 0.0000 0.0000  plane waves:  507578
 k-point     3 :   0.0000 0.5000 0.0000  plane waves:  507578
 k-point     4 :   0.5000 0.5000 0.0000  plane waves:  507572
 k-point     5 :   0.0000 0.0000 0.5000  plane waves:  507368
 k-point     6 :   0.5000 0.0000 0.5000  plane waves:  507796
 k-point     7 :   0.0000 0.5000 0.5000  plane waves:  507796
 k-point     8 :   0.5000 0.5000 0.5000  plane waves:  507736

 maximum and minimum number of plane-waves per node :     31809    31636

 maximum number of plane-waves:    507796
 maximum index in each direction: 
   IXMAX=   41   IYMAX=   41   IZMAX=   71
   IXMIN=  -41   IYMIN=  -41   IZMIN=  -72


 parallel 3D FFT for wavefunctions:
    minimum data exchange during FFTs selected (reduces bandwidth)
 parallel 3D FFT for charge:
    minimum data exchange during FFTs selected (reduces bandwidth)


 total amount of memory used by VASP MPI-rank0   344493. kBytes
=======================================================================

   base                                    :      30000. kBytes
   nonl-proj                               :      63536. kBytes
   fftplans                                :      98003. kBytes
   grid                                    :      75605. kBytes
   one-center                              :         12. kBytes
   wavefun                                 :      77337. kBytes

     INWAV:  cpu time     22.9153: real time     22.9297
 Broyden mixing: mesh for mixing (old mesh)
   NGX = 83   NGY = 83   NGZ =143
  (NGX  =336   NGY  =336   NGZ  =576)
  gives a total of 985127 points

 initial charge density was supplied:
 number of electron     234.9999999 magnetization 
 keeping initial charge density in first step


--------------------------------------------------------------------------------------------------------


 Maximum index for augmentation-charges        11242 (set IRDMAX)


--------------------------------------------------------------------------------------------------------


 First call to EWALD:  gamma=   0.101
 Maximum number of real-space cells   3x   3x   2
 Maximum number of reciprocal cells   2x   2x   4

    FEWALD:  cpu time      0.0127: real time      0.0129


--------------------------------------- Ionic step        1  -------------------------------------------




--------------------------------------- Iteration      1(   1)  ---------------------------------------


    POTLOK:  cpu time      1.8891: real time      1.8901
    SETDIJ:  cpu time      1.2568: real time      1.2576
    EDDIAG:  cpu time     43.5832: real time     43.6053
     EDDAV:  cpu time    190.3935: real time    190.5041
       DOS:  cpu time      0.0086: real time      0.0088
    CHARGE:  cpu time     24.9127: real time     24.9350
    MIXING:  cpu time      0.0446: real time      0.0449
    --------------------------------------------
      LOOP:  cpu time    262.0885: real time    262.2458

 eigenvalue-minimisations  :  2432
 total energy-change (2. order) :-0.5717313E+03  (-0.6747617E+00)
 number of electron     234.9999999 magnetization 
 augmentation part      -13.5274550 magnetization 

 Broyden mixing:
  rms(total) = 0.85854E+00    rms(broyden)= 0.22940E+02
  rms(prec ) = 0.89037E+00
  weight for this iteration     100.00
  WARNING: grid for Broyden might be to small

 Free energy of the ion-electron system (eV)
  ---------------------------------------------------
  alpha Z        PSCENC =        21.64897578
  Ewald energy   TEWEN  =     24884.59349507
  -Hartree energ DENC   =    -30012.01043282
  -exchange      EXHF   =         0.00000000
  -V(xc)+E(xc)   XCENC  =      -292.59827225
  PAW double counting   =     18522.97130168   -17943.72253287
  entropy T*S    EENTRO =        -0.18621474
  eigenvalues    EBANDS =     -1767.76921546
  atomic energy  EATOM  =      6015.34156129
  Solvation  Ediel_sol  =         0.00000000
  ---------------------------------------------------
  free energy    TOTEN  =      -571.73133433 eV

  energy without entropy =     -571.54511959  energy(sigma->0) =     -571.63822696


--------------------------------------------------------------------------------------------------------




--------------------------------------- Iteration      1(   2)  ---------------------------------------


    POTLOK:  cpu time      1.8585: real time      1.8732
    SETDIJ:  cpu time      1.2497: real time      1.2501
    EDDIAG:  cpu time     43.7354: real time     43.7579
     EDDAV:  cpu time    190.8423: real time    190.9534
       DOS:  cpu time      0.0024: real time      0.0024
    CHARGE:  cpu time     24.7916: real time     24.8228
    MIXING:  cpu time      0.0385: real time      0.0386
    --------------------------------------------
      LOOP:  cpu time    262.5185: real time    262.6984

 eigenvalue-minimisations  :  2432
 total energy-change (2. order) : 0.4168155E+02  (-0.6372556E+00)
 number of electron     234.9999999 magnetization 
 augmentation part      -13.4983923 magnetization 

 Broyden mixing:
  rms(total) = 0.58328E+00    rms(broyden)= 0.13189E+02
  rms(prec ) = 0.59920E+00
  weight for this iteration     100.00
  WARNING: grid for Broyden might be to small

 eigenvalues of (default mixing * dielectric matrix)
  average eigenvalue GAMMA=   0.6350
  0.6350

 Free energy of the ion-electron system (eV)
  ---------------------------------------------------
  alpha Z        PSCENC =        21.64897578
  Ewald energy   TEWEN  =     24884.59349507
  -Hartree energ DENC   =    -30002.57864085
  -exchange      EXHF   =         0.00000000
  -V(xc)+E(xc)   XCENC  =      -286.52364945
  PAW double counting   =     22059.98812801   -21480.61005146
  entropy T*S    EENTRO =        -0.17512068
  eigenvalues    EBANDS =     -1741.73447901
  atomic energy  EATOM  =      6015.34156129
  Solvation  Ediel_sol  =         0.00000000
  ---------------------------------------------------
  free energy    TOTEN  =      -530.04978129 eV

  energy without entropy =     -529.87466062  energy(sigma->0) =     -529.96222096


--------------------------------------------------------------------------------------------------------




--------------------------------------- Iteration      1(   3)  ---------------------------------------


    POTLOK:  cpu time      1.8728: real time      1.8906
    SETDIJ:  cpu time      1.2507: real time      1.2512
    EDDIAG:  cpu time     43.8256: real time     43.8478
     EDDAV:  cpu time    190.9317: real time    191.0427
       DOS:  cpu time      0.0029: real time      0.0029
    CHARGE:  cpu time     24.8285: real time     24.8522
    MIXING:  cpu time      0.0354: real time      0.0354
    --------------------------------------------
      LOOP:  cpu time    262.7476: real time    262.9228

 eigenvalue-minimisations  :  2432
 total energy-change (2. order) :-0.1769598E+01  (-0.5330753E+00)
 number of electron     234.9999999 magnetization 
 augmentation part      -13.4536058 magnetization 

 Broyden mixing:
  rms(total) = 0.26579E+00    rms(broyden)= 0.17161E+02
  rms(prec ) = 0.31832E+00
  weight for this iteration     100.00
  WARNING: grid for Broyden might be to small

 eigenvalues of (default mixing * dielectric matrix)
  average eigenvalue GAMMA=   0.7626
  0.8975  0.6277

 Free energy of the ion-electron system (eV)
  ---------------------------------------------------
  alpha Z        PSCENC =        21.64897578
  Ewald energy   TEWEN  =     24884.59349507
  -Hartree energ DENC   =    -30002.45431384
  -exchange      EXHF   =         0.00000000
  -V(xc)+E(xc)   XCENC  =      -288.16368701
  PAW double counting   =     25973.13555073   -25393.86472049
  entropy T*S    EENTRO =        -0.18083506
  eigenvalues    EBANDS =     -1741.87540531
  atomic energy  EATOM  =      6015.34156129
  Solvation  Ediel_sol  =         0.00000000
  ---------------------------------------------------
  free energy    TOTEN  =      -531.81937882 eV

  energy without entropy =     -531.63854376  energy(sigma->0) =     -531.72896129


--------------------------------------------------------------------------------------------------------




--------------------------------------- Iteration      1(   4)  ---------------------------------------


    POTLOK:  cpu time      1.8765: real time      1.8778
    SETDIJ:  cpu time      1.2558: real time      1.2565
    EDDIAG:  cpu time     43.7530: real time     43.7797
     EDDAV:  cpu time    195.8268: real time    195.9365
       DOS:  cpu time      0.0039: real time      0.0039
    CHARGE:  cpu time     24.8392: real time     24.8634
    MIXING:  cpu time      0.0364: real time      0.0364
    --------------------------------------------
      LOOP:  cpu time    267.5916: real time    267.7541

 eigenvalue-minimisations  :  2544
 total energy-change (2. order) : 0.1876576E+00  (-0.5653201E-01)
 number of electron     234.9999999 magnetization 
 augmentation part      -13.4487583 magnetization 

 Broyden mixing:
  rms(total) = 0.39990E-01    rms(broyden)= 0.16472E+01
  rms(prec ) = 0.46455E-01
  weight for this iteration     100.00
  WARNING: grid for Broyden might be to small

 eigenvalues of (default mixing * dielectric matrix)
  average eigenvalue GAMMA=   1.1561
  2.1257  0.7196  0.6229

 Free energy of the ion-electron system (eV)
  ---------------------------------------------------
  alpha Z        PSCENC =        21.64897578
  Ewald energy   TEWEN  =     24884.59349507
  -Hartree energ DENC   =    -30002.41735521
  -exchange      EXHF   =         0.00000000
  -V(xc)+E(xc)   XCENC  =      -288.59517878
  PAW double counting   =     29530.78746408   -28951.57750949
  entropy T*S    EENTRO =        -0.17781683
  eigenvalues    EBANDS =     -1741.23535710
  atomic energy  EATOM  =      6015.34156129
  Solvation  Ediel_sol  =         0.00000000
  ---------------------------------------------------
  free energy    TOTEN  =      -531.63172118 eV

  energy without entropy =     -531.45390435  energy(sigma->0) =     -531.54281277


--------------------------------------------------------------------------------------------------------




--------------------------------------- Iteration      1(   5)  ---------------------------------------


    POTLOK:  cpu time      1.8570: real time      1.8753
    SETDIJ:  cpu time      1.2566: real time      1.2573
    EDDIAG:  cpu time     43.7987: real time     43.8247
     EDDAV:  cpu time    217.1528: real time    217.2963
       DOS:  cpu time      0.0027: real time      0.0027
    CHARGE:  cpu time     24.8344: real time     24.8598
    MIXING:  cpu time      0.0361: real time      0.0361
    --------------------------------------------
      LOOP:  cpu time    288.9383: real time    289.1523

 eigenvalue-minimisations  :  3040
 total energy-change (2. order) :-0.2448121E-01  (-0.5259951E-02)
 number of electron     234.9999999 magnetization 
 augmentation part      -13.4496399 magnetization 

 Broyden mixing:
  rms(total) = 0.26420E-01    rms(broyden)= 0.24609E+00
  rms(prec ) = 0.29348E-01
  weight for this iteration     100.00
  WARNING: grid for Broyden might be to small

 eigenvalues of (default mixing * dielectric matrix)
  average eigenvalue GAMMA=   1.1743
  2.5534  0.8782  0.6327  0.6327

 Free energy of the ion-electron system (eV)
  ---------------------------------------------------
  alpha Z        PSCENC =        21.64897578
  Ewald energy   TEWEN  =     24884.59349507
  -Hartree energ DENC   =    -30002.55434831
  -exchange      EXHF   =         0.00000000
  -V(xc)+E(xc)   XCENC  =      -289.27510954
  PAW double counting   =     29204.24160009   -28625.01331394
  entropy T*S    EENTRO =        -0.17912728
  eigenvalues    EBANDS =     -1740.45993555
  atomic energy  EATOM  =      6015.34156129
  Solvation  Ediel_sol  =         0.00000000
  ---------------------------------------------------
  free energy    TOTEN  =      -531.65620239 eV

  energy without entropy =     -531.47707511  energy(sigma->0) =     -531.56663875


--------------------------------------------------------------------------------------------------------




--------------------------------------- Iteration      1(   6)  ---------------------------------------


    POTLOK:  cpu time      1.8595: real time      1.8769
    SETDIJ:  cpu time      1.2561: real time      1.2568
    EDDIAG:  cpu time     43.7684: real time     43.7941
     EDDAV:  cpu time    206.0539: real time    206.1700
       DOS:  cpu time      0.0043: real time      0.0043
    CHARGE:  cpu time     24.7768: real time     24.8011
    MIXING:  cpu time      0.0370: real time      0.0370
    --------------------------------------------
      LOOP:  cpu time    277.7559: real time    277.9402

 eigenvalue-minimisations  :  2784
 total energy-change (2. order) :-0.2986285E-02  (-0.9405031E-03)
 number of electron     234.9999999 magnetization 
 augmentation part      -13.4496489 magnetization 

 Broyden mixing:
  rms(total) = 0.18235E-01    rms(broyden)= 0.17767E+00
  rms(prec ) = 0.20655E-01
  weight for this iteration     100.00
  WARNING: grid for Broyden might be to small

 eigenvalues of (default mixing * dielectric matrix)
  average eigenvalue GAMMA=   1.1347
  2.5846  1.0796  0.7598  0.6247  0.6247

 Free energy of the ion-electron system (eV)
  ---------------------------------------------------
  alpha Z        PSCENC =        21.64897578
  Ewald energy   TEWEN  =     24884.59349507
  -Hartree energ DENC   =    -30002.37299638
  -exchange      EXHF   =         0.00000000
  -V(xc)+E(xc)   XCENC  =      -289.36500724
  PAW double counting   =     29163.63895442   -28584.40341215
  entropy T*S    EENTRO =        -0.17714465
  eigenvalues    EBANDS =     -1740.56361481
  atomic energy  EATOM  =      6015.34156129
  Solvation  Ediel_sol  =         0.00000000
  ---------------------------------------------------
  free energy    TOTEN  =      -531.65918867 eV

  energy without entropy =     -531.48204402  energy(sigma->0) =     -531.57061635


--------------------------------------------------------------------------------------------------------




--------------------------------------- Iteration      1(   7)  ---------------------------------------


    POTLOK:  cpu time      1.8521: real time      1.8704
    SETDIJ:  cpu time      1.2551: real time      1.2559
    EDDIAG:  cpu time     43.8050: real time     43.8299
     EDDAV:  cpu time    196.4939: real time    196.6028
       DOS:  cpu time      0.0039: real time      0.0039
    CHARGE:  cpu time     24.8593: real time     24.8834
    MIXING:  cpu time      0.0383: real time      0.0383
    --------------------------------------------
      LOOP:  cpu time    268.3075: real time    268.4845

 eigenvalue-minimisations  :  2560
 total energy-change (2. order) :-0.9344601E-03  (-0.4789311E-03)
 number of electron     234.9999999 magnetization 
 augmentation part      -13.4477988 magnetization 

 Broyden mixing:
  rms(total) = 0.68740E-02    rms(broyden)= 0.79253E-01
  rms(prec ) = 0.84936E-02
  weight for this iteration     100.00
  WARNING: grid for Broyden might be to small

 eigenvalues of (default mixing * dielectric matrix)
  average eigenvalue GAMMA=   1.1126
  2.5794  1.4237  0.8220  0.6451  0.6250  0.5801

 Free energy of the ion-electron system (eV)
  ---------------------------------------------------
  alpha Z        PSCENC =        21.64897578
  Ewald energy   TEWEN  =     24884.59349507
  -Hartree energ DENC   =    -30002.31034030
  -exchange      EXHF   =         0.00000000
  -V(xc)+E(xc)   XCENC  =      -289.27398350
  PAW double counting   =     29169.30656013   -28590.06503505
  entropy T*S    EENTRO =        -0.17874618
  eigenvalues    EBANDS =     -1740.72261037
  atomic energy  EATOM  =      6015.34156129
  Solvation  Ediel_sol  =         0.00000000
  ---------------------------------------------------
  free energy    TOTEN  =      -531.66012313 eV

  energy without entropy =     -531.48137695  energy(sigma->0) =     -531.57075004


--------------------------------------------------------------------------------------------------------




--------------------------------------- Iteration      1(   8)  ---------------------------------------


    POTLOK:  cpu time      1.8544: real time      1.8756
    SETDIJ:  cpu time      1.2580: real time      1.2586
    EDDIAG:  cpu time     43.8654: real time     43.8902
     EDDAV:  cpu time    199.2047: real time    199.3239
       DOS:  cpu time      0.0029: real time      0.0029
    CHARGE:  cpu time     24.8580: real time     24.8812
    MIXING:  cpu time      0.0376: real time      0.0384
    --------------------------------------------
      LOOP:  cpu time    271.0809: real time    271.2708

 eigenvalue-minimisations  :  2624
 total energy-change (2. order) :-0.2272428E-03  (-0.1595393E-03)
 number of electron     234.9999999 magnetization 
 augmentation part      -13.4478688 magnetization 

 Broyden mixing:
  rms(total) = 0.20556E-02    rms(broyden)= 0.58859E-01
  rms(prec ) = 0.25499E-02
  weight for this iteration     100.00
  WARNING: grid for Broyden might be to small

 eigenvalues of (default mixing * dielectric matrix)
  average eigenvalue GAMMA=   1.1961
  2.6225  2.1981  1.0276  0.7706  0.6441  0.6281  0.4817

 Free energy of the ion-electron system (eV)
  ---------------------------------------------------
  alpha Z        PSCENC =        21.64897578
  Ewald energy   TEWEN  =     24884.59349507
  -Hartree energ DENC   =    -30001.99338670
  -exchange      EXHF   =         0.00000000
  -V(xc)+E(xc)   XCENC  =      -289.25590153
  PAW double counting   =     29191.95974491   -28612.71468115
  entropy T*S    EENTRO =        -0.17815587
  eigenvalues    EBANDS =     -1741.06200218
  atomic energy  EATOM  =      6015.34156129
  Solvation  Ediel_sol  =         0.00000000
  ---------------------------------------------------
  free energy    TOTEN  =      -531.66035038 eV

  energy without entropy =     -531.48219451  energy(sigma->0) =     -531.57127244


--------------------------------------------------------------------------------------------------------




--------------------------------------- Iteration      1(   9)  ---------------------------------------


    POTLOK:  cpu time      1.8536: real time      1.8716
    SETDIJ:  cpu time      1.2565: real time      1.2572
    EDDIAG:  cpu time     43.8417: real time     43.8642
     EDDAV:  cpu time    199.3612: real time    199.4815
       DOS:  cpu time      0.0029: real time      0.0029
    CHARGE:  cpu time     24.8533: real time     24.8756
    MIXING:  cpu time      0.0388: real time      0.0388
    --------------------------------------------
      LOOP:  cpu time    271.2080: real time    271.3920

 eigenvalue-minimisations  :  2624
 total energy-change (2. order) :-0.3161758E-04  (-0.4295589E-04)
 number of electron     234.9999999 magnetization 
 augmentation part      -13.4481059 magnetization 

 Broyden mixing:
  rms(total) = 0.14336E-02    rms(broyden)= 0.32125E-01
  rms(prec ) = 0.18203E-02
  weight for this iteration     100.00
  WARNING: grid for Broyden might be to small

 eigenvalues of (default mixing * dielectric matrix)
  average eigenvalue GAMMA=   1.3293
  3.5967  2.5737  1.1454  0.8937  0.4620  0.7061  0.6283  0.6283

 Free energy of the ion-electron system (eV)
  ---------------------------------------------------
  alpha Z        PSCENC =        21.64897578
  Ewald energy   TEWEN  =     24884.59349507
  -Hartree energ DENC   =    -30001.81272208
  -exchange      EXHF   =         0.00000000
  -V(xc)+E(xc)   XCENC  =      -289.28369934
  PAW double counting   =     29194.95901308   -28615.71333691
  entropy T*S    EENTRO =        -0.17813299
  eigenvalues    EBANDS =     -1741.21553590
  atomic energy  EATOM  =      6015.34156129
  Solvation  Ediel_sol  =         0.00000000
  ---------------------------------------------------
  free energy    TOTEN  =      -531.66038200 eV

  energy without entropy =     -531.48224901  energy(sigma->0) =     -531.57131550


--------------------------------------------------------------------------------------------------------




--------------------------------------- Iteration      1(  10)  ---------------------------------------


    POTLOK:  cpu time      1.8562: real time      1.8751
    SETDIJ:  cpu time      1.2545: real time      1.2552
    EDDIAG:  cpu time     43.8021: real time     43.8265
     EDDAV:  cpu time    196.8943: real time    197.0133
       DOS:  cpu time      0.0035: real time      0.0035
    CHARGE:  cpu time     24.8730: real time     24.8957
    MIXING:  cpu time      0.0398: real time      0.0399
    --------------------------------------------
      LOOP:  cpu time    268.7232: real time    268.9091

 eigenvalue-minimisations  :  2568
 total energy-change (2. order) :-0.1253675E-03  (-0.2293580E-04)
 number of electron     234.9999999 magnetization 
 augmentation part      -13.4481607 magnetization 

 Broyden mixing:
  rms(total) = 0.80843E-03    rms(broyden)= 0.23065E-01
  rms(prec ) = 0.11236E-02
  weight for this iteration     100.00
  WARNING: grid for Broyden might be to small

 eigenvalues of (default mixing * dielectric matrix)
  average eigenvalue GAMMA=   1.4409
  4.5917  2.5932  1.5275  1.0324  0.8352  0.4656  0.6878  0.6176  0.6176

 Free energy of the ion-electron system (eV)
  ---------------------------------------------------
  alpha Z        PSCENC =        21.64897578
  Ewald energy   TEWEN  =     24884.59349507
  -Hartree energ DENC   =    -30001.59937822
  -exchange      EXHF   =         0.00000000
  -V(xc)+E(xc)   XCENC  =      -289.29216160
  PAW double counting   =     29193.68986949   -28614.44347421
  entropy T*S    EENTRO =        -0.17815903
  eigenvalues    EBANDS =     -1741.42123593
  atomic energy  EATOM  =      6015.34156129
  Solvation  Ediel_sol  =         0.00000000
  ---------------------------------------------------
  free energy    TOTEN  =      -531.66050736 eV

  energy without entropy =     -531.48234833  energy(sigma->0) =     -531.57142785


--------------------------------------------------------------------------------------------------------




--------------------------------------- Iteration      1(  11)  ---------------------------------------


    POTLOK:  cpu time      1.8542: real time      1.8756
    SETDIJ:  cpu time      1.2504: real time      1.2511
    EDDIAG:  cpu time     43.8773: real time     43.9024
     EDDAV:  cpu time    196.5928: real time    196.7085
       DOS:  cpu time      0.0035: real time      0.0035
    CHARGE:  cpu time     24.8998: real time     24.9238
    MIXING:  cpu time      0.0396: real time      0.0405
    --------------------------------------------
      LOOP:  cpu time    268.5176: real time    268.7054

 eigenvalue-minimisations  :  2560
 total energy-change (2. order) :-0.1824258E-03  (-0.2038672E-04)
 number of electron     234.9999999 magnetization 
 augmentation part      -13.4482317 magnetization 

 Broyden mixing:
  rms(total) = 0.40677E-03    rms(broyden)= 0.18071E-01
  rms(prec ) = 0.68865E-03
  weight for this iteration     100.00
  WARNING: grid for Broyden might be to small

 eigenvalues of (default mixing * dielectric matrix)
  average eigenvalue GAMMA=   1.7192
  7.0828  2.6121  2.4115  1.0540  0.9978  0.7243  0.4700  0.6501  0.6194  0.5704

 Free energy of the ion-electron system (eV)
  ---------------------------------------------------
  alpha Z        PSCENC =        21.64897578
  Ewald energy   TEWEN  =     24884.59349507
  -Hartree energ DENC   =    -30001.36650681
  -exchange      EXHF   =         0.00000000
  -V(xc)+E(xc)   XCENC  =      -289.29941864
  PAW double counting   =     29191.65305687   -28612.40623563
  entropy T*S    EENTRO =        -0.17816517
  eigenvalues    EBANDS =     -1741.64745256
  atomic energy  EATOM  =      6015.34156129
  Solvation  Ediel_sol  =         0.00000000
  ---------------------------------------------------
  free energy    TOTEN  =      -531.66068979 eV

  energy without entropy =     -531.48252462  energy(sigma->0) =     -531.57160720


--------------------------------------------------------------------------------------------------------




--------------------------------------- Iteration      1(  12)  ---------------------------------------


    POTLOK:  cpu time      1.8558: real time      1.8748
    SETDIJ:  cpu time      1.2583: real time      1.2590
    EDDIAG:  cpu time     43.8754: real time     43.8999
     EDDAV:  cpu time    196.4501: real time    196.5609
       DOS:  cpu time      0.0043: real time      0.0043
    CHARGE:  cpu time     24.8898: real time     24.9134
    MIXING:  cpu time      0.0408: real time      0.0408
    --------------------------------------------
      LOOP:  cpu time    268.3746: real time    268.5532

 eigenvalue-minimisations  :  2560
 total energy-change (2. order) :-0.1700220E-03  (-0.1640481E-04)
 number of electron     234.9999999 magnetization 
 augmentation part      -13.4482952 magnetization 

 Broyden mixing:
  rms(total) = 0.27527E-03    rms(broyden)= 0.14873E-01
  rms(prec ) = 0.50051E-03
  weight for this iteration     100.00
  WARNING: grid for Broyden might be to small

 eigenvalues of (default mixing * dielectric matrix)
  average eigenvalue GAMMA=   1.8365
  8.8921  2.6535  2.6535  1.0981  0.9505  0.9505  0.7190  0.4695  0.6414  0.6186
  0.5551

 Free energy of the ion-electron system (eV)
  ---------------------------------------------------
  alpha Z        PSCENC =        21.64897578
  Ewald energy   TEWEN  =     24884.59349507
  -Hartree energ DENC   =    -30001.20146050
  -exchange      EXHF   =         0.00000000
  -V(xc)+E(xc)   XCENC  =      -289.30499456
  PAW double counting   =     29192.66408397   -28613.41741377
  entropy T*S    EENTRO =        -0.17815747
  eigenvalues    EBANDS =     -1741.80694962
  atomic energy  EATOM  =      6015.34156129
  Solvation  Ediel_sol  =         0.00000000
  ---------------------------------------------------
  free energy    TOTEN  =      -531.66085981 eV

  energy without entropy =     -531.48270234  energy(sigma->0) =     -531.57178108


--------------------------------------------------------------------------------------------------------




--------------------------------------- Iteration      1(  13)  ---------------------------------------


    POTLOK:  cpu time      1.8530: real time      1.8725
    SETDIJ:  cpu time      1.2593: real time      1.2600
    EDDIAG:  cpu time     43.8588: real time     43.8821
     EDDAV:  cpu time    196.0156: real time    196.1218
       DOS:  cpu time      0.0030: real time      0.0030
    CHARGE:  cpu time     24.8404: real time     24.8626
    MIXING:  cpu time      0.0414: real time      0.0414
    --------------------------------------------
      LOOP:  cpu time    267.8714: real time    268.0433

 eigenvalue-minimisations  :  2544
 total energy-change (2. order) :-0.1598800E-03  (-0.1981352E-04)
 number of electron     234.9999999 magnetization 
 augmentation part      -13.4483627 magnetization 

 Broyden mixing:
  rms(total) = 0.17311E-03    rms(broyden)= 0.11532E-01
  rms(prec ) = 0.33353E-03
  weight for this iteration     100.00
  WARNING: grid for Broyden might be to small

 eigenvalues of (default mixing * dielectric matrix)
  average eigenvalue GAMMA=   1.8633
  9.6868  2.7480  2.7480  1.4138  1.0842  0.9414  0.7591  0.4698  0.6772  0.6425
  0.6189  0.5704

 Free energy of the ion-electron system (eV)
  ---------------------------------------------------
  alpha Z        PSCENC =        21.64897578
  Ewald energy   TEWEN  =     24884.59349507
  -Hartree energ DENC   =    -30001.00086718
  -exchange      EXHF   =         0.00000000
  -V(xc)+E(xc)   XCENC  =      -289.31082848
  PAW double counting   =     29193.06747361   -28613.82116594
  entropy T*S    EENTRO =        -0.17814594
  eigenvalues    EBANDS =     -1742.00151791
  atomic energy  EATOM  =      6015.34156129
  Solvation  Ediel_sol  =         0.00000000
  ---------------------------------------------------
  free energy    TOTEN  =      -531.66101969 eV

  energy without entropy =     -531.48287375  energy(sigma->0) =     -531.57194672


--------------------------------------------------------------------------------------------------------




--------------------------------------- Iteration      1(  14)  ---------------------------------------


    POTLOK:  cpu time      1.8750: real time      1.8766
    SETDIJ:  cpu time      1.2560: real time      1.2571
    EDDIAG:  cpu time     43.9105: real time     43.9362
     EDDAV:  cpu time    195.9383: real time    196.0440
       DOS:  cpu time      0.0035: real time      0.0035
    CHARGE:  cpu time     24.8985: real time     24.9203
    MIXING:  cpu time      0.0631: real time      0.0641
    --------------------------------------------
      LOOP:  cpu time    267.9449: real time    268.1019

 eigenvalue-minimisations  :  2544
 total energy-change (2. order) :-0.1343070E-03  (-0.1069317E-04)
 number of electron     234.9999999 magnetization 
 augmentation part      -13.4483948 magnetization 

 Broyden mixing:
  rms(total) = 0.13309E-03    rms(broyden)= 0.79460E-02
  rms(prec ) = 0.22882E-03
  weight for this iteration     100.00
  WARNING: grid for Broyden might be to small

 eigenvalues of (default mixing * dielectric matrix)
  average eigenvalue GAMMA=   1.8689
  9.9248  2.9530  2.7083  1.9329  1.1540  1.0108  0.9017  0.7595  0.4707  0.6648
  0.6334  0.6139  0.5682

 Free energy of the ion-electron system (eV)
  ---------------------------------------------------
  alpha Z        PSCENC =        21.64897578
  Ewald energy   TEWEN  =     24884.59349507
  -Hartree energ DENC   =    -30000.85255094
  -exchange      EXHF   =         0.00000000
  -V(xc)+E(xc)   XCENC  =      -289.31249924
  PAW double counting   =     29192.92177351   -28613.67568520
  entropy T*S    EENTRO =        -0.17815743
  eigenvalues    EBANDS =     -1742.14806683
  atomic energy  EATOM  =      6015.34156129
  Solvation  Ediel_sol  =         0.00000000
  ---------------------------------------------------
  free energy    TOTEN  =      -531.66115400 eV

  energy without entropy =     -531.48299657  energy(sigma->0) =     -531.57207528


--------------------------------------------------------------------------------------------------------




--------------------------------------- Iteration      1(  15)  ---------------------------------------


    POTLOK:  cpu time      1.8742: real time      1.8915
    SETDIJ:  cpu time      1.2610: real time      1.2628
    EDDIAG:  cpu time     43.8627: real time     43.8872
     EDDAV:  cpu time    195.2532: real time    195.3667
       DOS:  cpu time      0.0114: real time      0.0121
    CHARGE:  cpu time     24.8376: real time     24.8612
    MIXING:  cpu time      0.0435: real time      0.0435
    --------------------------------------------
      LOOP:  cpu time    267.1437: real time    267.3250

 eigenvalue-minimisations  :  2528
 total energy-change (2. order) :-0.6637708E-04  (-0.4798788E-05)
 number of electron     234.9999999 magnetization 
 augmentation part      -13.4484221 magnetization 

 Broyden mixing:
  rms(total) = 0.91891E-04    rms(broyden)= 0.50250E-02
  rms(prec ) = 0.14852E-03
  weight for this iteration     100.00
  WARNING: grid for Broyden might be to small

 eigenvalues of (default mixing * dielectric matrix)
  average eigenvalue GAMMA=   1.8406
  9.9838  3.1551  2.6603  2.2427  1.2187  1.0752  0.9463  0.8184  0.4709  0.7404
  0.6553  0.5595  0.6249  0.6163

 Free energy of the ion-electron system (eV)
  ---------------------------------------------------
  alpha Z        PSCENC =        21.64897578
  Ewald energy   TEWEN  =     24884.59349507
  -Hartree energ DENC   =    -30000.75240357
  -exchange      EXHF   =         0.00000000
  -V(xc)+E(xc)   XCENC  =      -289.31387074
  PAW double counting   =     29192.90230571   -28613.65632776
  entropy T*S    EENTRO =        -0.17815493
  eigenvalues    EBANDS =     -1742.24680123
  atomic energy  EATOM  =      6015.34156129
  Solvation  Ediel_sol  =         0.00000000
  ---------------------------------------------------
  free energy    TOTEN  =      -531.66122037 eV

  energy without entropy =     -531.48306544  energy(sigma->0) =     -531.57214291


--------------------------------------------------------------------------------------------------------




--------------------------------------- Iteration      1(  16)  ---------------------------------------


    POTLOK:  cpu time      1.8796: real time      1.8984
    SETDIJ:  cpu time      1.2537: real time      1.2546
    EDDIAG:  cpu time     43.8327: real time     43.8560
     EDDAV:  cpu time    195.8819: real time    195.9916
       DOS:  cpu time      0.0029: real time      0.0119
    CHARGE:  cpu time     24.8799: real time     24.9030
    MIXING:  cpu time      0.0436: real time      0.0445
    --------------------------------------------
      LOOP:  cpu time    267.7744: real time    267.9601

 eigenvalue-minimisations  :  2544
 total energy-change (2. order) :-0.3253983E-04  (-0.2424907E-05)
 number of electron     234.9999999 magnetization 
 augmentation part      -13.4484404 magnetization 

 Broyden mixing:
  rms(total) = 0.56964E-04    rms(broyden)= 0.31985E-02
  rms(prec ) = 0.90557E-04
  weight for this iteration     100.00
  WARNING: grid for Broyden might be to small

 eigenvalues of (default mixing * dielectric matrix)
  average eigenvalue GAMMA=   1.8011
  9.9976  3.2859  2.6465  2.4144  1.2134  1.2134  0.9429  0.9429  0.7885  0.4710
  0.7080  0.6310  0.6190  0.5553  0.5862

 Free energy of the ion-electron system (eV)
  ---------------------------------------------------
  alpha Z        PSCENC =        21.64897578
  Ewald energy   TEWEN  =     24884.59349507
  -Hartree energ DENC   =    -30000.68520094
  -exchange      EXHF   =         0.00000000
  -V(xc)+E(xc)   XCENC  =      -289.31443171
  PAW double counting   =     29192.98295320   -28613.73701809
  entropy T*S    EENTRO =        -0.17815504
  eigenvalues    EBANDS =     -1742.31343247
  atomic energy  EATOM  =      6015.34156129
  Solvation  Ediel_sol  =         0.00000000
  ---------------------------------------------------
  free energy    TOTEN  =      -531.66125291 eV

  energy without entropy =     -531.48309787  energy(sigma->0) =     -531.57217539


--------------------------------------------------------------------------------------------------------




--------------------------------------- Iteration      1(  17)  ---------------------------------------


    POTLOK:  cpu time      1.8595: real time      1.8744
    SETDIJ:  cpu time      1.2513: real time      1.2521
    EDDIAG:  cpu time     43.8206: real time     43.8450
     EDDAV:  cpu time    181.0693: real time    181.1752
       DOS:  cpu time      0.0045: real time      0.0045
    CHARGE:  cpu time     24.8945: real time     24.9185
    MIXING:  cpu time      0.0444: real time      0.0444
    --------------------------------------------
      LOOP:  cpu time    252.9440: real time    253.1140

 eigenvalue-minimisations  :  2192
 total energy-change (2. order) :-0.8829855E-05  (-0.4966271E-06)
 number of electron     234.9999999 magnetization 
 augmentation part      -13.4484476 magnetization 

 Broyden mixing:
  rms(total) = 0.38991E-04    rms(broyden)= 0.22672E-02
  rms(prec ) = 0.61547E-04
  weight for this iteration     100.00
  WARNING: grid for Broyden might be to small

 eigenvalues of (default mixing * dielectric matrix)
  average eigenvalue GAMMA=   1.7875
 10.0043  3.5181  2.6350  2.6350  1.6119  1.2506  0.9761  0.9761  0.7558  0.7558
  0.4710  0.6717  0.6304  0.6174  0.5545  0.5365

 Free energy of the ion-electron system (eV)
  ---------------------------------------------------
  alpha Z        PSCENC =        21.64897578
  Ewald energy   TEWEN  =     24884.59349507
  -Hartree energ DENC   =    -30000.66117884
  -exchange      EXHF   =         0.00000000
  -V(xc)+E(xc)   XCENC  =      -289.31466280
  PAW double counting   =     29192.98268749   -28613.73674574
  entropy T*S    EENTRO =        -0.17815426
  eigenvalues    EBANDS =     -1742.33723973
  atomic energy  EATOM  =      6015.34156129
  Solvation  Ediel_sol  =         0.00000000
  ---------------------------------------------------
  free energy    TOTEN  =      -531.66126174 eV

  energy without entropy =     -531.48310748  energy(sigma->0) =     -531.57218461


--------------------------------------------------------------------------------------------------------




--------------------------------------- Iteration      1(  18)  ---------------------------------------


    POTLOK:  cpu time      1.8602: real time      1.8791
    SETDIJ:  cpu time      1.2454: real time      1.2462
    EDDIAG:  cpu time     43.9203: real time     43.9443
     EDDAV:  cpu time    164.4137: real time    164.5090
       DOS:  cpu time      0.0031: real time      0.0031
    CHARGE:  cpu time     24.8150: real time     24.8360
    MIXING:  cpu time      0.0459: real time      0.0459
    --------------------------------------------
      LOOP:  cpu time    236.3035: real time    236.4636

 eigenvalue-minimisations  :  1808
 total energy-change (2. order) :-0.1992190E-05  (-0.2051365E-06)
 number of electron     234.9999999 magnetization 
 augmentation part      -13.4484497 magnetization 

 Broyden mixing:
  rms(total) = 0.22284E-04    rms(broyden)= 0.14656E-02
  rms(prec ) = 0.36203E-04
  weight for this iteration     100.00
  WARNING: grid for Broyden might be to small

 eigenvalues of (default mixing * dielectric matrix)
  average eigenvalue GAMMA=   1.7823
 10.0075  3.7002  2.6820  2.6820  1.9180  1.2921  1.0649  1.0649  0.8927  0.8026
  0.7212  0.4710  0.6502  0.6230  0.6230  0.5520  0.5520

 Free energy of the ion-electron system (eV)
  ---------------------------------------------------
  alpha Z        PSCENC =        21.64897578
  Ewald energy   TEWEN  =     24884.59349507
  -Hartree energ DENC   =    -30000.64926803
  -exchange      EXHF   =         0.00000000
  -V(xc)+E(xc)   XCENC  =      -289.31481411
  PAW double counting   =     29192.89114357   -28613.64516787
  entropy T*S    EENTRO =        -0.17815585
  eigenvalues    EBANDS =     -1742.34903358
  atomic energy  EATOM  =      6015.34156129
  Solvation  Ediel_sol  =         0.00000000
  ---------------------------------------------------
  free energy    TOTEN  =      -531.66126374 eV

  energy without entropy =     -531.48310788  energy(sigma->0) =     -531.57218581


[...]
  Local  -61183.84838-61067.80887 58943.40060  -200.80348   -16.20152     3.36757
  n-local  2222.74786  2213.35709  2163.70757     5.51626     5.81415   -10.35889
  augment  -331.80103  -330.83526  -327.32997    -0.47055    -0.96034     0.87276
  Kinetic  1574.87521  1582.61688  1611.10696    -3.79619     3.97313     0.32966
  Fock        0.00000     0.00000     0.00000     0.00000     0.00000     0.00000
  -------------------------------------------------------------------------------------
  Total     -23.69005   -17.43757   -18.54706    -1.00037    -0.42382    -8.20215
  in kB      -7.05780    -5.19504    -5.52558    -0.29803    -0.12626    -2.44360
  external pressure =       -5.93 kB  Pullay stress =        0.00 kB


 VOLUME and BASIS-vectors are now :
 -----------------------------------------------------------------------------
  energy-cutoff  :     1200.00
  volume of cell :     5377.83
      direct lattice vectors                 reciprocal lattice vectors
    14.530735716  0.000000000  0.000000000     0.068819640  0.000000000  0.000000000
     0.000000000 14.530735716  0.000000000     0.000000000  0.068819640  0.000000000
     0.000000000  0.000000000 25.470194000     0.000000000  0.000000000  0.039261578

  length of vectors
    14.530735716 14.530735716 25.470194000     0.068819640  0.068819640  0.039261578


 FORCES acting on ions
    electron-ion (+dipol)            ewald-force                    non-local-force                 convergence-correction
 -----------------------------------------------------------------------------------------------
   0.141E+02 0.127E+02 -.658E+02   -.165E+02 -.147E+02 0.676E+02   0.234E+01 0.153E+01 -.134E+01   -.340E-05 -.218E-05 0.130E-04
   -.155E+02 -.779E+01 0.320E+02   0.182E+02 0.957E+01 -.329E+02   -.242E+01 -.152E+01 0.756E+00   0.404E-05 -.111E-04 -.118E-05
   -.103E+02 -.122E+02 -.559E+02   0.111E+02 0.128E+02 0.569E+02   -.198E+01 -.105E+01 -.137E+01   -.320E-05 0.608E-05 0.130E-04
   0.771E+00 -.311E+02 0.215E+03   0.244E+00 0.311E+02 -.214E+03   -.144E+01 -.495E+00 -.116E+01   -.258E-04 0.220E-04 -.771E-05
   -.349E+00 0.142E+02 0.116E+03   -.137E+00 -.130E+02 -.116E+03   0.534E+00 -.223E+01 0.235E+00   -.349E-04 -.842E-05 -.403E-05
   -.273E+02 -.602E+01 0.423E+02   0.269E+02 0.464E+01 -.438E+02   0.771E+00 0.195E+01 0.147E+01   0.573E-05 0.232E-05 -.329E-04
   0.754E+01 0.836E+01 0.233E+03   -.836E+01 -.783E+01 -.237E+03   0.948E+00 -.121E+01 0.480E+01   0.167E-04 -.447E-04 -.570E-04
   -.147E+02 0.156E+02 -.976E+02   0.133E+02 -.171E+02 0.996E+02   0.152E+01 0.103E+01 -.126E+01   -.116E-04 -.682E-05 0.167E-04
   0.127E+02 -.195E+02 0.241E+03   -.125E+02 0.202E+02 -.243E+03   -.250E+00 -.458E+00 0.660E+00   -.478E-04 0.348E-05 -.421E-04
   -.486E+01 0.130E+02 -.228E+03   0.523E+01 -.122E+02 0.226E+03   -.504E+00 -.101E+01 0.129E+01   -.133E-04 -.135E-04 0.477E-04
   -.170E+02 0.613E+01 -.199E+03   0.184E+02 -.632E+01 0.201E+03   -.168E+01 -.820E-01 -.268E+01   0.221E-04 0.255E-04 0.350E-04
   0.359E+02 -.460E+02 -.231E+03   -.350E+02 0.449E+02 0.229E+03   -.615E+00 0.124E+01 0.166E+01   -.323E-04 -.119E-05 0.781E-04
   0.103E+02 -.189E+02 0.169E+03   -.797E+01 0.161E+02 -.170E+03   -.160E+01 0.237E+01 -.166E+01   0.290E-04 0.127E-04 0.267E-04
   0.372E+02 0.316E+01 0.163E+02   -.355E+02 -.309E+01 -.143E+02   -.241E+01 0.467E+00 -.219E+01   -.454E-04 0.316E-05 0.857E-05
   0.134E+02 -.851E+01 -.211E+02   -.138E+02 0.799E+01 0.229E+02   -.472E-01 0.617E-01 -.148E+01   0.394E-04 0.461E-05 0.392E-04
   -.314E+02 -.984E+00 0.229E+03   0.318E+02 0.895E+00 -.231E+03   0.980E-01 -.556E+00 0.222E+01   0.647E-05 0.100E-04 -.479E-04
   -.827E+01 0.100E+01 -.579E+02   0.801E+01 -.189E+01 0.573E+02   0.508E+00 0.159E+01 0.270E+01   -.229E-05 -.274E-05 0.389E-04
   -.213E+02 0.285E+01 -.405E+02   0.201E+02 -.170E+01 0.434E+02   0.123E+01 -.160E+00 -.233E+01   0.436E-04 0.290E-04 0.448E-04
   -.256E+02 -.109E+02 -.188E+03   0.232E+02 0.107E+02 0.187E+03   0.352E+01 0.460E+00 0.285E+00   -.516E-05 -.253E-04 0.565E-04
   -.284E+01 0.211E+02 -.185E+03   0.321E+01 -.198E+02 0.183E+03   -.866E+00 -.126E+01 0.176E+01   0.351E-04 0.179E-04 0.772E-04
   -.147E+02 0.114E+02 -.150E+03   0.139E+02 -.120E+02 0.149E+03   0.174E+01 0.395E+00 0.102E+00   0.549E-05 -.192E-04 0.242E-04
   -.152E+01 0.161E+02 0.132E+01   0.271E+01 -.162E+02 -.125E+01   -.142E+01 0.804E+00 -.313E-01   0.428E-04 -.333E-04 0.351E-04
   -.905E+00 0.303E+02 -.210E+03   0.128E+01 -.321E+02 0.213E+03   -.518E+00 0.839E+00 -.257E+01   -.269E-04 -.166E-04 0.439E-04
   0.416E+01 0.288E+02 0.657E+02   -.415E+01 -.259E+02 -.670E+02   0.209E+00 -.369E+01 0.512E+00   0.425E-04 -.382E-04 0.683E-05
   0.467E+01 -.131E+02 -.110E+03   -.416E+01 0.136E+02 0.107E+03   0.927E-02 -.153E+00 0.273E+01   0.134E-04 0.167E-04 0.416E-04
   0.600E+00 -.102E+02 0.214E+03   -.914E+00 0.869E+01 -.217E+03   0.591E+00 0.168E+01 0.268E+01   0.105E-04 0.699E-05 -.180E-04
   0.152E+02 -.367E+02 -.116E+03   -.158E+02 0.356E+02 0.115E+03   0.775E+00 0.138E+01 0.137E+01   -.317E-04 0.197E-04 0.446E-04
   -.157E+02 0.264E+02 0.254E+03   0.158E+02 -.267E+02 -.255E+03   0.235E+00 0.131E+00 0.902E+00   0.547E-04 -.115E-04 -.307E-04
   0.293E+00 -.193E+02 -.237E+02   -.421E+00 0.192E+02 0.250E+02   0.601E+00 0.825E-01 -.542E+00   0.107E-04 0.318E-04 0.525E-04
   0.110E+01 -.275E+02 -.324E+01   -.114E+01 0.280E+02 0.304E+01   0.239E+00 -.202E+00 0.292E+00   -.251E-04 0.294E-04 0.573E-04
   0.260E+01 -.704E+01 -.234E+03   -.114E+01 0.718E+01 0.237E+03   -.196E+01 -.335E-01 -.302E+01   0.381E-04 0.203E-05 0.264E-04
   0.328E+02 0.208E+01 0.191E+03   -.316E+02 -.248E+01 -.188E+03   0.558E-01 0.106E+01 -.301E+01   -.272E-04 -.193E-04 -.256E-04
   -.371E+02 0.878E+01 0.162E+03   0.360E+02 -.786E+01 -.159E+03   0.532E+00 -.918E+00 -.225E+01   0.788E-05 0.140E-04 -.194E-04
   0.363E+02 -.183E+02 0.593E+02   -.341E+02 0.182E+02 -.600E+02   -.298E+01 -.116E-01 0.734E+00   -.391E-04 0.295E-04 0.108E-05
   0.244E+01 0.671E+01 0.203E+03   -.233E+01 -.759E+01 -.205E+03   -.562E-01 0.969E+00 0.245E+01   0.301E-05 0.283E-05 -.522E-04
   0.273E+02 -.256E+02 0.145E+03   -.271E+02 0.254E+02 -.145E+03   -.104E+01 -.210E+00 0.124E+01   0.271E-04 0.536E-04 0.180E-04
   0.308E+02 0.587E+01 -.333E+02   -.298E+02 -.554E+01 0.329E+02   -.870E+00 -.808E+00 0.133E+01   -.209E-04 -.316E-04 0.185E-04
   -.226E+02 0.120E+02 -.679E+02   0.228E+02 -.126E+02 0.682E+02   0.322E+00 0.340E+00 -.344E+00   -.102E-04 -.535E-05 0.199E-04
   -.310E+02 0.259E+02 0.178E+03   0.302E+02 -.246E+02 -.178E+03   0.130E+01 -.699E+00 0.425E+00   -.454E-04 -.463E-04 -.232E-04
   0.233E+02 -.109E+02 -.172E+03   -.233E+02 0.103E+02 0.171E+03   -.337E+00 0.278E+00 0.105E+00   -.333E-04 -.212E-05 0.345E-04
   -.374E+02 0.999E+00 -.201E+03   0.377E+02 -.471E+00 0.201E+03   -.840E+00 -.722E+00 -.115E+00   -.179E-04 -.192E-04 0.542E-04
   0.485E+02 0.182E+02 -.202E+03   -.463E+02 -.191E+02 0.202E+03   -.286E+01 0.135E+01 0.422E+00   -.495E-04 -.408E-05 0.589E-04
   -.991E+01 -.809E+01 0.109E+03   0.941E+01 0.812E+01 -.109E+03   0.703E+00 0.647E+00 -.118E+01   -.378E-04 0.356E-05 0.156E-05
   -.158E+02 0.160E+02 0.227E+03   0.153E+02 -.157E+02 -.229E+03   0.143E+01 -.162E+00 0.329E+01   -.217E-06 -.317E-04 -.461E-04
   0.134E+02 0.114E+02 -.155E+03   -.124E+02 -.125E+02 0.154E+03   -.895E+00 0.166E+01 0.124E+01   -.355E-04 -.109E-04 0.444E-04
   0.318E+02 -.234E+02 0.155E+03   -.311E+02 0.224E+02 -.153E+03   -.442E+00 0.119E+01 -.899E+00   -.587E-05 0.703E-05 -.203E-04
   -.298E+02 0.335E+02 0.426E+02   0.270E+02 -.324E+02 -.452E+02   0.242E+01 -.116E+01 0.313E+01   -.122E-04 -.337E-04 -.267E-04
   0.299E+02 0.272E+01 0.176E+02   -.298E+02 -.193E+01 -.185E+02   -.220E-01 -.977E+00 0.453E-01   -.142E-04 -.160E-05 0.111E-04
   0.212E+01 -.819E+01 -.219E+03   -.290E+01 0.845E+01 0.221E+03   0.854E+00 0.373E+00 -.162E+01   0.225E-04 0.260E-04 0.558E-04
   -.980E+01 0.930E+01 0.141E+03   0.998E+01 -.908E+01 -.142E+03   0.518E-01 -.169E+00 0.979E+00   -.448E-05 0.815E-05 -.419E-04
   -.333E+01 -.294E+02 -.194E+03   0.514E+01 0.297E+02 0.195E+03   -.202E+01 -.674E+00 -.632E+00   -.195E-04 0.281E-04 0.680E-04
   -.170E+02 0.183E+02 0.215E+03   0.167E+02 -.182E+02 -.213E+03   0.109E+01 -.539E+00 -.123E+01   0.474E-04 -.480E-05 -.293E-04
   0.519E+01 -.139E+02 0.216E+03   -.385E+01 0.123E+02 -.215E+03   -.197E+01 0.210E+01 -.815E+00   0.484E-05 -.353E-04 -.300E-04
   0.588E+01 -.587E+01 -.175E+03   -.633E+01 0.415E+01 0.173E+03   0.130E+01 0.285E+01 0.226E+01   0.421E-04 -.191E-04 0.195E-04
   0.109E+02 -.104E+02 0.698E+02   -.103E+02 0.992E+01 -.716E+02   -.101E+01 0.693E+00 0.120E+01   0.262E-04 -.106E-05 0.558E-05
   0.257E+02 -.386E+01 0.186E+03   -.241E+02 0.272E+01 -.184E+03   -.244E+01 0.135E+01 -.147E+01   -.363E-04 0.280E-04 -.246E-04
   0.505E+00 0.823E+01 0.133E+03   0.294E+00 -.665E+01 -.136E+03   -.102E+01 -.172E+01 0.277E+01   0.530E-04 0.301E-04 0.161E-04
   -.280E+02 0.667E+01 -.251E+03   0.256E+02 -.665E+01 0.250E+03   0.305E+01 -.209E+00 0.110E+00   -.147E-04 -.730E-06 0.720E-04
   -.580E+01 0.141E+02 -.156E+03   0.668E+01 -.129E+02 0.153E+03   -.234E+01 -.237E+01 0.279E+01   0.501E-04 -.319E-04 0.198E-04
   -.299E+02 0.206E+02 -.641E+02   0.309E+02 -.190E+02 0.653E+02   -.908E+00 -.161E+01 -.332E+00   -.215E-04 -.115E-04 0.338E-04
   0.160E+02 -.411E+01 -.187E+03   -.144E+02 0.287E+01 0.187E+03   -.216E+01 0.839E+00 0.496E+00   0.108E-04 -.247E-04 0.351E-04
 -----------------------------------------------------------------------------------------------
   0.129E+02 -.463E+01 -.159E+02   -.693E-13 -.826E-13 -.597E-12   -.129E+02 0.463E+01 0.159E+02   -.390E-04 -.953E-04 0.835E-03


 POSITION                                       TOTAL-FORCE (eV/Angst)
 -----------------------------------------------------------------------------------
      3.90552      5.40631     15.47019        -0.032159     -0.485760      0.456092
      9.88489     13.71960     11.97483         0.328422      0.262354     -0.090725
     13.16450      1.24608     14.67269        -1.120188     -0.511734     -0.403132
      5.24760      2.25750     10.91112        -0.455975     -0.693271     -0.033721
      0.28837      7.08709     11.82298         0.088613     -1.213118     -0.441047
      4.83309      9.10721     12.49819         0.472124      0.672252      0.025173
      8.24495     12.16460     10.05804         0.247571     -0.741304      1.019643
      1.60694     10.40970     13.98370         0.118303     -0.400372      0.721057
      1.98304      1.18111     10.69337        -0.027228      0.091403     -0.813276
      1.81133      8.31139     14.94078        -0.180670     -0.252315     -0.502001
     11.01640      4.06954     14.69162        -0.382676     -0.252459     -0.290174
      0.71279     13.47860     15.18395         0.467192      0.004399      0.138260
     11.36290      5.44588     11.12605         0.731450     -0.394583     -1.783446
      0.16970      3.70671     12.66087        -0.605317      0.538321     -0.301779
      8.93070      6.71362     13.09082        -0.480308     -0.457379      0.196073
      3.43477      9.76905     10.65877         0.413667     -0.690015      0.260561
     11.13070      5.92879     13.24939         0.229021      0.809989      2.246575
     10.25700      2.17679     13.36446         0.038377      0.964586      0.538088
      4.99243      6.15998     14.81242         1.116303      0.193368     -1.048080
      8.35085      1.45056     14.43723        -0.573201      0.157364     -0.223159
      5.79904     10.27860     14.45186         1.068708     -0.064510     -0.968170
      7.27993      0.12859     12.81948        -0.287970      0.819388      0.027278
      0.48291      4.68064     14.76914        -0.251507     -0.759440     -0.159363
      8.66129     12.94880     12.32866         0.289521     -0.904578     -0.812392
     11.98200      0.62102     13.82265         0.538319      0.318439     -0.200850
     10.36730      9.37265     10.78646         0.248136      0.268084      0.605912
      1.80980      0.44685     13.74494         0.194909      0.336189     -0.069771
     10.68270      3.58102     10.00000         0.224503     -0.048535     -0.205826
      6.05675      4.62023     13.25765         0.474138      0.016984      0.737431
      4.21056      3.21566     12.77690         0.240192      0.195681      0.058950
      8.34916      6.88043     15.40491        -0.590561      0.106731     -0.758789
     13.12450     12.61310     11.27768         1.338389      0.852229     -0.263437
      2.60892      6.56058     11.62618        -0.717110     -0.106979      0.194567
      0.32664      1.42465     12.22909        -0.875704     -0.147443      0.138727
      6.59048      8.80204     10.88436         0.049430      0.193372      0.985283
      7.85214      5.17177     11.66957        -0.820339     -0.473034      0.884219
     12.43110     11.62240     13.17634         0.123194     -0.517990      0.973698
      3.51461      7.51921     13.57907         0.519760     -0.213523     -0.071712
      3.94952      0.24382     11.38726         0.423913      0.688499      0.344570
     12.39300      7.70126     14.23186        -0.309668     -0.364981     -0.846842
      4.88263     12.39960     14.97959        -0.689013     -0.302999     -0.363138
     14.23830     11.44360     14.81268        -0.751099      0.676682     -0.525139
      2.30000      4.19022     11.95232         0.264463      0.751724     -0.357340
     13.56660      5.44061     10.48087         0.869161      0.235728      1.158553
      0.06572      6.88176     14.23091         0.129232      0.614380     -0.227900
     12.80570      0.36199     11.61721         0.311572      0.225108      0.640661
      2.72209     13.09580     12.54290        -0.322852      0.103359      0.776244
     12.02910      9.41689     12.61347         0.191287     -0.214540     -0.894483
      7.33107      3.44921     15.06491         0.175192      0.536485     -0.773697
      1.41002     10.38220     11.58817         0.220903      0.072505      0.000699
      3.93089      1.51422     14.34181        -0.377530     -0.512224     -0.250045
      7.34868      1.48346     10.85388         0.715781     -0.284124      0.382956
      1.04015     12.56640     10.97756        -0.751861      0.478402     -0.142087
      8.96962     12.03200     14.44772         0.981973      1.240291      0.205462
      8.61628      8.87872     12.21037        -0.462675      0.249542     -0.518305
     14.06260      9.12701     11.29287        -0.869952      0.202709      0.465213
      8.96998      3.09820     11.41016        -0.264142     -0.224292      0.411788
      2.52456     12.04920     15.45129         0.720809     -0.147038     -1.195231
      8.32501      9.91744     14.31080        -1.681843     -1.087945      0.326442
      5.12985     14.18750     13.47576         0.019189     -0.017398      0.792871
     11.20110     13.02300     14.54347        -0.702169     -0.392663     -0.177992
 -----------------------------------------------------------------------------------
    total drift:                               -0.001116      0.003101      0.007341


--------------------------------------------------------------------------------------------------------



  FREE ENERGIE OF THE ION-ELECTRON SYSTEM (eV)
  ---------------------------------------------------
  free  energy   TOTEN  =      -531.66126310 eV

  energy  without entropy=     -531.48310780  energy(sigma->0) =     -531.57218545



--------------------------------------------------------------------------------------------------------


    POTLOK:  cpu time      3.0994: real time      3.1017


--------------------------------------------------------------------------------------------------------


     LOOP+:  cpu time   5459.5985: real time   5463.3792
    4ORBIT:  cpu time      0.0000: real time      0.0000



 total charge

# of ion       s       p       d       tot
------------------------------------------
    1        0.567   0.016   0.000   0.583
    2        0.563   0.016   0.000   0.579
    3        0.520   0.012   0.000   0.532
    4        0.826   0.823   0.000   1.649
    5        0.775   0.900   0.000   1.675
    6        0.766   0.893   0.000   1.658
    7        0.927   0.573   0.000   1.500
    8        0.778   0.884   0.000   1.662
    9        0.858   0.766   0.000   1.625
   10        0.806   0.863   0.000   1.670
   11        0.867   0.706   0.000   1.574
   12        0.816   0.845   0.000   1.661
   13        0.799   0.911   0.000   1.710
   14        0.790   0.861   0.000   1.650
   15        0.768   0.914   0.000   1.682
   16        0.871   0.719   0.000   1.590
   17        0.768   0.957   0.000   1.725
   18        0.776   0.878   0.000   1.654
   19        0.782   0.865   0.000   1.647
   20        0.802   0.861   0.000   1.664
   21        0.807   0.768   0.000   1.575
   22        0.769   0.942   0.000   1.711
   23        0.867   0.738   0.000   1.605
   24        0.760   0.967   0.000   1.727
   25        0.749   0.913   0.000   1.662
   26        0.867   0.711   0.000   1.579
   27        0.783   0.860   0.000   1.643
   28        0.868   0.762   0.000   1.630
   29        0.773   0.845   0.000   1.618
   30        0.768   0.916   0.000   1.684
   31        0.916   0.585   0.000   1.501
   32        0.810   0.838   0.000   1.647
   33        0.803   0.823   0.000   1.626
   34        0.763   0.939   0.000   1.703
   35        0.871   0.689   0.000   1.561
   36        0.811   0.810   0.000   1.621
   37        0.763   0.940   0.000   1.703
   38        0.767   0.925   0.000   1.692
   39        0.809   0.837   0.000   1.645
   40        0.802   0.825   0.000   1.627
   41        0.794   0.826   0.000   1.620
   42        0.819   0.822   0.000   1.641
   43        0.792   0.854   0.000   1.646
   44        0.855   0.733   0.000   1.587
   45        0.772   0.906   0.000   1.679
   46        0.795   0.853   0.000   1.649
   47        0.824   0.772   0.000   1.596
   48        0.764   0.887   0.000   1.651
   49        0.856   0.708   0.000   1.565
   50        0.780   0.934   0.000   1.714
   51        0.817   0.814   0.000   1.630
   52        0.800   0.874   0.000   1.673
   53        0.817   0.813   0.000   1.631
   54        0.798   0.854   0.000   1.652
   55        0.773   0.914   0.000   1.687
   56        0.806   0.870   0.000   1.676
   57        0.770   0.892   0.000   1.661
   58        0.805   0.819   0.000   1.624
   59        0.794   0.833   0.000   1.628
   60        0.773   0.888   0.000   1.661
   61        0.809   0.814   0.000   1.622
--------------------------------------------------
tot         48.363  48.579   0.000  96.942


 total amount of memory used by VASP MPI-rank0   344493. kBytes
=======================================================================

   base                                    :      30000. kBytes
   nonl-proj                               :      63536. kBytes
   fftplans                                :      98003. kBytes
   grid                                    :      75605. kBytes
   one-center                              :         12. kBytes
   wavefun                                 :      77337. kBytes

  
  
 General timing and accounting informations for this job:
 ========================================================
  
                  Total CPU time used (sec):     5596.657
                            User time (sec):     4947.240
                          System time (sec):      649.417
                         Elapsed time (sec):     5600.471
  
                   Maximum memory used (kb):      599628.
                   Average memory used (kb):          N/A
  
                          Minor page faults:      8593607
                          Major page faults:         1154
                 Voluntary context switches:         2897
