 vasp.6.5.0 16Dec24 (build Jan 20 2025 08:32:48) complex                         
 executed on        HPECrayEX_GCC date 2025.07.21  15:51:41
 running  128 mpi-ranks, with    1 threads/rank, on    1 nodes
 distrk:  each k-point on  128 cores,    1 groups
 distr:  one band on NCORE=  16 cores,    8 groups


--------------------------------------------------------------------------------------------------------


 INCAR:
   SYSTEM = a-Si SPC
   NCORE = 16
   ISTART = 1
   ICHARG = 1
   ISPIN = 1
   ISYM = 1
   EDIFF = 1E-6
   NELM = 150
   EDIFFG = -0.01
   NSW = 0
   ISIF = 2
   IBRION = -1
   PREC = Accurate
   ENCUT = 1200
   KSPACING = 0.23
   KGAMMA = .TRUE.
   METAGGA = SCAN
   LASPH = .TRUE.
   LDIAG = .FALSE.
   LMIXTAU = .TRUE.
   ADDGRID = .TRUE.
   ALGO = Normal
   ISMEAR = 0
   SIGMA = 0.1
   LORBIT = 11
   NEDOS = 2000
   LWAVE = .FALSE.
   LCHARG = .FALSE.

 POTCAR:    PAW_PBE H 15Jun2001                   
 POTCAR:    PAW_PBE Si 05Jan2001                  
 POTCAR:    PAW_PBE H 15Jun2001                   
   SHA256 =  030f79b5d3ab3cf0e668861823c8fb652ff669f3e15e46930bd03bfd63a607b6 H/POTCAR              
   COPYR  = (c) Copyright 15Jun2001 Georg Kresse                                                    
   COPYR  = This file is part of the software VASP. Any use, copying, and all other rights are regul
   COPYR  = If you do not have a valid VASP license, you may not use, copy or distribute this file. 
   VRHFIN =H: ultrasoft test                                                                        
   LEXCH  = PE                                                                                      
   EATOM  =    12.4884 eV,    0.9179 Ry                                                             
                                                                                                    
   TITEL  = PAW_PBE H 15Jun2001                                                                     
   LULTRA =        F    use ultrasoft PP ?                                                          
   IUNSCR =        0    unscreen: 0-lin 1-nonlin 2-no                                               
   RPACOR =    0.000    partial core radius                                                         
   POMASS =    1.000; ZVAL   =    1.000    mass and valenz                                          
   RCORE  =    1.100    outmost cutoff radius                                                       
   RWIGS  =    0.700; RWIGS  =    0.370    wigner-seitz radius (au A)                               
   ENMAX  =  250.000; ENMIN  =  200.000 eV                                                          
   RCLOC  =    0.701    cutoff for local pot                                                        
   LCOR   =        T    correct aug charges                                                         
   LPAW   =        T    paw PP                                                                      
   EAUG   =  400.000                                                                                
   RMAX   =    1.123    core radius for proj-oper                                                   
   RAUG   =    1.200    factor for augmentation sphere                                              
   RDEP   =    1.112    radius for radial grids                                                     
   RDEPT  =    0.926    core radius for aug-charge                                                  
                                                                                                    
   Atomic configuration                                                                             
    2 entries                                                                                       
     n  l   j            E        occ.                                                              
     1  0  0.50        -6.4927   1.0000                                                             
     2  1  0.50        -3.4015   0.0000                                                             
   Description                                                                                      
     l       E           TYP  RCUT    TYP  RCUT                                                     
     0     -6.4927494     23  1.100                                                                 
     0      6.8029130     23  1.100                                                                 
     1     -4.0817478     23  1.100                                                                 
  local pseudopotential read in
  atomic valenz-charges read in
  non local Contribution for L=           0  read in
    real space projection operators read in
  non local Contribution for L=           0  read in
    real space projection operators read in
  non local Contribution for L=           1  read in
    real space projection operators read in
    PAW grid and wavefunctions read in

   number of l-projection  operators is LMAX  =           3
   number of lm-projection operators is LMMAX =           5

 POTCAR:    PAW_PBE Si 05Jan2001                  
   SHA256 =  79d9987ad8750f624c4d6acb2a16d13abf6a777132adc04dc6c8399be72b42bb Si/POTCAR             
   COPYR  = (c) Copyright 05Jan2001 Georg Kresse                                                    
   COPYR  = This file is part of the software VASP. Any use, copying, and all other rights are regul
   COPYR  = If you do not have a valid VASP license, you may not use, copy or distribute this file. 
   VRHFIN =Si: s2p2                                                                                 
   LEXCH  = PE                                                                                      
   EATOM  =   103.0669 eV,    7.5752 Ry                                                             
                                                                                                    
   TITEL  = PAW_PBE Si 05Jan2001                                                                    
   LULTRA =        F    use ultrasoft PP ?                                                          
   IUNSCR =        1    unscreen: 0-lin 1-nonlin 2-no                                               
   RPACOR =    1.500    partial core radius                                                         
   POMASS =   28.085; ZVAL   =    4.000    mass and valenz                                          
   RCORE  =    1.900    outmost cutoff radius                                                       
   RWIGS  =    2.480; RWIGS  =    1.312    wigner-seitz radius (au A)                               
   ENMAX  =  245.345; ENMIN  =  184.009 eV                                                          
   ICORE  =        2    local potential                                                             
   LCOR   =        T    correct aug charges                                                         
   LPAW   =        T    paw PP                                                                      
   EAUG   =  322.069                                                                                
   DEXC   =    0.000                                                                                
   RMAX   =    1.950    core radius for proj-oper                                                   
   RAUG   =    1.300    factor for augmentation sphere                                              
   RDEP   =    1.993    radius for radial grids                                                     
   RDEPT  =    1.837    core radius for aug-charge                                                  
                                                                                                    
   Atomic configuration                                                                             
    6 entries                                                                                       
     n  l   j            E        occ.                                                              
     1  0  0.50     -1785.8828   2.0000                                                             
     2  0  0.50      -139.4969   2.0000                                                             
     2  1  1.50       -95.5546   6.0000                                                             
     3  0  0.50       -10.8127   2.0000                                                             
     3  1  0.50        -4.0811   2.0000                                                             
     3  2  1.50        -4.0817   0.0000                                                             
   Description                                                                                      
     l       E           TYP  RCUT    TYP  RCUT                                                     
     0    -10.8127223     23  1.900                                                                 
     0     -7.6451159     23  1.900                                                                 
     1     -4.0811372     23  1.900                                                                 
     1      2.4879257     23  1.900                                                                 
     2     -4.0817478      7  1.900                                                                 
  local pseudopotential read in
  partial core-charges read in
  partial kinetic energy density read in
  atomic valenz-charges read in
  non local Contribution for L=           0  read in
    real space projection operators read in
  non local Contribution for L=           0  read in
    real space projection operators read in
  non local Contribution for L=           1  read in
    real space projection operators read in
  non local Contribution for L=           1  read in
    real space projection operators read in
    PAW grid and wavefunctions read in

   number of l-projection  operators is LMAX  =           4
   number of lm-projection operators is LMMAX =           8

 -----------------------------------------------------------------------------
|                                                                             |
|               ----> ADVICE to this user running VASP <----                  |
|                                                                             |
|     You have a (more or less) 'large supercell' and for larger cells it     |
|     might be more efficient to use real-space projection operators.         |
|     Therefore, try LREAL= Auto in the INCAR file.                           |
|     Mind: For very accurate calculation, you might also keep the            |
|     reciprocal projection scheme (i.e. LREAL=.FALSE.).                      |
|                                                                             |
 -----------------------------------------------------------------------------

 -----------------------------------------------------------------------------
|                                                                             |
|               ----> ADVICE to this user running VASP <----                  |
|                                                                             |
|     You enforced a specific xc type in the INCAR file but a different       |
|     type was found in the POTCAR file.                                      |
|     I HOPE YOU KNOW WHAT YOU ARE DOING!                                     |
|                                                                             |
 -----------------------------------------------------------------------------

  PAW_PBE H 15Jun2001                   :
 energy of atom  1       EATOM=  -12.4884
 kinetic energy error for atom=    0.0000 (will be added to EATOM!!)
  PAW_PBE Si 05Jan2001                  :
 energy of atom  2       EATOM= -103.0669
 kinetic energy error for atom=    0.0001 (will be added to EATOM!!)


 POSCAR:  H Si
  positions in cartesian coordinates
  No initial velocities read in


 exchange-correlation table for SCAN
   RHO(1)=    0.500       N(1)  =     2000
   RHO(2)=  100.500       N(2)  =     4000



--------------------------------------------------------------------------------------------------------


 ion  position               nearest neighbor table
   1  0.552  0.584  0.403-  34 1.53
   2  0.404  0.695  0.626-
   3  0.644  0.508  0.429-  66 1.55
   4  0.284  0.729  0.418-  39 1.43
   5  0.589  0.850  0.429-  93 1.49
   6  0.370  0.781  0.384-  14 0.77
   7  0.723  0.719  0.415-  11 0.78
   8  0.597  0.780  0.350-
   9  0.409  0.646  0.416-  34 1.50
  10  0.786  0.645  0.548-  99 1.50
  11  0.672  0.708  0.409-   7 0.78
  12  0.538  0.866  0.554-  37 1.53
  13  0.998  0.384  0.405- 102 1.46
  14  0.413  0.810  0.379-   6 0.77
  15  0.424  0.776  0.458-  81 1.56
  16  0.082  0.253  0.650-
  17  0.576  0.696  0.459-  62 1.48
  18  0.784  0.411  0.402-  51 1.54
  19  0.220  0.084  0.478-  35 2.20  79 2.35  22 2.38  74 2.55
  20  0.348  0.068  0.617-  95 2.24  74 2.39  73 2.40
  21  0.790  0.793  0.603-  44 2.25  28 2.33  76 2.39
  22  0.063  0.095  0.456- 109 2.24 101 2.26 107 2.29  19 2.38
  23  0.947  0.675  0.355-  96 2.26  80 2.37 104 2.41
  24  0.235  0.457  0.445-  82 2.25  92 2.43  58 2.45  70 2.47
  25  0.736  0.282  0.526-  68 2.36  59 2.41  38 2.45  97 2.48  45 2.48
  26  0.882  0.600  0.632-  28 2.25  99 2.34  53 2.38
  27  0.324  0.519  0.652- 105 2.33  87 2.33
  28  0.937  0.730  0.600-  26 2.25  21 2.33  67 2.35
  29  0.884  0.370  0.629-  78 2.32  45 2.34  53 2.37
  30  0.072  0.844  0.524-  67 2.15  31 2.22  56 2.34  71 2.43
  31  0.188  0.878  0.571-  30 2.22  85 2.31  74 2.32  60 2.47
  32  0.272  0.960  0.359-  79 2.26  72 2.37
  33  0.564  0.217  0.427-  38 2.28  50 2.30 100 2.34  40 2.40
  34  0.451  0.554  0.405-   9 1.50   1 1.53  58 2.26
  35  0.272  0.223  0.461-  19 2.20  49 2.28  82 2.33  42 2.37
  36  0.050  0.228  0.565-  90 2.26  55 2.32 109 2.40  78 2.45
  37  0.475  0.802  0.582-  12 1.53  48 2.36  85 2.38  88 2.44
  38  0.653  0.159  0.485-  33 2.28  25 2.45  63 2.47  69 2.67  59 2.90
  39  0.188  0.715  0.429-   4 1.43  80 2.23  56 2.26  70 2.31
  40  0.496  0.343  0.469-  58 2.27  97 2.33  33 2.40  42 2.41
  41  0.782  0.886  0.365-  54 2.24 104 2.33
  42  0.397  0.243  0.513-  35 2.37  40 2.41  83 2.42  63 2.57
  43  0.825  0.570  0.453-  96 2.31  66 2.37  46 2.40  91 2.44
  44  0.839  0.940  0.603-  21 2.25  65 2.36  71 2.42
  45  0.831  0.412  0.555-  29 2.34  91 2.35  99 2.36  25 2.48
  46  0.867  0.722  0.477- 104 2.33  67 2.39  43 2.40  76 2.42
  47  0.547  0.241  0.625-  73 2.15 108 2.16  52 2.28
  48  0.499  0.882  0.652-  37 2.36  86 2.37
  49  0.335  0.200  0.390-  72 2.24  98 2.27  35 2.28 100 2.29
  50  0.659  0.257  0.367-  33 2.30  51 2.36
  51  0.800  0.306  0.399-  18 1.54  50 2.36  59 2.39
  52  0.697  0.222  0.646-  68 2.23  47 2.28
  53  0.998  0.485  0.638-  57 2.25  29 2.37  26 2.38
  54  0.727  0.009  0.403-  41 2.24  69 2.28  93 2.36
  55  0.167  0.336  0.565-  83 2.28  57 2.29  36 2.32  82 2.39
  56  0.130  0.853  0.449-  39 2.26  94 2.32  30 2.34  79 2.46
  57  0.106  0.477  0.582-  53 2.25  87 2.28  55 2.29  77 2.33
  58  0.399  0.465  0.464-  34 2.26  40 2.27 103 2.40  24 2.45
  59  0.839  0.224  0.468-  69 2.37 109 2.39  51 2.39  25 2.41  38 2.90
  60  0.121  0.884  0.650-  31 2.47
  61  0.061  0.272  0.352- 107 2.26  92 2.57
  62  0.629  0.672  0.502-  17 1.48  88 2.23  66 2.31  76 2.49
  63  0.506  0.105  0.518-  73 2.23  75 2.34  38 2.47  42 2.57
  64  0.645  0.597  0.616-  99 2.29  88 2.40
  65  0.713  0.024  0.574-  84 2.26  44 2.36  68 2.37  86 2.46
  66  0.677  0.527  0.480-   3 1.55  62 2.31  43 2.37  97 2.47  99 3.12
  67  0.000  0.714  0.525-  30 2.15  77 2.28  28 2.35  46 2.39
  68  0.774  0.174  0.584-  52 2.23  78 2.29  25 2.36  65 2.37
  69  0.805  0.064  0.466-  54 2.28 101 2.34  59 2.37  84 2.50  38 2.67
  70  0.192  0.602  0.484-  77 2.22  39 2.31 106 2.40  24 2.47
  71  0.977  0.963  0.558-  44 2.42  30 2.43 101 2.43  90 2.45
  72  0.228  0.116  0.353-  49 2.24 107 2.35  32 2.37
  73  0.501  0.113  0.596-  47 2.15  63 2.23  20 2.40  86 2.44
  74  0.229  0.032  0.562-  90 2.30  31 2.32  20 2.39  19 2.55
  75  0.458  0.992  0.466-  81 2.29  63 2.34  93 2.36 100 2.36  79 2.99
  76  0.745  0.790  0.523-  84 2.26  21 2.39  46 2.42  62 2.49
  77  0.061  0.570  0.520-  70 2.22  67 2.28  57 2.33  91 2.40
  78  0.913  0.215  0.615-  68 2.29  29 2.32  36 2.45
  79  0.265  0.951  0.437-  32 2.26  81 2.34  19 2.35  56 2.46  75 2.99
  80  0.105  0.653  0.371-  39 2.23  23 2.37
  81  0.373  0.862  0.478-  15 1.56  75 2.29  79 2.34  85 2.43
  82  0.168  0.338  0.481-  24 2.25  35 2.33  55 2.39 102 2.47 109 2.97
  83  0.318  0.306  0.580-  95 2.26  55 2.28 105 2.39  42 2.42
  84  0.722  0.940  0.508-  76 2.26  65 2.26  93 2.38  69 2.50
  85  0.323  0.803  0.552- 106 2.27  31 2.31  37 2.38  81 2.43
  86  0.601  0.006  0.638-  48 2.37  73 2.44  65 2.46
  87  0.200  0.586  0.612-  57 2.28  27 2.33 106 2.39
  88  0.533  0.650  0.561-  62 2.23 103 2.36  64 2.40  37 2.44
  89  0.016  0.986  0.352-  94 2.33 107 2.34
  90  0.085  0.082  0.584-  36 2.26  74 2.30  71 2.45
  91  0.930  0.479  0.500-  45 2.35 102 2.37  77 2.40  43 2.44
  92  0.188  0.388  0.372-  24 2.43  98 2.51  61 2.57
  93  0.609  0.943  0.448-   5 1.49  75 2.36  54 2.36  84 2.38
  94  0.989  0.900  0.419- 104 2.19 101 2.25  56 2.32  89 2.33
  95  0.310  0.210  0.641-  20 2.24  83 2.26
  96  0.847  0.562  0.373-  23 2.26  43 2.31
  97  0.608  0.395  0.521-  40 2.33 108 2.38  66 2.47  25 2.48
  98  0.344  0.332  0.348-  49 2.27  92 2.51
  99  0.775  0.558  0.575-  10 1.50  64 2.29  26 2.34  45 2.36  66 3.12
 100  0.455  0.106  0.407-  49 2.29  33 2.34  75 2.36
 101  0.950  0.997  0.476-  94 2.25  22 2.26  69 2.34  71 2.43
 102  0.009  0.368  0.455-  13 1.46 109 2.30  91 2.37  82 2.47
 103  0.417  0.549  0.535-  88 2.36 105 2.39  58 2.40 106 2.49
 104  0.886  0.794  0.405-  94 2.19  41 2.33  46 2.33  23 2.41
 105  0.409  0.439  0.597- 108 2.19  27 2.33 103 2.39  83 2.39
 106  0.283  0.652  0.549-  85 2.27  87 2.39  70 2.40 103 2.49
 107  0.075  0.126  0.379-  61 2.26  22 2.29  89 2.34  72 2.35
 108  0.547  0.378  0.597-  47 2.16 105 2.19  97 2.38
 109  0.999  0.223  0.486-  22 2.24 102 2.30  59 2.39  36 2.40  82 2.97

  LATTYP: Found a simple tetragonal cell.
 ALAT       =    14.5549806953
 C/A-ratio  =     1.9751443579
  
  Lattice vectors:
  
 A1 = (  14.5549806953,   0.0000000000,   0.0000000000)
 A2 = (   0.0000000000,  14.5549806953,   0.0000000000)
 A3 = (   0.0000000000,   0.0000000000,  28.7481880000)


Analysis of symmetry for initial positions (statically):
=====================================================================
 Subroutine PRICEL returns:
 Original cell was already a primitive cell.
 

 Routine SETGRP: Setting up the symmetry group for a 
 simple tetragonal supercell.


 Subroutine GETGRP returns: Found  1 space group operations
 (whereof  1 operations were pure point group operations)
 out of a pool of 16 trial point group operations.


The static configuration has the point symmetry C_1 .


Analysis of symmetry for dynamics (positions and initial velocities):
=====================================================================
 Subroutine PRICEL returns:
 Original cell was already a primitive cell.
 

 Routine SETGRP: Setting up the symmetry group for a 
 simple tetragonal supercell.


 Subroutine GETGRP returns: Found  1 space group operations
 (whereof  1 operations were pure point group operations)
 out of a pool of 16 trial point group operations.


The dynamic configuration has the point symmetry C_1 .


 Subroutine INISYM returns: Found  1 space group operations
 (whereof  1 operations are pure point group operations),
 and found     1 'primitive' translations


----------------------------------------------------------------------------------------

                                     Primitive cell                                     

  volume of cell :    6090.2307

  direct lattice vectors                    reciprocal lattice vectors
    14.554980695  0.000000000  0.000000000     0.068705004  0.000000000  0.000000000
     0.000000000 14.554980695  0.000000000     0.000000000  0.068705004  0.000000000
     0.000000000  0.000000000 28.748188000     0.000000000  0.000000000  0.034784801

  length of vectors
    14.554980695 14.554980695 28.748188000     0.068705004  0.068705004  0.034784801

  position of ions in fractional coordinates (direct lattice)
     0.551663391  0.583714962  0.403447967
     0.403516166  0.695280895  0.625804590
     0.644165059  0.508355192  0.429415169
     0.283542114  0.729399799  0.418118109
     0.589095938  0.850471757  0.429173066
     0.369858958  0.780646862  0.384062049
     0.722618616  0.718936027  0.414875122
     0.597069840  0.779952941  0.350201237
     0.409380825  0.645804361  0.415540903
     0.785916535  0.645225177  0.547781933
     0.671561866  0.707902004  0.408969706
     0.538268663  0.866060922  0.554143030
     0.998065116  0.383708513  0.404845272
     0.412994708  0.809619762  0.379063821
     0.424077512  0.776023015  0.458206201
     0.082366306  0.252658528  0.649772361
     0.575868850  0.696016038  0.459384362
     0.784308838  0.410610644  0.401897956
     0.220428324  0.084058511  0.477803262
     0.347859616  0.068457872  0.616801935
     0.789702181  0.793048115  0.603096724
     0.062825023  0.094901534  0.456450960
     0.947119085  0.674979253  0.355240302
     0.235364792  0.456949421  0.445152856
     0.735693178  0.282214047  0.526236227
     0.882316526  0.599752084  0.632172991
     0.323613621  0.519477845  0.651611086
     0.936895781  0.729729583  0.599781384
     0.884302100  0.369681700  0.628500760
     0.071796042  0.843505069  0.524429505
     0.188251023  0.878317895  0.571068618
     0.272435263  0.960028755  0.358863418
     0.563597450  0.217330415  0.427280425
     0.450650546  0.553919663  0.405191033
     0.271526983  0.222719636  0.461074555
     0.050052900  0.228497727  0.564956929
     0.475306024  0.801828614  0.581914519
     0.653404508  0.159420342  0.485464962
     0.188324537  0.715432072  0.428549375
     0.496269294  0.343223403  0.468743560
     0.782412580  0.886473179  0.364784521
     0.397234467  0.243152504  0.512555365
     0.825153963  0.569769907  0.452962740
     0.838819388  0.939527182  0.603435876
     0.830932054  0.411742903  0.554921166
     0.866644914  0.722433112  0.476761109
     0.546933051  0.240644771  0.625164550
     0.499089635  0.882027965  0.652151990
     0.334576878  0.200099888  0.389538221
     0.658751131  0.256953278  0.366743184
     0.799698759  0.305874676  0.399155870
     0.696813016  0.222212593  0.646168308
     0.997988270  0.484759832  0.638047101
     0.726988254  0.008594240  0.402779055
     0.167431345  0.335937237  0.564627517
     0.129639471  0.853281791  0.448660903
     0.105737687  0.476669818  0.581848428
     0.399150650  0.464707590  0.464010740
     0.839128561  0.223509056  0.468139348
     0.120703011  0.884412028  0.649862454
     0.061181050  0.271685692  0.352489973
     0.628567649  0.671976157  0.501519887
     0.506436261  0.104858950  0.518384254
     0.644870660  0.597012815  0.615693344
     0.712972433  0.023977016  0.574339085
     0.677257511  0.527271053  0.479792953
     0.000131866  0.714408368  0.525139115
     0.774264167  0.173713731  0.584045784
     0.805057749  0.064195001  0.465613972
     0.192255150  0.601839342  0.484387677
     0.977101949  0.963340336  0.558264681
     0.227957018  0.116360168  0.352914034
     0.501286821  0.112514062  0.595693127
     0.228931255  0.031789187  0.562362678
     0.458443068  0.992189567  0.465722500
     0.744913389  0.789544160  0.523013068
     0.061000562  0.570321608  0.520363510
     0.913405540  0.215391560  0.614507182
     0.265286508  0.951248256  0.437160005
     0.105078806  0.653307634  0.371380902
     0.372658687  0.862364593  0.477518722
     0.167650514  0.338182517  0.481361051
     0.318470364  0.305978420  0.579582546
     0.721546818  0.940083693  0.508174567
     0.322805650  0.802934765  0.552404485
     0.600537382  0.006109483  0.637599072
     0.200490132  0.585923141  0.612230169
     0.532580576  0.649814672  0.560968503
     0.016014518  0.986150398  0.351805651
     0.084898086  0.081978123  0.583717416
     0.930100856  0.478850515  0.500259982
     0.188257893  0.388446410  0.371696261
     0.608804655  0.943299087  0.448228876
     0.989118454  0.899705762  0.418820414
     0.310356303  0.209702099  0.641298436
     0.846706722  0.561872954  0.373462355
     0.608487238  0.394769332  0.520573262
     0.344161913  0.332412670  0.347848010
     0.774779454  0.558149830  0.575229228
     0.455145915  0.105844180  0.407354300
     0.949599336  0.996517983  0.476470656
     0.009040823  0.368229276  0.454564232
     0.416646379  0.548707701  0.535216272
     0.886019725  0.793927539  0.404756919
     0.409397314  0.438770764  0.596794066
     0.283426003  0.652226904  0.548960790
     0.074893950  0.125802984  0.378590157
     0.546926181  0.377685832  0.596666753
     0.999328017  0.222613830  0.485586361

  ion indices of the primitive-cell ions
   primitive index   ion index
                 1           1
                 2           2
                 3           3
                 4           4
                 5           5
                 6           6
                 7           7
                 8           8
                 9           9
                10          10
                11          11
                12          12
                13          13
                14          14
                15          15
                16          16
                17          17
                18          18
                19          19
                20          20
                21          21
                22          22
                23          23
                24          24
                25          25
                26          26
                27          27
                28          28
                29          29
                30          30
                31          31
                32          32
                33          33
                34          34
                35          35
                36          36
                37          37
                38          38
                39          39
                40          40
                41          41
                42          42
                43          43
                44          44
                45          45
                46          46
                47          47
                48          48
                49          49
                50          50
                51          51
                52          52
                53          53
                54          54
                55          55
                56          56
                57          57
                58          58
                59          59
                60          60
                61          61
                62          62
                63          63
                64          64
                65          65
                66          66
                67          67
                68          68
                69          69
                70          70
                71          71
                72          72
                73          73
                74          74
                75          75
                76          76
                77          77
                78          78
                79          79
                80          80
                81          81
                82          82
                83          83
                84          84
                85          85
                86          86
                87          87
                88          88
                89          89
                90          90
                91          91
                92          92
                93          93
                94          94
                95          95
                96          96
                97          97
                98          98
                99          99
               100         100
               101         101
               102         102
               103         103
               104         104
               105         105
               106         106
               107         107
               108         108
               109         109

----------------------------------------------------------------------------------------


 -----------------------------------------------------------------------------
|                                                                             |
|           W    W    AA    RRRRR   N    N  II  N    N   GGGG   !!!           |
|           W    W   A  A   R    R  NN   N  II  NN   N  G    G  !!!           |
|           W    W  A    A  R    R  N N  N  II  N N  N  G       !!!           |
|           W WW W  AAAAAA  RRRRR   N  N N  II  N  N N  G  GGG   !            |
|           WW  WW  A    A  R   R   N   NN  II  N   NN  G    G                |
|           W    W  A    A  R    R  N    N  II  N    N   GGGG   !!!           |
|                                                                             |
|     The requested file  could not be found or opened for reading            |
|     k-point information. Automatic k-point generation is used as a          |
|     fallback, which may lead to unwanted results.                           |
|                                                                             |
 -----------------------------------------------------------------------------



Automatic generation of k-mesh.
 Grid dimensions derived from KSPACING:
 generate k-points for:    2    2    1

 Generating k-lattice:

  Cartesian coordinates                     Fractional coordinates (reciprocal lattice)
     0.034352502  0.000000000  0.000000000     0.500000000  0.000000000  0.000000000
     0.000000000  0.034352502  0.000000000     0.000000000  0.500000000  0.000000000
     0.000000000  0.000000000  0.034784801     0.000000000  0.000000000  1.000000000

  Length of vectors
     0.034352502  0.034352502  0.034784801

  Shift w.r.t. Gamma in fractional coordinates (k-lattice)
     0.000000000  0.000000000  0.000000000

 
 Subroutine IBZKPT returns following result:
 ===========================================
 
 Found      4 irreducible k-points:
 
 Following reciprocal coordinates:
            Coordinates               Weight
  0.000000  0.000000  0.000000      1.000000
  0.500000  0.000000  0.000000      1.000000
  0.000000  0.500000  0.000000      1.000000
  0.500000  0.500000  0.000000      1.000000
 
 Following cartesian coordinates:
            Coordinates               Weight
  0.000000  0.000000  0.000000      1.000000
  0.034353  0.000000  0.000000      1.000000
  0.000000  0.034353  0.000000      1.000000
  0.034353  0.034353  0.000000      1.000000
 


--------------------------------------------------------------------------------------------------------




 Dimension of arrays:
   k-points           NKPTS =      4   k-points in BZ     NKDIM =      4   number of bands    NBANDS=    248
   number of dos      NEDOS =   2000   number of ions     NIONS =    109
   non local maximal  LDIM  =      4   non local SUM 2l+1 LMDIM =      8
   total plane-waves  NPLWV = ******
   max r-space proj   IRMAX =      1   max aug-charges    IRDMAX= 416650
   dimension x,y,z NGX =   168 NGY =  168 NGZ =  336
   dimension x,y,z NGXF=   336 NGYF=  336 NGZF=  672
   support grid    NGXF=   672 NGYF=  672 NGZF= 1344
   ions per type =              18  91
   NGX,Y,Z   is equivalent  to a cutoff of  19.19, 19.19, 19.43 a.u.
   NGXF,Y,Z  is equivalent  to a cutoff of  38.38, 38.38, 38.86 a.u.

 SYSTEM =  a-Si SPC                                
 POSCAR =   H Si                                   

 Startparameter for this run:
   NWRITE =      2    write-flag & timer
   PREC   = accura    normal or accurate (medium, high low for compatibility)
   ISTART =      1    job   : 0-new  1-cont  2-samecut
   ICHARG =      1    charge: 1-file 2-atom 10-const
   ISPIN  =      1    spin polarized calculation?
   LNONCOLLINEAR =      F non collinear calculations
   LSORBIT =      F    spin-orbit coupling
   INIWAV =      1    electr: 0-lowe 1-rand  2-diag
   LASPH  =      T    aspherical Exc in radial PAW
 Electronic Relaxation 1
   ENCUT  = 1200.0 eV  88.20 Ry    9.39 a.u.  41.11 41.11 81.20*2*pi/ulx,y,z
   ENINI  = 1200.0     initial cutoff
   ENAUG  =  400.0 eV  augmentation charge cutoff
   NELM   =    150;   NELMIN=  2; NELMDL=  0     # of ELM steps 
   EDIFF  = 0.1E-05   stopping-criterion for ELM
   LREAL  =      F    real-space projection
   NLSPLINE    = F    spline interpolate recip. space projectors
   LCOMPAT=      F    compatible to vasp.4.4
   GGA_COMPAT  = T    GGA compatible to vasp.4.4-vasp.4.6
   LMAXPAW     = -100 max onsite density
   LMAXMIX     =    2 max onsite mixed and CHGCAR
   VOSKOWN=      0    Vosko Wilk Nusair interpolation
   ROPT   =    0.00000   0.00000
 Ionic relaxation
   EDIFFG = -.1E-01   stopping-criterion for IOM
   NSW    =      0    number of steps for IOM
   NBLOCK =      1;   KBLOCK =      1    inner block; outer block 
   IBRION =     -1    ionic relax: 0-MD 1-quasi-New 2-CG
   NFREE  =      0    steps in history (QN), initial steepest desc. (CG)
   ISIF   =      2    stress and relaxation
   IWAVPR =     10    prediction:  0-non 1-charg 2-wave 3-comb
   ISYM   =      1    0-nonsym 1-usesym 2-fastsym
   LCORR  =      T    Harris-Foulkes like correction to forces

   POTIM  = 0.5000    time-step for ionic-motion
   TEIN   =    0.0    initial temperature
   TEBEG  =    0.0;   TEEND  =   0.0 temperature during run
   SMASS  =  -3.00    Nose mass-parameter (am)
   estimated Nose-frequenzy (Omega)   =  0.10E-29 period in steps = 0.13E+47 mass=  -0.484E-26a.u.
   SCALEE = 1.0000    scale energy and forces
   NPACO  =    256;   APACO  = 10.0  distance and # of slots for P.C.
   PSTRESS=    0.0 pullay stress

  Mass of Ions in am
   POMASS =   1.00 28.09
  Ionic Valenz
   ZVAL   =   1.00  4.00
  Atomic Wigner-Seitz radii
   RWIGS  =  -1.00 -1.00
  virtual crystal weights 
   VCA    =   1.00  1.00
   NELECT =     382.0000    total number of electrons
   NUPDOWN=      -1.0000    fix difference up-down

 DOS related values:
   EMIN   =  10.00;   EMAX   =-10.00  energy-range for DOS
   EFERMI =   0.00;   METHOD = LEGACY      
   ISMEAR =     0;   SIGMA  =   0.10  broadening in eV -4-tet -1-fermi 0-gaus
   EFERMI_NEDOS =   21; number of points for ismear=-14 and -15

 Electronic relaxation 2 (details)
   IALGO  =     38    algorithm
   LDIAG  =      F    sub-space diagonalisation (order eigenvalues)
   LSUBROT=      F    optimize rotation matrix (better conditioning)
   TURBO    =      0    0=normal 1=particle mesh
   IRESTART =      0    0=no restart 2=restart with 2 vectors
   NREBOOT  =      0    no. of reboots
   NMIN     =      0    reboot dimension
   EREF     =   0.00    reference energy to select bands
   IMIX   =      4    mixing-type and parameters
     AMIX     =   0.40;   BMIX     =  1.00
     AMIX_MAG =   1.60;   BMIX_MAG =  1.00
     AMIN     =   0.10
     WC   =   100.;   INIMIX=   1;  MIXPRE=   1;  MAXMIX= -45

 Intra band minimization:
   WEIMIN = 0.0000     energy-eigenvalue tresh-hold
   EBREAK =  0.10E-08  absolut break condition
   DEPER  =   0.30     relativ break condition  

   TIME   =   0.40     timestep for ELM

  volume/ion in A,a.u.               =      55.87       377.05
  Fermi-wavevector in a.u.,A,eV,Ry     =   0.650456  1.229184  5.756533  0.423093
  Thomas-Fermi vector in A             =   1.719740

 Write flags
   LWAVE        =      F    write WAVECAR
   LDOWNSAMPLE  =      F    k-point downsampling of WAVECAR
   LCHARG       =      F    write CHGCAR
   LVTOT        =      F    write LOCPOT, total local potential
   LVHAR        =      F    write LOCPOT, Hartree potential only
   WRT_POTENTIAL= false  ! write potential to hdf5 file
   LELF         =      F    write electronic localiz. function (ELF)
   LORBIT       =     11    0 simple, 1 ext, 2 COOP (PROOUT), +10 PAW based schemes


 Python interface
   PLUGINS active      =      F    recompile with -DPLUGINS to activate

 Dipole corrections
   LMONO      =      F    monopole corrections only (constant potential shift)
   LDIPOL     =      F    correct potential (dipole corrections)
   IDIPOL     =      0    1-x, 2-y, 3-z, 4-all directions 
   EPSILON    =  1.0000000 bulk dielectric constant
   LVACPOTAV  =      F  vacuum potentials using an averaging scheme for the charge density
   VACPOTFLAT =  0.1000000 required flatness to determine vacuum potential

Coulomb truncation method
  LTRUNCATE          =      F  Coulomb kernel truncation to be used
  IDIMENSIONALITY    =      3  Dimensionality of cutoff (0 molecules / 2 surfaces)
  ISURFACE           =     -1  Direction of surface normal
  LCOARSEN           =      F  Coarsen the charge grid before padding, preferred


 Exchange correlation treatment:
   METAGGA = SCAN    functional components
   XC_C    = 1    coefficients multiplying the functional components
   LIBXC   =     F    Libxc                    
   VOSKOWN =     0    Vosko Wilk Nusair interpolation
   LHFCALC =     F    Hartree Fock is set to
   LHFONE  =     F    Hartree Fock one center treatment
   AEXX    =    0.0000 exact exchange contribution

 Parameters of functionals:
   SCAN:
     P1 =  0.000000E+00
     P2 =  0.000000E+00
     P3 =  0.000000E+00

 Accuracy and mixing parameters for tau-dependent meta-GGA functionals:
   LMAXTAU = 6
   LMIXTAU = T

 Van der Waals corrections
   IVDW    =     0    specifies the selected vdW correction

 Linear response parameters
   LEPSILON=     F    determine dielectric tensor
   LRPA    =     F    only Hartree local field effects (RPA)
   LNABLA  =     F    use nabla operator in PAW spheres
   LVEL    =     F    velocity operator in full k-point grid
   CSHIFT  =0.1000    complex shift for real part using Kramers Kronig
   OMEGAMAX=  -1.0    maximum frequency
   DEG_THRESHOLD= 0.2000000E-02 threshold for treating states as degnerate
   RTIME   =   -0.100 relaxation time in fs
  (WPLASMAI=    0.000 imaginary part of plasma frequency in eV, 0.658/RTIME)
   DFIELD  = 0.0000000 0.0000000 0.0000000 field for delta impulse in time

  Optional k-point grid parameters
   LKPOINTS_OPT  =     F    use optional k-point grid
   KPOINTS_OPT_MODE=     1    mode for optional k-point grid

 Orbital magnetization related:
   ORBITALMAG=     F  switch on orbital magnetization
   LCHIMAG   =     F  perturbation theory with respect to B field
   DQ        =  0.001000  dq finite difference perturbation B field
   LLRAUG    =     F  two centre corrections for induced B field
   LBONE     =     F  B-component reconstruction in AE one-centre
   LVGVCALC  =     T  calculate vGv susceptibility
   LVGVAPPL  =     F  apply vGv susceptibility instead of pGv for G=0

 Random number generation:
   RANDOM_GENERATOR = DEFAULT
   PCG_SEED         = not used


--------------------------------------------------------------------------------------------------------


 Static calculation
 charge density and potential will be updated during run
 non-spin polarized calculation
 Variant of blocked Davidson
 perform Loewdin sub-space diagonalisation
    ordering is kept fixed
    before iterative eigenvector-optimisation
 modified Broyden-mixing scheme, WC =      100.0
 initial mixing is a Kerker type mixing with AMIX =  0.4000 and BMIX =      1.0000
 Hartree-type preconditioning will be used
 using additional bands           57
 reciprocal scheme for non local part
 use partial core corrections
 calculate Harris-corrections to forces   (improved forces if not selfconsistent)
 use gradient corrections 
 use of overlap-Matrix (Vanderbilt PP)
 Gauss-broadening in eV      SIGMA  =   0.10


--------------------------------------------------------------------------------------------------------


  energy-cutoff  :     1200.00
  volume of cell :     6090.23
      direct lattice vectors                 reciprocal lattice vectors
    14.554980695  0.000000000  0.000000000     0.068705004  0.000000000  0.000000000
     0.000000000 14.554980695  0.000000000     0.000000000  0.068705004  0.000000000
     0.000000000  0.000000000 28.748188000     0.000000000  0.000000000  0.034784801

  length of vectors
    14.554980695 14.554980695 28.748188000     0.068705004  0.068705004  0.034784801



 old parameters found on file WAVECAR:
  energy-cutoff  :     1200.00
  volume of cell :     6090.23
      direct lattice vectors                 reciprocal lattice vectors
    14.554980695  0.000000000  0.000000000     0.068705004  0.000000000  0.000000000
     0.000000000 14.554980695  0.000000000     0.000000000  0.068705004  0.000000000
     0.000000000  0.000000000 28.748188000     0.000000000  0.000000000  0.034784801

  length of vectors


 k-points in units of 2pi/SCALE and weight: read from INCAR                         
   0.00000000  0.00000000  0.00000000       0.250
   0.03435250  0.00000000  0.00000000       0.250
   0.00000000  0.03435250  0.00000000       0.250
   0.03435250  0.03435250  0.00000000       0.250

 k-points in reciprocal lattice and weights: read from INCAR                         
   0.00000000  0.00000000  0.00000000       0.250
   0.50000000  0.00000000  0.00000000       0.250
   0.00000000  0.50000000  0.00000000       0.250
   0.50000000  0.50000000  0.00000000       0.250

 position of ions in fractional coordinates (direct lattice) 
   0.55166339  0.58371496  0.40344797
   0.40351617  0.69528089  0.62580459
   0.64416506  0.50835519  0.42941517
   0.28354211  0.72939980  0.41811811
   0.58909594  0.85047176  0.42917307
   0.36985896  0.78064686  0.38406205
   0.72261862  0.71893603  0.41487512
   0.59706984  0.77995294  0.35020124
   0.40938082  0.64580436  0.41554090
   0.78591654  0.64522518  0.54778193
   0.67156187  0.70790200  0.40896971
   0.53826866  0.86606092  0.55414303
   0.99806512  0.38370851  0.40484527
   0.41299471  0.80961976  0.37906382
   0.42407751  0.77602301  0.45820620
   0.08236631  0.25265853  0.64977236
   0.57586885  0.69601604  0.45938436
   0.78430884  0.41061064  0.40189796
   0.22042832  0.08405851  0.47780326
   0.34785962  0.06845787  0.61680194
   0.78970218  0.79304811  0.60309672
   0.06282502  0.09490153  0.45645096
   0.94711909  0.67497925  0.35524030
   0.23536479  0.45694942  0.44515286
   0.73569318  0.28221405  0.52623623
   0.88231653  0.59975208  0.63217299
   0.32361362  0.51947784  0.65161109
   0.93689578  0.72972958  0.59978138
   0.88430210  0.36968170  0.62850076
   0.07179604  0.84350507  0.52442950
   0.18825102  0.87831789  0.57106862
   0.27243526  0.96002876  0.35886342
   0.56359745  0.21733042  0.42728043
   0.45065055  0.55391966  0.40519103
   0.27152698  0.22271964  0.46107456
   0.05005290  0.22849773  0.56495693
   0.47530602  0.80182861  0.58191452
   0.65340451  0.15942034  0.48546496
   0.18832454  0.71543207  0.42854938
   0.49626929  0.34322340  0.46874356
   0.78241258  0.88647318  0.36478452
   0.39723447  0.24315250  0.51255537
   0.82515396  0.56976991  0.45296274
   0.83881939  0.93952718  0.60343588
   0.83093205  0.41174290  0.55492117
   0.86664491  0.72243311  0.47676111
   0.54693305  0.24064477  0.62516455
   0.49908963  0.88202796  0.65215199
   0.33457688  0.20009989  0.38953822
   0.65875113  0.25695328  0.36674318
   0.79969876  0.30587468  0.39915587
   0.69681302  0.22221259  0.64616831
   0.99798827  0.48475983  0.63804710
   0.72698825  0.00859424  0.40277906
   0.16743135  0.33593724  0.56462752
   0.12963947  0.85328179  0.44866090
   0.10573769  0.47666982  0.58184843
   0.39915065  0.46470759  0.46401074
   0.83912856  0.22350906  0.46813935
   0.12070301  0.88441203  0.64986245
   0.06118105  0.27168569  0.35248997
   0.62856765  0.67197616  0.50151989
   0.50643626  0.10485895  0.51838425
   0.64487066  0.59701282  0.61569334
   0.71297243  0.02397702  0.57433909
   0.67725751  0.52727105  0.47979295
   0.00013187  0.71440837  0.52513911
   0.77426417  0.17371373  0.58404578
   0.80505775  0.06419500  0.46561397
   0.19225515  0.60183934  0.48438768
   0.97710195  0.96334034  0.55826468
   0.22795702  0.11636017  0.35291403
   0.50128682  0.11251406  0.59569313
   0.22893126  0.03178919  0.56236268
   0.45844307  0.99218957  0.46572250
   0.74491339  0.78954416  0.52301307
   0.06100056  0.57032161  0.52036351
   0.91340554  0.21539156  0.61450718
   0.26528651  0.95124826  0.43716000
   0.10507881  0.65330763  0.37138090
   0.37265869  0.86236459  0.47751872
   0.16765051  0.33818252  0.48136105
   0.31847036  0.30597842  0.57958255
   0.72154682  0.94008369  0.50817457
   0.32280565  0.80293476  0.55240449
   0.60053738  0.00610948  0.63759907
   0.20049013  0.58592314  0.61223017
   0.53258058  0.64981467  0.56096850
   0.01601452  0.98615040  0.35180565
   0.08489809  0.08197812  0.58371742
   0.93010086  0.47885051  0.50025998
   0.18825789  0.38844641  0.37169626
   0.60880465  0.94329909  0.44822888
   0.98911845  0.89970576  0.41882041
   0.31035630  0.20970210  0.64129844
   0.84670672  0.56187295  0.37346236
   0.60848724  0.39476933  0.52057326
   0.34416191  0.33241267  0.34784801
   0.77477945  0.55814983  0.57522923
   0.45514591  0.10584418  0.40735430
   0.94959934  0.99651798  0.47647066
   0.00904082  0.36822928  0.45456423
   0.41664638  0.54870770  0.53521627
   0.88601973  0.79392754  0.40475692
   0.40939731  0.43877076  0.59679407
   0.28342600  0.65222690  0.54896079
   0.07489395  0.12580298  0.37859016
   0.54692618  0.37768583  0.59666675
   0.99932802  0.22261383  0.48558636

 position of ions in cartesian coordinates  (Angst):
   8.02945000  8.49596000 11.59839800
   5.87317000 10.11980000 17.99074800
   9.37581000  7.39910000 12.34490800
   4.12695000 10.61640000 12.02013800
   8.57428000 12.37860000 12.33794800
   5.38329000 11.36230000 11.04108800
  10.51770000 10.46410000 11.92690800
   8.69034000 11.35220000 10.06765100
   5.95853000  9.39967000 11.94604800
  11.43900000  9.39124000 15.74773800
   9.77457000 10.30350000 11.75713800
   7.83449000 12.60550000 15.93060800
  14.52681850  5.58487000 11.63856800
   6.01113000 11.78400000 10.89739800
   6.17244000 11.29500000 13.17259800
   1.19884000  3.67744000 18.67977800
   8.38176000 10.13050000 13.20646800
  11.41560000  5.97643000 11.55383800
   3.20833000  1.22347000 13.73597800
   5.06309000  0.99640300 17.73193800
  11.49410000 11.54280000 17.33793800
   0.91441700  1.38129000 13.12213800
  13.78530000  9.82431000 10.21251500
   3.42573000  6.65089000 12.79733800
  10.70800000  4.10762000 15.12833800
  12.84210000  8.72938000 18.17382800
   4.71019000  7.56099000 18.73263800
  13.63650000 10.62120000 17.24262800
  12.87100000  5.38071000 18.06825800
   1.04499000 12.27720000 15.07639800
   2.73999000 12.78390000 16.41718800
   3.96529000 13.97320000 10.31667300
   8.20315000  3.16324000 12.28353800
   6.55921000  8.06229000 11.64850800
   3.95207000  3.24168000 13.25505800
   0.72851900  3.32578000 16.24148800
   6.91807000 11.67060000 16.72898800
   9.51029000  2.32036000 13.95623800
   2.74106000 10.41310000 12.32001800
   7.22319000  4.99561000 13.47552800
  11.38800000 12.90260000 10.48689400
   5.78174000  3.53908000 14.73503800
  12.01010000  8.29299000 13.02185800
  12.20900000 13.67480000 17.34768800
  12.09420000  5.99291000 15.95297800
  12.61400000 10.51500000 13.70601800
   7.96060000  3.50258000 17.97234800
   7.26424000 12.83790000 18.74818800
   4.86976000  2.91245000 11.19851800
   9.58811000  3.73995000 10.54320200
  11.63960000  4.45200000 11.47500800
  10.14210000  3.23430000 18.57616800
  14.52570000  7.05567000 18.34269800
  10.58130000  0.12508900 11.57916800
   2.43696000  4.88956000 16.23201800
   1.88690000 12.41950000 12.89818800
   1.53901000  6.93792000 16.72708800
   5.80963000  6.76381000 13.33946800
  12.21350000  3.25317000 13.45815800
   1.75683000 12.87260000 18.68236800
   0.89048900  3.95438000 10.13344800
   9.14879000  9.78060000 14.41778800
   7.37117000  1.52622000 14.90260800
   9.38608000  8.68951000 17.70006800
  10.37730000  0.34898500 16.51120800
   9.85747000  7.67442000 13.79317800
   0.00191930 10.39820000 15.09679800
  11.26940000  2.52840000 16.79025800
  11.71760000  0.93435700 13.38555800
   2.79827000  8.75976000 13.92526800
  14.22170000 14.02140000 16.04909800
   3.31791000  1.69362000 10.14563900
   7.29622000  1.63764000 17.12509800
   3.33209000  0.46269100 16.16690800
   6.67263000 14.44130000 13.38867800
  10.84220000 11.49180000 15.03567800
   0.88786200  8.30102000 14.95950800
  13.29460000  3.13502000 17.66596800
   3.86124000 13.84540000 12.56755800
   1.52942000  9.50888000 10.67652800
   5.42404000 12.55170000 13.72779800
   2.44015000  4.92224000 13.83825800
   4.63533000  4.45351000 16.66194800
  10.50210000 13.68290000 14.60909800
   4.69843000 11.68670000 15.88062800
   8.74081000  0.08892340 18.32981800
   2.91813000  8.52810000 17.60050800
   7.75170000  9.45804000 16.12682800
   0.23309100 14.35340000 10.11377500
   1.23569000  1.19319000 16.78081800
  13.53760000  6.96966000 14.38156800
   2.74009000  5.65383000 10.68559400
   8.86114000 13.72970000 12.88576800
  14.39660000 13.09520000 12.04032800
   4.51723000  3.05221000 18.43616800
  12.32380000  8.17805000 10.73636600
   8.85652000  5.74586000 14.96553800
   5.00927000  4.83826000 10.00000000
  11.27690000  8.12386000 16.53679800
   6.62464000  1.54056000 11.71069800
  13.82140000 14.50430000 13.69766800
   0.13158900  5.35957000 13.06789800
   6.06428000  7.98643000 15.38649800
  12.89600000 11.55560000 11.63602800
   5.95877000  6.38630000 17.15674800
   4.12526000  9.49315000 15.78162800
   1.09008000  1.83106000 10.88378100
   7.96050000  5.49721000 17.15308800
  14.54520000  3.24014000 13.95972800



--------------------------------------------------------------------------------------------------------


 k-point     1 :   0.0000 0.0000 0.0000  plane waves:  574451
 k-point     2 :   0.5000 0.0000 0.0000  plane waves:  574926
 k-point     3 :   0.0000 0.5000 0.0000  plane waves:  574926
 k-point     4 :   0.5000 0.5000 0.0000  plane waves:  574940

 maximum and minimum number of plane-waves per node :     35981    35834

 maximum number of plane-waves:    574940
 maximum index in each direction: 
   IXMAX=   41   IYMAX=   41   IZMAX=   81
   IXMIN=  -41   IYMIN=  -41   IZMIN=  -81


 parallel 3D FFT for wavefunctions:
    minimum data exchange during FFTs selected (reduces bandwidth)
 parallel 3D FFT for charge:
    minimum data exchange during FFTs selected (reduces bandwidth)


 total amount of memory used by VASP MPI-rank0   385089. kBytes
=======================================================================

   base                                    :      30000. kBytes
   nonl-proj                               :      81143. kBytes
   fftplans                                :     114270. kBytes
   grid                                    :      88184. kBytes
   one-center                              :         21. kBytes
   wavefun                                 :      71471. kBytes

     INWAV:  cpu time     20.3428: real time     20.3544
 Broyden mixing: mesh for mixing (old mesh)
   NGX = 83   NGY = 83   NGZ =163
  (NGX  =336   NGY  =336   NGZ  =672)
  gives a total of ****** points

 initial charge density was supplied:
 number of electron     381.9999999 magnetization 
 keeping initial charge density in first step


--------------------------------------------------------------------------------------------------------


 Maximum index for augmentation-charges        11644 (set IRDMAX)


--------------------------------------------------------------------------------------------------------


 First call to EWALD:  gamma=   0.097
 Maximum number of real-space cells   3x   3x   2
 Maximum number of reciprocal cells   2x   2x   4

    FEWALD:  cpu time      0.0198: real time      0.0203


--------------------------------------- Ionic step        1  -------------------------------------------




--------------------------------------- Iteration      1(   1)  ---------------------------------------


    POTLOK:  cpu time      2.3737: real time      2.3759
    SETDIJ:  cpu time      1.7928: real time      1.7937
    EDDIAG:  cpu time     41.7415: real time     41.7682
     EDDAV:  cpu time    197.1395: real time    197.2429
       DOS:  cpu time      0.0088: real time      0.0097
    CHARGE:  cpu time     24.3661: real time     24.3895
    MIXING:  cpu time      0.0514: real time      0.0523
    --------------------------------------------
      LOOP:  cpu time    267.4737: real time    267.6322

 eigenvalue-minimisations  :  1984
 total energy-change (2. order) :-0.9561675E+03  (-0.1066473E+01)
 number of electron     381.9999999 magnetization 
 augmentation part      -20.6223377 magnetization 

 Broyden mixing:
  rms(total) = 0.11550E+01    rms(broyden)= 0.11550E+01
  rms(prec ) = 0.11573E+01
  weight for this iteration     100.00

 Free energy of the ion-electron system (eV)
  ---------------------------------------------------
  alpha Z        PSCENC =        50.78633987
  Ewald energy   TEWEN  =     61354.59565221
  -Hartree energ DENC   =    -69802.09142132
  -exchange      EXHF   =         0.00000000
  -V(xc)+E(xc)   XCENC  =      -400.31465751
  PAW double counting   =     33734.82111151   -32827.65869411
  entropy T*S    EENTRO =        -0.24898272
  eigenvalues    EBANDS =     -2669.92938366
  atomic energy  EATOM  =      9603.87257323
  Solvation  Ediel_sol  =         0.00000000
  ---------------------------------------------------
  free energy    TOTEN  =      -956.16746249 eV

  energy without entropy =     -955.91847977  energy(sigma->0) =     -956.04297113


--------------------------------------------------------------------------------------------------------




--------------------------------------- Iteration      1(   2)  ---------------------------------------


    POTLOK:  cpu time      2.3619: real time      2.3633
    SETDIJ:  cpu time      1.7811: real time      1.7827
    EDDIAG:  cpu time     41.7099: real time     41.7393
     EDDAV:  cpu time    198.8287: real time    198.9390
       DOS:  cpu time      0.0021: real time      0.0021
    CHARGE:  cpu time     24.2314: real time     24.2910
    MIXING:  cpu time      0.0450: real time      0.0450
    --------------------------------------------
      LOOP:  cpu time    268.9600: real time    269.1625

 eigenvalue-minimisations  :  2016
 total energy-change (2. order) : 0.6814361E+02  (-0.1052255E+01)
 number of electron     381.9999999 magnetization 
 augmentation part      -20.5592452 magnetization 

 Broyden mixing:
  rms(total) = 0.78790E+00    rms(broyden)= 0.78790E+00
  rms(prec ) = 0.79193E+00
  weight for this iteration     100.00

 eigenvalues of (default mixing * dielectric matrix)
  average eigenvalue GAMMA=   2.4801
  2.4801

 Free energy of the ion-electron system (eV)
  ---------------------------------------------------
  alpha Z        PSCENC =        50.78633987
  Ewald energy   TEWEN  =     61354.59565221
  -Hartree energ DENC   =    -69786.77314663
  -exchange      EXHF   =         0.00000000
  -V(xc)+E(xc)   XCENC  =      -390.66373072
  PAW double counting   =     40172.46302557   -39265.06324314
  entropy T*S    EENTRO =        -0.24096972
  eigenvalues    EBANDS =     -2627.00035420
  atomic energy  EATOM  =      9603.87257323
  Solvation  Ediel_sol  =         0.00000000
  ---------------------------------------------------
  free energy    TOTEN  =      -888.02385353 eV

  energy without entropy =     -887.78288381  energy(sigma->0) =     -887.90336867


--------------------------------------------------------------------------------------------------------




--------------------------------------- Iteration      1(   3)  ---------------------------------------


    POTLOK:  cpu time      2.3271: real time      2.3504
    SETDIJ:  cpu time      1.7886: real time      1.7902
    EDDIAG:  cpu time     41.7001: real time     41.7261
     EDDAV:  cpu time    197.7822: real time    197.9070
       DOS:  cpu time      0.0021: real time      0.0021
    CHARGE:  cpu time     24.2631: real time     24.2865
    MIXING:  cpu time      0.0423: real time      0.0424
    --------------------------------------------
      LOOP:  cpu time    267.9054: real time    268.1046

 eigenvalue-minimisations  :  1992
 total energy-change (2. order) :-0.3122542E+01  (-0.9095155E+00)
 number of electron     381.9999999 magnetization 
 augmentation part      -20.4736043 magnetization 

 Broyden mixing:
  rms(total) = 0.33287E+00    rms(broyden)= 0.33287E+00
  rms(prec ) = 0.47770E+00
  weight for this iteration     100.00

 eigenvalues of (default mixing * dielectric matrix)
  average eigenvalue GAMMA=   1.6420
  2.6783  0.6057

 Free energy of the ion-electron system (eV)
  ---------------------------------------------------
  alpha Z        PSCENC =        50.78633987
  Ewald energy   TEWEN  =     61354.59565221
  -Hartree energ DENC   =    -69788.51676451
  -exchange      EXHF   =         0.00000000
  -V(xc)+E(xc)   XCENC  =      -393.78706636
  PAW double counting   =     51424.77268348   -50517.63289745
  entropy T*S    EENTRO =        -0.24532008
  eigenvalues    EBANDS =     -2624.99159594
  atomic energy  EATOM  =      9603.87257323
  Solvation  Ediel_sol  =         0.00000000
  ---------------------------------------------------
  free energy    TOTEN  =      -891.14639554 eV

  energy without entropy =     -890.90107546  energy(sigma->0) =     -891.02373550


--------------------------------------------------------------------------------------------------------




--------------------------------------- Iteration      1(   4)  ---------------------------------------


    POTLOK:  cpu time      2.3352: real time      2.3627
    SETDIJ:  cpu time      1.7872: real time      1.7881
    EDDIAG:  cpu time     41.7085: real time     41.7319
     EDDAV:  cpu time    218.2112: real time    218.3348
       DOS:  cpu time      0.0021: real time      0.0021
    CHARGE:  cpu time     24.2076: real time     24.2325
    MIXING:  cpu time      0.0434: real time      0.0434
    --------------------------------------------
      LOOP:  cpu time    288.2951: real time    288.4955

 eigenvalue-minimisations  :  2352
 total energy-change (2. order) : 0.5936446E-01  (-0.2401317E+00)
 number of electron     381.9999999 magnetization 
 augmentation part      -20.4660020 magnetization 

 Broyden mixing:
  rms(total) = 0.26181E+00    rms(broyden)= 0.26181E+00
  rms(prec ) = 0.43546E+00
  weight for this iteration     100.00

 eigenvalues of (default mixing * dielectric matrix)
  average eigenvalue GAMMA=   1.2161
  2.6710  0.5917  0.3855

 Free energy of the ion-electron system (eV)
  ---------------------------------------------------
  alpha Z        PSCENC =        50.78633987
  Ewald energy   TEWEN  =     61354.59565221
  -Hartree energ DENC   =    -69787.54309092
  -exchange      EXHF   =         0.00000000
  -V(xc)+E(xc)   XCENC  =      -395.68201445
  PAW double counting   =     53320.26864850   -52413.12856353
  entropy T*S    EENTRO =        -0.26046588
  eigenvalues    EBANDS =     -2623.99611012
  atomic energy  EATOM  =      9603.87257323
  Solvation  Ediel_sol  =         0.00000000
  ---------------------------------------------------
  free energy    TOTEN  =      -891.08703108 eV

  energy without entropy =     -890.82656519  energy(sigma->0) =     -890.95679813


--------------------------------------------------------------------------------------------------------




--------------------------------------- Iteration      1(   5)  ---------------------------------------


    POTLOK:  cpu time      2.3307: real time      2.3597
    SETDIJ:  cpu time      1.7933: real time      1.7947
    EDDIAG:  cpu time     41.7246: real time     41.7495
     EDDAV:  cpu time    211.2387: real time    211.3617
       DOS:  cpu time      0.0030: real time      0.0030
    CHARGE:  cpu time     24.2051: real time     24.2280
    MIXING:  cpu time      0.0425: real time      0.0425
    --------------------------------------------
      LOOP:  cpu time    281.3381: real time    281.5393

 eigenvalue-minimisations  :  2232
 total energy-change (2. order) : 0.1672816E+00  (-0.1140538E+00)
 number of electron     381.9999999 magnetization 
 augmentation part      -20.4852512 magnetization 

 Broyden mixing:
  rms(total) = 0.78815E-01    rms(broyden)= 0.78815E-01
  rms(prec ) = 0.10691E+00
  weight for this iteration     100.00

 eigenvalues of (default mixing * dielectric matrix)
  average eigenvalue GAMMA=   1.1419
  2.5548  1.0521  0.6956  0.2651

 Free energy of the ion-electron system (eV)
  ---------------------------------------------------
  alpha Z        PSCENC =        50.78633987
  Ewald energy   TEWEN  =     61354.59565221
  -Hartree energ DENC   =    -69788.52637675
  -exchange      EXHF   =         0.00000000
  -V(xc)+E(xc)   XCENC  =      -396.46726802
  PAW double counting   =     53431.95999753   -52524.79902644
  entropy T*S    EENTRO =        -0.24246892
  eigenvalues    EBANDS =     -2622.09917220
  atomic energy  EATOM  =      9603.87257323
  Solvation  Ediel_sol  =         0.00000000
  ---------------------------------------------------
  free energy    TOTEN  =      -890.91974949 eV

  energy without entropy =     -890.67728057  energy(sigma->0) =     -890.79851503


--------------------------------------------------------------------------------------------------------




--------------------------------------- Iteration      1(   6)  ---------------------------------------


    POTLOK:  cpu time      2.3347: real time      2.3640
    SETDIJ:  cpu time      1.7871: real time      1.7880
    EDDIAG:  cpu time     41.7419: real time     41.7706
     EDDAV:  cpu time    200.9076: real time    201.0223
       DOS:  cpu time      0.0045: real time      0.0045
    CHARGE:  cpu time     24.2052: real time     24.2275
    MIXING:  cpu time      0.0445: real time      0.0445
    --------------------------------------------
      LOOP:  cpu time    271.0253: real time    271.2212

 eigenvalue-minimisations  :  2048
 total energy-change (2. order) :-0.3055871E-01  (-0.3394859E-01)
 number of electron     381.9999999 magnetization 
 augmentation part      -20.4938248 magnetization 

 Broyden mixing:
  rms(total) = 0.85066E-01    rms(broyden)= 0.85066E-01
  rms(prec ) = 0.99648E-01
  weight for this iteration     100.00

 eigenvalues of (default mixing * dielectric matrix)
  average eigenvalue GAMMA=   1.0189
  2.5305  1.2111  0.5435  0.5435  0.2659

 Free energy of the ion-electron system (eV)
  ---------------------------------------------------
  alpha Z        PSCENC =        50.78633987
  Ewald energy   TEWEN  =     61354.59565221
  -Hartree energ DENC   =    -69786.83133944
  -exchange      EXHF   =         0.00000000
  -V(xc)+E(xc)   XCENC  =      -396.66166676
  PAW double counting   =     53084.64407326   -52177.45262143
  entropy T*S    EENTRO =        -0.23959116
  eigenvalues    EBANDS =     -2623.66372799
  atomic energy  EATOM  =      9603.87257323
  Solvation  Ediel_sol  =         0.00000000
  ---------------------------------------------------
  free energy    TOTEN  =      -890.95030820 eV

  energy without entropy =     -890.71071703  energy(sigma->0) =     -890.83051262


--------------------------------------------------------------------------------------------------------




--------------------------------------- Iteration      1(   7)  ---------------------------------------


    POTLOK:  cpu time      2.3276: real time      2.3557
    SETDIJ:  cpu time      1.7908: real time      1.7920
    EDDIAG:  cpu time     41.7419: real time     41.7687
     EDDAV:  cpu time    204.2965: real time    204.4139
       DOS:  cpu time      0.0020: real time      0.0020
    CHARGE:  cpu time     24.2477: real time     24.2691
    MIXING:  cpu time      0.0436: real time      0.0437
    --------------------------------------------
      LOOP:  cpu time    274.4502: real time    274.6450

 eigenvalue-minimisations  :  2104
 total energy-change (2. order) : 0.3108016E-02  (-0.5358468E-02)
 number of electron     381.9999999 magnetization 
 augmentation part      -20.4871088 magnetization 

 Broyden mixing:
  rms(total) = 0.31291E-01    rms(broyden)= 0.31291E-01
  rms(prec ) = 0.34257E-01
  weight for this iteration     100.00

 eigenvalues of (default mixing * dielectric matrix)
  average eigenvalue GAMMA=   1.0655
  2.4818  1.7344  0.7663  0.5729  0.5729  0.2646

 Free energy of the ion-electron system (eV)
  ---------------------------------------------------
  alpha Z        PSCENC =        50.78633987
  Ewald energy   TEWEN  =     61354.59565221
  -Hartree energ DENC   =    -69786.82226487
  -exchange      EXHF   =         0.00000000
  -V(xc)+E(xc)   XCENC  =      -396.73567282
  PAW double counting   =     53036.40713775   -52129.21169732
  entropy T*S    EENTRO =        -0.24314987
  eigenvalues    EBANDS =     -2623.59611837
  atomic energy  EATOM  =      9603.87257323
  Solvation  Ediel_sol  =         0.00000000
  ---------------------------------------------------
  free energy    TOTEN  =      -890.94720018 eV

  energy without entropy =     -890.70405031  energy(sigma->0) =     -890.82562525


--------------------------------------------------------------------------------------------------------




--------------------------------------- Iteration      1(   8)  ---------------------------------------


    POTLOK:  cpu time      2.3565: real time      2.3577
    SETDIJ:  cpu time      1.7874: real time      1.7889
    EDDIAG:  cpu time     41.7519: real time     41.7804
     EDDAV:  cpu time    207.4659: real time    207.5848
       DOS:  cpu time      0.0024: real time      0.0024
    CHARGE:  cpu time     24.2058: real time     24.2287
    MIXING:  cpu time      0.0444: real time      0.0444
    --------------------------------------------
      LOOP:  cpu time    277.6144: real time    277.7873

 eigenvalue-minimisations  :  2160
 total energy-change (2. order) : 0.4183032E-02  (-0.1699099E-02)
 number of electron     381.9999999 magnetization 
 augmentation part      -20.4846251 magnetization 

 Broyden mixing:
  rms(total) = 0.17158E-01    rms(broyden)= 0.17158E-01
  rms(prec ) = 0.18189E-01
  weight for this iteration     100.00

 eigenvalues of (default mixing * dielectric matrix)
  average eigenvalue GAMMA=   1.1320
  2.4091  2.4091  0.8565  0.8565  0.5643  0.5643  0.2642

 Free energy of the ion-electron system (eV)
  ---------------------------------------------------
  alpha Z        PSCENC =        50.78633987
  Ewald energy   TEWEN  =     61354.59565221
  -Hartree energ DENC   =    -69785.15019636
  -exchange      EXHF   =         0.00000000
  -V(xc)+E(xc)   XCENC  =      -396.53424102
  PAW double counting   =     53029.45941050   -52122.25027068
  entropy T*S    EENTRO =        -0.24392746
  eigenvalues    EBANDS =     -2625.47835746
  atomic energy  EATOM  =      9603.87257323
  Solvation  Ediel_sol  =         0.00000000
  ---------------------------------------------------
  free energy    TOTEN  =      -890.94301715 eV

  energy without entropy =     -890.69908969  energy(sigma->0) =     -890.82105342


--------------------------------------------------------------------------------------------------------




--------------------------------------- Iteration      1(   9)  ---------------------------------------


    POTLOK:  cpu time      2.3302: real time      2.3602
    SETDIJ:  cpu time      1.7984: real time      1.7998
    EDDIAG:  cpu time     41.7335: real time     41.7601
     EDDAV:  cpu time    207.2214: real time    207.3346
       DOS:  cpu time      0.0021: real time      0.0021
    CHARGE:  cpu time     24.1851: real time     24.2110
    MIXING:  cpu time      0.0450: real time      0.0450
    --------------------------------------------
      LOOP:  cpu time    277.3157: real time    277.5128

 eigenvalue-minimisations  :  2160
 total energy-change (2. order) :-0.5888758E-03  (-0.5022110E-03)
 number of electron     381.9999999 magnetization 
 augmentation part      -20.4836389 magnetization 

 Broyden mixing:
  rms(total) = 0.82625E-02    rms(broyden)= 0.82625E-02
  rms(prec ) = 0.93060E-02
  weight for this iteration     100.00

 eigenvalues of (default mixing * dielectric matrix)
  average eigenvalue GAMMA=   1.1464
  2.5500  2.5500  1.0430  1.0430  0.2642  0.5653  0.5653  0.5900

 Free energy of the ion-electron system (eV)
  ---------------------------------------------------
  alpha Z        PSCENC =        50.78633987
  Ewald energy   TEWEN  =     61354.59565221
  -Hartree energ DENC   =    -69784.84559147
  -exchange      EXHF   =         0.00000000
  -V(xc)+E(xc)   XCENC  =      -396.36015331
  PAW double counting   =     53059.26853400   -52152.04757382
  entropy T*S    EENTRO =        -0.24375090
  eigenvalues    EBANDS =     -2625.96963585
  atomic energy  EATOM  =      9603.87257323
  Solvation  Ediel_sol  =         0.00000000
  ---------------------------------------------------
  free energy    TOTEN  =      -890.94360603 eV

  energy without entropy =     -890.69985512  energy(sigma->0) =     -890.82173057


--------------------------------------------------------------------------------------------------------




--------------------------------------- Iteration      1(  10)  ---------------------------------------


    POTLOK:  cpu time      2.3565: real time      2.3587
    SETDIJ:  cpu time      1.7982: real time      1.7993
    EDDIAG:  cpu time     41.7460: real time     41.7718
     EDDAV:  cpu time    207.0462: real time    207.1576
       DOS:  cpu time      0.0032: real time      0.0032
    CHARGE:  cpu time     24.2279: real time     24.2506
    MIXING:  cpu time      0.0487: real time      0.0487
    --------------------------------------------
      LOOP:  cpu time    277.2266: real time    277.3898

 eigenvalue-minimisations  :  2160
 total energy-change (2. order) :-0.2457280E-03  (-0.1305522E-03)
 number of electron     381.9999999 magnetization 
 augmentation part      -20.4829585 magnetization 

 Broyden mixing:
  rms(total) = 0.31691E-02    rms(broyden)= 0.31691E-02
  rms(prec ) = 0.37170E-02
  weight for this iteration     100.00

 eigenvalues of (default mixing * dielectric matrix)
  average eigenvalue GAMMA=   1.1391
  2.6288  2.6288  1.2599  0.8933  0.8933  0.2642  0.5654  0.5654  0.5528

 Free energy of the ion-electron system (eV)
  ---------------------------------------------------
  alpha Z        PSCENC =        50.78633987
  Ewald energy   TEWEN  =     61354.59565221
  -Hartree energ DENC   =    -69784.63059330
  -exchange      EXHF   =         0.00000000
  -V(xc)+E(xc)   XCENC  =      -396.32322997
  PAW double counting   =     53073.62156414   -52166.39470573
  entropy T*S    EENTRO =        -0.24371831
  eigenvalues    EBANDS =     -2626.22773390
  atomic energy  EATOM  =      9603.87257323
  Solvation  Ediel_sol  =         0.00000000
  ---------------------------------------------------
  free energy    TOTEN  =      -890.94385175 eV

  energy without entropy =     -890.70013344  energy(sigma->0) =     -890.82199260


--------------------------------------------------------------------------------------------------------




--------------------------------------- Iteration      1(  11)  ---------------------------------------


    POTLOK:  cpu time      2.3303: real time      2.3569
    SETDIJ:  cpu time      1.7917: real time      1.7927
    EDDIAG:  cpu time     41.7676: real time     41.7963
     EDDAV:  cpu time    203.9083: real time    204.0249
       DOS:  cpu time      0.0129: real time      0.0137
    CHARGE:  cpu time     24.2168: real time     24.2397
    MIXING:  cpu time      0.0634: real time      0.0644
    --------------------------------------------
      LOOP:  cpu time    274.0911: real time    274.2887

 eigenvalue-minimisations  :  2104
 total energy-change (2. order) : 0.2002540E-05  (-0.6103043E-04)
 number of electron     381.9999999 magnetization 
 augmentation part      -20.4832053 magnetization 

 Broyden mixing:
  rms(total) = 0.19040E-02    rms(broyden)= 0.19040E-02
  rms(prec ) = 0.21230E-02
  weight for this iteration     100.00

 eigenvalues of (default mixing * dielectric matrix)
  average eigenvalue GAMMA=   1.1675
  2.6848  2.6848  1.6970  0.2642  1.0111  0.8317  0.8317  0.5634  0.5634  0.5432

 Free energy of the ion-electron system (eV)
  ---------------------------------------------------
  alpha Z        PSCENC =        50.78633987
  Ewald energy   TEWEN  =     61354.59565221
  -Hartree energ DENC   =    -69784.18217504
  -exchange      EXHF   =         0.00000000
  -V(xc)+E(xc)   XCENC  =      -396.31863940
  PAW double counting   =     53073.07716161   -52165.84699916
  entropy T*S    EENTRO =        -0.24376986
  eigenvalues    EBANDS =     -2626.68399323
  atomic energy  EATOM  =      9603.87257323
  Solvation  Ediel_sol  =         0.00000000
  ---------------------------------------------------
  free energy    TOTEN  =      -890.94384975 eV

  energy without entropy =     -890.70007989  energy(sigma->0) =     -890.82196482


--------------------------------------------------------------------------------------------------------




--------------------------------------- Iteration      1(  12)  ---------------------------------------


    POTLOK:  cpu time      2.3217: real time      2.3543
    SETDIJ:  cpu time      1.8148: real time      1.8165
    EDDIAG:  cpu time     41.7373: real time     41.7629
     EDDAV:  cpu time    203.4759: real time    203.5926
       DOS:  cpu time      0.0026: real time      0.0026
    CHARGE:  cpu time     24.2524: real time     24.2728
    MIXING:  cpu time      0.0474: real time      0.0474
    --------------------------------------------
      LOOP:  cpu time    273.6521: real time    273.8491

 eigenvalue-minimisations  :  2088
 total energy-change (2. order) :-0.8086657E-04  (-0.2434557E-04)
 number of electron     381.9999999 magnetization 
 augmentation part      -20.4833262 magnetization 

 Broyden mixing:
  rms(total) = 0.10302E-02    rms(broyden)= 0.10302E-02
  rms(prec ) = 0.13145E-02
  weight for this iteration     100.00

 eigenvalues of (default mixing * dielectric matrix)
  average eigenvalue GAMMA=   1.1779
  2.7898  2.7898  1.9472  1.0951  0.8816  0.8816  0.2642  0.5630  0.5630  0.6082
  0.5732

 Free energy of the ion-electron system (eV)
  ---------------------------------------------------
  alpha Z        PSCENC =        50.78633987
  Ewald energy   TEWEN  =     61354.59565221
  -Hartree energ DENC   =    -69783.86457466
  -exchange      EXHF   =         0.00000000
  -V(xc)+E(xc)   XCENC  =      -396.33352461
  PAW double counting   =     53067.23736230   -52160.00583064
  entropy T*S    EENTRO =        -0.24363988
  eigenvalues    EBANDS =     -2626.98828846
  atomic energy  EATOM  =      9603.87257323
  Solvation  Ediel_sol  =         0.00000000
  ---------------------------------------------------
  free energy    TOTEN  =      -890.94393062 eV

  energy without entropy =     -890.70029074  energy(sigma->0) =     -890.82211068


--------------------------------------------------------------------------------------------------------




--------------------------------------- Iteration      1(  13)  ---------------------------------------


    POTLOK:  cpu time      2.3281: real time      2.3523
    SETDIJ:  cpu time      1.8002: real time      1.8017
    EDDIAG:  cpu time     41.7924: real time     41.8193
     EDDAV:  cpu time    201.4825: real time    201.5990
       DOS:  cpu time      0.0060: real time      0.0060
    CHARGE:  cpu time     24.2156: real time     24.2387
    MIXING:  cpu time      0.0502: real time      0.0502
    --------------------------------------------
      LOOP:  cpu time    271.6749: real time    271.8671

 eigenvalue-minimisations  :  2056
 total energy-change (2. order) :-0.8359654E-04  (-0.1634455E-04)
 number of electron     381.9999999 magnetization 
 augmentation part      -20.4833887 magnetization 

 Broyden mixing:
  rms(total) = 0.54583E-03    rms(broyden)= 0.54583E-03
  rms(prec ) = 0.75967E-03
  weight for this iteration     100.00

 eigenvalues of (default mixing * dielectric matrix)
  average eigenvalue GAMMA=   1.1965
  2.8960  2.8960  2.1352  1.2755  0.9140  0.9140  0.2642  0.8416  0.5636  0.5636
  0.5471  0.5471

 Free energy of the ion-electron system (eV)
  ---------------------------------------------------
  alpha Z        PSCENC =        50.78633987
  Ewald energy   TEWEN  =     61354.59565221
  -Hartree energ DENC   =    -69783.56610311
  -exchange      EXHF   =         0.00000000
  -V(xc)+E(xc)   XCENC  =      -396.33997774
  PAW double counting   =     53065.02897409   -52157.79687337
  entropy T*S    EENTRO =        -0.24374287
  eigenvalues    EBANDS =     -2627.28085652
  atomic energy  EATOM  =      9603.87257323
  Solvation  Ediel_sol  =         0.00000000
  ---------------------------------------------------
  free energy    TOTEN  =      -890.94401422 eV

  energy without entropy =     -890.70027134  energy(sigma->0) =     -890.82214278


--------------------------------------------------------------------------------------------------------




--------------------------------------- Iteration      1(  14)  ---------------------------------------


    POTLOK:  cpu time      2.3555: real time      2.3567
    SETDIJ:  cpu time      1.7981: real time      1.7993
    EDDIAG:  cpu time     41.7786: real time     41.8043
     EDDAV:  cpu time    200.9047: real time    201.0163
       DOS:  cpu time      0.0023: real time      0.0023
    CHARGE:  cpu time     24.2268: real time     24.2515
    MIXING:  cpu time      0.0494: real time      0.0494
    --------------------------------------------
      LOOP:  cpu time    271.1154: real time    271.2799

 eigenvalue-minimisations  :  2048
 total energy-change (2. order) :-0.1286783E-03  (-0.1796304E-04)
 number of electron     381.9999999 magnetization 
 augmentation part      -20.4834608 magnetization 

 Broyden mixing:
  rms(total) = 0.34456E-03    rms(broyden)= 0.34456E-03
  rms(prec ) = 0.52510E-03
  weight for this iteration     100.00

 eigenvalues of (default mixing * dielectric matrix)
  average eigenvalue GAMMA=   1.2147
  3.1017  2.8319  2.2264  1.6324  0.9518  0.9518  0.2642  0.8975  0.5635  0.5635
  0.6971  0.5332  0.5761

 Free energy of the ion-electron system (eV)
  ---------------------------------------------------
  alpha Z        PSCENC =        50.78633987
  Ewald energy   TEWEN  =     61354.59565221
  -Hartree energ DENC   =    -69783.26964477
  -exchange      EXHF   =         0.00000000
  -V(xc)+E(xc)   XCENC  =      -396.34583025
  PAW double counting   =     53064.60810838   -52157.37601027
  entropy T*S    EENTRO =        -0.24371796
  eigenvalues    EBANDS =     -2627.57161334
  atomic energy  EATOM  =      9603.87257323
  Solvation  Ediel_sol  =         0.00000000
  ---------------------------------------------------
  free energy    TOTEN  =      -890.94414289 eV

  energy without entropy =     -890.70042494  energy(sigma->0) =     -890.82228392


--------------------------------------------------------------------------------------------------------




[...]
   0.138E+02 0.216E+02 -.798E+01   -.154E+02 -.223E+02 0.870E+01   0.927E+00 0.153E+01 -.196E+01   0.641E-04 0.393E-04 0.571E-04
   -.134E+02 -.267E+01 -.148E+03   0.126E+02 0.210E+01 0.148E+03   0.157E+01 0.135E+01 -.427E-01   -.382E-04 0.443E-04 0.481E-04
   -.143E+02 0.249E+02 -.355E+03   0.129E+02 -.253E+02 0.354E+03   0.154E+01 0.836E+00 0.185E+00   0.264E-04 0.373E-04 -.117E-04
   0.601E+01 -.419E+02 -.314E+03   -.538E+01 0.404E+02 0.313E+03   0.768E-01 0.207E+01 0.949E+00   0.527E-04 0.194E-04 0.325E-04
   0.153E+02 -.102E+02 -.169E+03   -.118E+02 0.108E+02 0.166E+03   -.377E+01 -.408E-01 0.331E+01   0.114E-05 0.114E-04 0.901E-04
   0.233E+02 0.138E+02 0.393E+03   -.227E+02 -.153E+02 -.394E+03   -.456E+00 0.108E+01 0.738E+00   0.173E-04 0.156E-04 0.273E-04
   0.721E+01 0.730E+01 -.269E+03   -.481E+01 -.641E+01 0.265E+03   -.263E+01 -.191E+01 0.385E+01   0.307E-04 -.912E-04 0.140E-04
   0.248E+01 -.145E+01 0.289E+02   -.268E+01 0.208E+01 -.293E+02   0.558E+00 -.373E+00 -.569E+00   0.179E-04 -.289E-04 0.286E-04
   0.942E+01 -.525E+02 0.345E+03   -.825E+01 0.508E+02 -.344E+03   -.428E+00 0.103E+01 -.506E+00   -.524E-04 -.572E-04 -.218E-04
   0.226E+02 0.266E+02 0.174E+03   -.223E+02 -.297E+02 -.174E+03   -.299E+00 0.279E+01 -.217E+00   0.366E-04 0.110E-03 0.686E-04
   0.373E+01 0.151E+02 0.240E+03   -.447E+01 -.148E+02 -.240E+03   0.158E+01 0.377E+00 -.625E+00   0.305E-04 0.875E-04 -.146E-04
   0.254E+02 -.533E+01 -.380E+03   -.249E+02 0.491E+01 0.380E+03   -.374E+00 0.754E+00 0.113E+01   0.282E-04 -.341E-04 -.234E-04
   0.309E+02 0.310E+02 0.348E+03   -.326E+02 -.336E+02 -.350E+03   0.133E+01 0.146E+01 0.127E+01   0.701E-04 -.105E-04 -.830E-05
   -.698E+01 -.242E+02 -.354E+02   0.535E+01 0.225E+02 0.344E+02   0.229E+01 0.160E+01 0.838E+00   -.164E-04 -.492E-04 0.838E-04
   -.453E+02 -.485E+02 0.379E+03   0.480E+02 0.493E+02 -.381E+03   -.296E+01 0.560E+00 0.183E+01   -.376E-04 -.142E-03 0.102E-04
   0.201E+02 0.124E+02 -.199E+03   -.216E+02 -.101E+02 0.201E+03   0.129E+01 -.251E+01 -.690E+00   -.413E-04 0.438E-05 0.431E-04
   -.296E+02 0.329E+02 0.295E+03   0.296E+02 -.316E+02 -.295E+03   -.557E-02 -.178E+01 -.200E-01   -.527E-04 -.107E-04 -.104E-04
   0.249E+02 0.601E+01 0.571E+02   -.242E+02 -.509E+01 -.593E+02   -.150E+01 -.575E+00 0.316E+01   0.277E-04 -.233E-04 -.229E-04
   0.149E+02 -.296E+02 0.154E+03   -.159E+02 0.290E+02 -.153E+03   0.182E+01 0.376E+00 0.885E+00   0.120E-04 -.588E-04 0.820E-05
   -.607E+01 -.202E+02 -.665E+02   0.548E+01 0.201E+02 0.685E+02   -.914E-01 0.436E+00 -.132E+01   -.650E-05 -.522E-05 0.125E-03
   0.288E+02 0.204E+02 0.271E+03   -.266E+02 -.187E+02 -.269E+03   -.272E+01 -.297E+01 -.166E+01   0.854E-04 0.160E-03 0.167E-04
   0.292E+00 -.198E+02 -.263E+03   0.902E+00 0.201E+02 0.262E+03   -.265E+01 0.397E+00 0.334E+00   0.117E-04 -.399E-04 0.557E-04
   -.122E+02 -.116E+02 -.125E+03   0.118E+02 0.117E+02 0.126E+03   0.519E+00 -.176E+01 -.668E+00   -.668E-06 0.383E-04 0.537E-04
   0.342E+02 -.850E+01 0.324E+03   -.342E+02 0.903E+01 -.323E+03   0.417E-01 -.799E+00 -.940E+00   0.818E-05 -.132E-03 -.413E-05
   -.272E+02 -.378E+02 -.267E+03   0.240E+02 0.354E+02 0.267E+03   0.464E+01 0.405E+01 -.585E+00   -.234E-04 -.236E-04 0.363E-04
   0.173E+02 -.727E+01 0.444E+02   -.170E+02 0.680E+01 -.446E+02   -.134E+01 0.124E+01 0.748E+00   0.211E-04 -.848E-04 -.180E-04
 -----------------------------------------------------------------------------------------------
   0.349E+01 -.203E+01 -.276E+02   -.153E-12 0.604E-13 0.000E+00   -.350E+01 0.201E+01 0.276E+02   0.135E-03 -.197E-03 0.227E-02


 POSITION                                       TOTAL-FORCE (eV/Angst)
 -----------------------------------------------------------------------------------
      8.02945      8.49596     11.59840        -0.656803     -0.504606     -0.374775
      5.87317     10.11980     17.99075        -0.202979     -0.516331     -0.052727
      9.37581      7.39910     12.34491         0.029205      0.017612      0.888973
      4.12695     10.61640     12.02014         0.861953      0.058287     -0.411928
      8.57428     12.37860     12.33795         0.109986     -0.185559      0.027469
      5.38329     11.36230     11.04109         0.836275      0.504781     -0.410293
     10.51770     10.46410     11.92691        -0.824803     -0.296288     -0.245413
      8.69034     11.35220     10.06765         0.845214      0.557032      0.108722
      5.95853      9.39967     11.94605        -0.317930     -0.043835     -0.347269
     11.43900      9.39124     15.74774         0.315521     -0.214267     -0.436956
      9.77457     10.30350     11.75714         0.902009      0.231010      0.004914
      7.83449     12.60550     15.93061        -0.246335     -0.170411     -0.449468
     14.52682      5.58487     11.63857        -0.052248     -0.075521     -0.919472
      6.01113     11.78400     10.89740        -0.578097     -0.498558     -0.062528
      6.17244     11.29500     13.17260        -0.522912      1.112178      0.158450
      1.19884      3.67744     18.67978        -0.041038     -0.278305     -0.640287
      8.38176     10.13050     13.20647        -0.278640      0.385733     -0.153662
     11.41560      5.97643     11.55384         0.387826     -0.518270      0.000352
      3.20833      1.22347     13.73598        -0.693693     -1.824705      1.555235
      5.06309      0.99640     17.73194         0.121395     -1.062766     -0.637889
     11.49410     11.54280     17.33794        -0.175491     -0.724331     -0.377389
      0.91442      1.38129     13.12214         1.161783     -0.012225      0.365430
     13.78530      9.82431     10.21252         1.237711      0.602706      0.963682
      3.42573      6.65089     12.79734         0.977434      1.065830      0.054604
     10.70800      4.10762     15.12834        -0.248814      0.373036     -0.352844
     12.84210      8.72938     18.17383         1.383318     -0.938782      0.074526
      4.71019      7.56099     18.73264         0.298730      0.895070     -0.123478
     13.63650     10.62120     17.24263         0.135565      0.538939      0.515747
     12.87100      5.38071     18.06826         0.240683     -0.644439      0.091801
      1.04499     12.27720     15.07640         0.640743      1.905550     -0.026420
      2.73999     12.78390     16.41719         1.032700      0.003168      1.866066
      3.96529     13.97320     10.31667        -0.422149      0.627589     -1.164445
      8.20315      3.16324     12.28354        -0.221688      0.261921     -0.297264
      6.55921      8.06229     11.64851         0.636806      1.119695      0.128354
      3.95207      3.24168     13.25506         0.390433      0.720758      0.547495
      0.72852      3.32578     16.24149        -1.164493      0.230360      0.595204
      6.91807     11.67060     16.72899         0.140162     -0.816877      0.001032
      9.51029      2.32036     13.95624         0.014420     -0.351017      1.053083
      2.74106     10.41310     12.32002        -0.598258     -0.124632      0.522847
      7.22319      4.99561     13.47553        -0.141481     -1.043096      0.724807
     11.38800     12.90260     10.48689        -0.269444     -0.571989     -0.670576
      5.78174      3.53908     14.73504         0.625349     -0.290149     -0.164326
     12.01010      8.29299     13.02186         0.758717      0.000361      1.199515
     12.20900     13.67480     17.34769         0.419042      0.592036     -0.633923
     12.09420      5.99291     15.95298         0.187222      0.246788      0.192254
     12.61400     10.51500     13.70602        -0.334684     -0.230705      0.616354
      7.96060      3.50258     17.97235         0.516982      0.485612      1.207391
      7.26424     12.83790     18.74819        -0.385148      0.664204      0.336413
      4.86976      2.91245     11.19852         0.152255      0.302918     -0.004525
      9.58811      3.73995     10.54320         0.932127      0.055670     -0.367433
     11.63960      4.45200     11.47501        -1.089408     -0.288596      0.204638
     10.14210      3.23430     18.57617        -0.538813      0.267840      1.272077
     14.52570      7.05567     18.34270        -1.855627     -0.179042      0.240164
     10.58130      0.12509     11.57917        -0.843737      0.295954      0.186638
      2.43696      4.88956     16.23202        -0.514363     -0.129094     -0.597910
      1.88690     12.41950     12.89819         0.215742      1.083775     -0.080222
      1.53901      6.93792     16.72709         0.386124      0.426102      0.260259
      5.80963      6.76381     13.33947        -0.439956      0.352791     -0.520823
     12.21350      3.25317     13.45816         0.264973      0.292529     -0.019120
      1.75683     12.87260     18.68237        -0.268911      0.001650     -1.377107
      0.89049      3.95438     10.13345         0.254839      1.487538     -0.375108
      9.14879      9.78060     14.41779         0.240161      0.834264     -0.461288
      7.37117      1.52622     14.90261        -0.601371      1.006501     -1.002458
      9.38608      8.68951     17.70007        -1.017774     -0.305602      0.406214
     10.37730      0.34898     16.51121        -0.083950      0.499158      1.511428
      9.85747      7.67442     13.79318        -0.060142     -0.504076     -0.798380
      0.00192     10.39820     15.09680        -1.792007     -1.521188      0.424487
     11.26940      2.52840     16.79026        -0.088864     -0.782306     -1.020221
     11.71760      0.93436     13.38556        -0.151635     -0.092080      0.066457
      2.79827      8.75976     13.92527         0.911400     -0.658842     -1.018942
     14.22170     14.02140     16.04910         0.126252      0.272077     -0.087650
      3.31791      1.69362     10.14564        -0.764111     -0.849898     -0.140287
      7.29622      1.63764     17.12510        -0.761219     -2.592470      1.163523
      3.33209      0.46269     16.16691         0.223731      0.224041     -0.533484
      6.67263     14.44130     13.38868         1.128428      0.794739      0.302900
     10.84220     11.49180     15.03568         0.441814     -1.593261     -0.176835
      0.88786      8.30102     14.95951        -1.462073     -0.756979      0.238750
     13.29460      3.13502     17.66597         1.693489      0.455294      0.028576
      3.86124     13.84540     12.56756        -1.145331     -0.399744      0.651380
      1.52942      9.50888     10.67653        -1.484399     -1.148383     -1.340482
      5.42404     12.55170     13.72780         0.000755     -1.262564      0.342804
      2.44015      4.92224     13.83826        -0.730469      0.247309      0.010067
      4.63533      4.45351     16.66195         1.065407      0.266992     -0.516861
     10.50210     13.68290     14.60910        -0.620613      0.923387     -1.355403
      4.69843     11.68670     15.88063         0.846926      0.810038     -0.309895
      8.74081      0.08892     18.32982         0.160303      0.505621     -1.090374
      2.91813      8.52810     17.60051         0.835010      0.568886     -0.077978
      7.75170      9.45804     16.12683        -0.404343      0.522949      0.937972
      0.23309     14.35340     10.11377         0.098287     -0.238309     -0.247426
      1.23569      1.19319     16.78082        -0.379158     -1.090996      0.056230
     13.53760      6.96966     14.38157         0.398777      0.218686     -1.090497
      2.74009      5.65383     10.68559         0.849976     -0.713058      0.287237
      8.86114     13.72970     12.88577        -0.047121     -0.149521     -0.181347
     14.39660     13.09520     12.04033         0.904330      0.715780     -0.571163
      4.51723      3.05221     18.43617         0.180022      0.302600      1.010600
     12.32380      8.17805     10.73637        -0.162822     -0.886603     -0.552956
      8.85652      5.74586     14.96554         0.790396      0.004379     -0.117743
      5.00927      4.83826     10.00000        -0.582628      1.308678     -0.120486
     11.27690      8.12386     16.53680        -0.099550     -0.182974      0.489878
      6.62464      1.54056     11.71070        -0.062565     -0.401708     -0.160338
     13.82140     14.50430     13.69767        -0.743122      0.339656      1.018026
      0.13159      5.35957     13.06790         0.921603     -0.266108      1.326279
      6.06428      7.98643     15.38650        -0.692615      0.385172      0.611244
     12.89600     11.55560     11.63603        -0.588946     -1.371704     -0.453680
      5.95877      6.38630     17.15675        -1.586624      0.749214     -0.514606
      4.12526      9.49315     15.78163         0.159058     -1.745776     -0.203410
      1.09008      1.83106     10.88378         0.175882     -0.333187     -0.196948
      7.96050      5.49721     17.15309         1.546939      1.794575     -0.678480
     14.54520      3.24014     13.95973        -1.070799      0.864710      0.466653
 -----------------------------------------------------------------------------------
    total drift:                               -0.010685     -0.014908      0.000010


--------------------------------------------------------------------------------------------------------



  FREE ENERGIE OF THE ION-ELECTRON SYSTEM (eV)
  ---------------------------------------------------
  free  energy   TOTEN  =      -890.94456381 eV

  energy  without entropy=     -890.70083996  energy(sigma->0) =     -890.82270189



--------------------------------------------------------------------------------------------------------


    POTLOK:  cpu time      4.1000: real time      4.1036


--------------------------------------------------------------------------------------------------------


     LOOP+:  cpu time   6433.6663: real time   6438.1652
    4ORBIT:  cpu time      0.0000: real time      0.0000



 total charge

# of ion       s       p       d       tot
------------------------------------------
    1        0.542   0.015   0.000   0.557
    2        0.421   0.003   0.000   0.424
    3        0.540   0.014   0.000   0.554
    4        0.593   0.020   0.000   0.612
    5        0.564   0.017   0.000   0.581
    6        0.598   0.030   0.000   0.628
    7        0.600   0.028   0.000   0.629
    8        0.383   0.000   0.000   0.383
    9        0.569   0.016   0.000   0.585
   10        0.563   0.020   0.000   0.584
   11        0.574   0.031   0.000   0.605
   12        0.555   0.014   0.000   0.569
   13        0.572   0.020   0.000   0.591
   14        0.594   0.029   0.000   0.624
   15        0.527   0.013   0.000   0.541
   16        0.395   0.002   0.000   0.397
   17        0.574   0.017   0.000   0.591
   18        0.526   0.016   0.000   0.542
   19        0.765   0.924   0.000   1.689
   20        0.798   0.856   0.000   1.655
   21        0.796   0.877   0.000   1.673
   22        0.771   0.980   0.000   1.751
   23        0.793   0.866   0.000   1.659
   24        0.764   0.890   0.000   1.654
   25        0.748   0.901   0.000   1.649
   26        0.803   0.859   0.000   1.663
   27        0.859   0.727   0.000   1.586
   28        0.794   0.874   0.000   1.667
   29        0.801   0.833   0.000   1.634
   30        0.768   0.996   0.000   1.764
   31        0.756   0.977   0.000   1.733
   32        0.863   0.746   0.000   1.609
   33        0.766   0.931   0.000   1.697
   34        0.782   0.909   0.000   1.691
   35        0.766   0.972   0.000   1.738
   36        0.763   0.905   0.000   1.668
   37        0.743   0.905   0.000   1.648
   38        0.809   0.820   0.000   1.629
   39        0.751   1.043   0.000   1.794
   40        0.758   0.943   0.000   1.701
   41        0.840   0.764   0.000   1.603
   42        0.769   0.874   0.000   1.643
   43        0.768   0.916   0.000   1.685
   44        0.806   0.838   0.000   1.644
   45        0.786   0.873   0.000   1.659
   46        0.763   0.906   0.000   1.669
   47        0.782   0.981   0.000   1.763
   48        0.867   0.712   0.000   1.580
   49        0.766   1.000   0.000   1.766
   50        0.858   0.748   0.000   1.606
   51        0.782   0.864   0.000   1.646
   52        0.849   0.785   0.000   1.634
   53        0.797   0.855   0.000   1.651
   54        0.795   0.891   0.000   1.686
   55        0.762   0.949   0.000   1.711
   56        0.772   0.943   0.000   1.716
   57        0.761   0.977   0.000   1.738
   58        0.761   0.938   0.000   1.699
   59        0.781   0.873   0.000   1.654
   60        0.927   0.569   0.000   1.496
   61        0.880   0.692   0.000   1.572
   62        0.756   0.984   0.000   1.740
   63        0.782   0.877   0.000   1.658
   64        0.857   0.735   0.000   1.592
   65        0.770   0.901   0.000   1.671
   66        0.744   0.946   0.000   1.691
   67        0.761   0.997   0.000   1.758
   68        0.773   0.945   0.000   1.718
   69        0.751   0.920   0.000   1.670
   70        0.762   0.948   0.000   1.710
   71        0.756   0.867   0.000   1.623
   72        0.799   0.863   0.000   1.662
   73        0.777   0.940   0.000   1.717
   74        0.764   0.898   0.000   1.662
   75        0.757   0.944   0.000   1.700
   76        0.761   0.902   0.000   1.663
   77        0.759   0.973   0.000   1.732
   78        0.807   0.824   0.000   1.631
   79        0.763   0.934   0.000   1.697
   80        0.833   0.774   0.000   1.607
   81        0.743   0.942   0.000   1.686
   82        0.762   0.932   0.000   1.694
   83        0.759   0.940   0.000   1.699
   84        0.775   0.916   0.000   1.690
   85        0.751   0.944   0.000   1.695
   86        0.803   0.812   0.000   1.616
   87        0.794   0.871   0.000   1.665
   88        0.754   0.942   0.000   1.696
   89        0.859   0.739   0.000   1.599
   90        0.789   0.853   0.000   1.641
   91        0.759   0.905   0.000   1.664
   92        0.815   0.747   0.000   1.562
   93        0.760   0.943   0.000   1.703
   94        0.769   1.001   0.000   1.770
   95        0.850   0.782   0.000   1.632
   96        0.864   0.757   0.000   1.621
   97        0.766   0.864   0.000   1.631
   98        0.873   0.713   0.000   1.586
   99        0.767   0.949   0.000   1.716
  100        0.791   0.873   0.000   1.664
  101        0.777   0.950   0.000   1.727
  102        0.755   0.954   0.000   1.709
  103        0.767   0.881   0.000   1.648
  104        0.764   0.960   0.000   1.724
  105        0.771   0.948   0.000   1.719
  106        0.763   0.900   0.000   1.663
  107        0.770   0.958   0.000   1.728
  108        0.775   0.950   0.000   1.724
  109        0.770   0.956   0.000   1.726
--------------------------------------------------
tot         81.227  81.041   0.000 162.268


 total amount of memory used by VASP MPI-rank0   385089. kBytes
=======================================================================

   base                                    :      30000. kBytes
   nonl-proj                               :      81143. kBytes
   fftplans                                :     114270. kBytes
   grid                                    :      88184. kBytes
   one-center                              :         21. kBytes
   wavefun                                 :      71471. kBytes

  
  
 General timing and accounting informations for this job:
 ========================================================
  
                  Total CPU time used (sec):     6590.525
                            User time (sec):     5874.197
                          System time (sec):      716.328
                         Elapsed time (sec):     6595.123
  
                   Maximum memory used (kb):      658824.
                   Average memory used (kb):          N/A
  
                          Minor page faults:     11765278
                          Major page faults:         1190
                 Voluntary context switches:         2518
