LAMMPS data file via write_data, version 2 Apr 2025, timestep = 100670, units = metal

1000 atoms
1 atom types

0 26.24427661455587 xlo xhi
0 26.24427661455587 ylo yhi
0 26.24427661455587 zlo zhi

Atom Type Labels

1 Si

Masses

1 28.0855

Atoms # atomic

700 1 0.4948829358470382 2.956324080208112 2.901091167299669 1 1 1
344 1 12.351467231280875 8.826258682107916 11.904278215019955 0 0 0
966 1 2.185622706876831 11.84196337277093 4.755411858972739 0 0 0
894 1 5.364077479424746 1.94906923913969 1.9603726971173496 0 1 0
246 1 11.818349714071765 12.853432790951405 8.596771522932832 0 -1 -1
487 1 2.930947770769629 5.635468883396777 0.14093570611585782 -1 1 0
94 1 5.568879540134431 4.229526939885654 2.3454672743346108 0 -1 -1
580 1 2.8719814070556247 12.568057984031856 9.090471477866565 0 0 2
636 1 10.954422914253362 1.5909219547100681 3.386927144334037 0 -1 0
384 1 13.106537490449737 4.5094754037367375 3.9786669858048187 0 1 1
287 1 10.477429594467743 2.1253116268237444 5.928601391488138 0 0 0
488 1 5.657665849880834 10.332432909273699 12.803551133309767 -1 0 1
389 1 9.058522478009953 5.866955692599696 4.119173460936259 -2 1 1
6 1 10.821421309357675 7.098811392260779 12.172831814930564 1 0 -1
812 1 0.5428966635414817 0.7156139896802124 1.1587092923764746 0 0 0
606 1 1.1248350496192392 4.271960431327666 0.8029654153648079 1 -1 0
273 1 4.975060628369986 7.812723320551657 1.3152325519429071 1 1 0
127 1 10.208459675812376 10.144379499670093 1.8713677028857243 -1 0 1
64 1 1.4390856142318624 7.412459553802058 10.359425390769918 0 1 0
605 1 5.358191183644272 5.515298484681878 0.7386088276923991 0 0 2
184 1 7.132039770227516 4.5713374898209 4.361238405045521 0 -1 0
408 1 6.405519929566943 8.877602891021315 5.644267743380215 0 1 0
146 1 7.380344223628421 5.449926247004756 12.244364389163785 0 1 -1
7 1 8.796708842609238 0.31187922827922604 9.890780044001367 0 0 0
637 1 11.467941293170636 4.749349186490085 0.20245731193492958 0 1 -1
60 1 13.096391589844261 10.144879389974 1.9864761457782338 0 0 0
537 1 6.189307057017265 10.980893428432697 2.437357901537688 0 1 1
611 1 0.488089988285619 2.6324405766494343 11.42803767681154 0 1 2
791 1 3.2885287393106934 8.42843875212104 3.2188488620446702 1 -1 0
803 1 4.543533797888972 11.547796111428562 4.142200471590635 0 -1 0
824 1 11.240194643486868 7.952068605996578 7.792860747444518 0 -1 0
424 1 2.453670191834347 9.487102755709564 0.18288469272366506 1 1 -1
520 1 12.295820708689888 9.246827124846039 6.3664635226943505 1 0 0
710 1 7.055381025211439 9.106060955870044 1.2588154862817003 -1 0 -1
132 1 7.8516650476188214 10.797479107609277 4.079375393715315 0 1 1
825 1 10.793238082006084 8.595142720378503 9.917039323086009 1 0 1
967 1 11.495273053450093 11.158067709567348 11.81184839217135 1 0 -1
8 1 11.621533288345898 8.558866128828866 1.2035777042036588 1 0 -1
534 1 11.801433984656816 12.213909474356878 3.28433442963707 -1 1 2
420 1 10.949176143710162 10.160825055186928 4.401225425575503 0 2 0
670 1 7.822422348974722 12.737158999238892 0.7997784399130183 -1 0 1
954 1 3.3158743527289647 2.4575754057900467 2.231406001745361 1 0 -1
882 1 5.952771608076094 11.942863653551392 10.476192097231246 0 0 -3
475 1 3.925424189687812 4.226967473345885 6.95353613949819 -2 2 1
224 1 7.335686996656965 1.9268983391981653 7.300179098230396 1 0 2
333 1 9.142797455485129 2.863486338840304 2.8441089132261976 -1 0 0
970 1 3.790083849482625 2.6654786045524763 9.487461321860762 -1 0 1
813 1 8.210518322252254 2.0530867597907836 5.147259516280511 -2 0 0
714 1 5.657847804480249 6.6640047305462184 8.799697833881156 -1 0 -1
265 1 0.4174375834732274 11.499856705480807 11.385691313504823 0 -1 2
947 1 9.901901290725469 4.6216701933824655 6.428174166232397 1 2 1
377 1 1.8969688464709793 7.404331833805778 1.3395983933292746 0 1 2
632 1 10.949483698474625 2.036598874660339 9.235176715391596 0 -1 -1
248 1 8.314228812248572 2.8216353737865907 9.275385121745657 -1 0 0
915 1 3.825351346136866 6.0822956780511115 2.9205308675678654 2 0 1
169 1 12.607558579153817 2.11611242842934 4.778936496474554 1 1 -1
376 1 4.055030934430164 9.215322517309533 5.370473123170371 -1 0 2
234 1 1.7868051182266023 9.798948681953805 7.455578296629123 0 2 2
438 1 3.5729039443739867 6.025695765010295 5.684557479642347 -1 0 -1
343 1 6.03429432116181 9.631921038637996 8.262700481407105 -1 0 -1
44 1 5.716564666146299 3.6389282325634587 8.285624267695953 1 -1 1
513 1 2.853638747037113 7.41529477606985 7.689828241978297 1 1 0
358 1 9.056789590501939 7.161534768980181 6.272606924907338 1 0 -1
347 1 11.250988442351444 6.408116709090196 3.792772340394288 -1 1 2
325 1 9.253888243002296 12.225257541832677 9.349943641250855 1 0 0
451 1 7.743808883671808 6.222414868623109 10.143101127632633 -1 2 1
415 1 7.309876288651807 7.71768795633258 7.609538339535531 -1 1 1
661 1 12.547172140160352 8.210288380337902 4.18678415038431 -1 0 0
604 1 8.497831068175895 8.354663935408738 11.21804787980232 1 0 0
337 1 3.1940293547028005 3.621785696779589 4.195503553670177 0 0 -1
829 1 11.263866272574212 5.4275226900209725 7.803855914453798 2 -2 1
902 1 0.8001856274258614 9.696992366542753 9.477525345320101 2 -1 1
685 1 2.100697059624446 11.990328330202402 7.123986206204617 0 1 1
955 1 5.396398853288793 6.146123598284529 4.6658635566971345 1 0 1
403 1 9.207965688416786 10.39947439279946 10.54458799804037 -1 -1 0
749 1 8.830197740812308 7.696470046164397 3.0199785411023035 1 -1 0
209 1 8.020279442065178 11.487022252155628 7.41385958769372 1 0 0
866 1 6.322473514390302 11.107778390945688 5.840342204313271 0 0 1
586 1 9.252829516043565 9.445369981351902 6.294928835215342 0 1 -1
457 1 0.5672513747400033 0.8354501926022299 5.525610717768061 2 0 0
212 1 11.400401161832136 11.953345871376408 6.544458702703225 0 0 1
644 1 12.174656946016672 6.490801881249096 1.4795040694812092 0 0 1
177 1 11.190361643236734 10.763409186958274 8.986603306964954 -1 2 0
92 1 1.1552207372513823 9.714521886009255 2.2880175977388886 1 1 2
903 1 1.7918059862296776 3.2853813177025004 7.797120225341078 1 1 1
853 1 6.715442873669054 1.1631722214363205 3.604722811416869 1 1 1
433 1 12.267819548021546 3.0567141164786333 2.0704147534262765 0 -1 0
884 1 2.6244641557941697 3.42631147043391 11.48227295500816 0 0 2
819 1 6.604976661535825 7.843249137241467 3.645477701119455 1 1 1
784 1 3.2062633608276574 1.8733417618832378 6.308864477871941 1 1 0
917 1 5.2630420290809425 13.094019614388033 2.2518841717490745 0 1 -1
737 1 4.560105574786501 9.53227917761918 11.062170281745967 -1 -2 0
719 1 6.588002520721232 0.5078282297637957 8.89254279146745 0 -1 -1
285 1 10.43627051678998 12.506996505078488 0.9819282407479781 1 -2 1
429 1 0.07013554265497035 5.087859269222247 4.2467526545009555 -1 1 0
82 1 9.194551575262068 4.4967258965843495 0.9697359103357777 2 0 0
641 1 1.4483441129485337 4.680015316736742 5.974980839893686 3 1 2
205 1 11.356733446090196 1.5509187590662756 11.935763699505703 2 1 0
500 1 2.309027612837623 0.5632430935638917 3.0224714288419205 2 -2 0
511 1 2.7718693422246026 4.939146057617402 9.443465036242523 1 1 1
564 1 4.217411787731242 12.952848226988602 11.311708495854017 0 2 -1
87 1 3.829915691441312 9.822205706878233 8.854601328765362 0 0 -1
892 1 5.542002766087645 4.356423780235127 10.409044582710692 0 0 1
31 1 0.2859358145966134 10.578330340643722 4.322146794350449 0 1 -2
18 1 1.4580415602157288 6.548912815308302 12.417751562405764 -1 -1 0
786 1 7.658525926527143 11.33361122071666 12.64136163269139 1 1 -1
860 1 6.543546830635101 2.115729934015753 10.857079941360956 0 1 2
522 1 10.105970076501562 3.76310580239021 11.561735421671072 0 0 -1
895 1 0.23540809010262428 1.586501904838534 9.25912747330101 1 3 0
283 1 11.839405840239387 5.6160592598103 10.430825884013652 0 0 -1
216 1 9.686823649526287 4.716891112695579 9.487127848133564 2 0 0
364 1 3.6449045322749694 7.726523460532921 12.070707014505047 1 0 -1
728 1 0.3566805569240594 6.948859335781929 6.463147757412946 2 0 0
800 1 5.268126815359628 6.0010139921983745 12.433460597206933 -2 -1 0
299 1 2.490685253876177 10.54492644525772 10.89797947629638 1 -1 0
776 1 4.7059862780309585 11.557393284648569 7.169973360933805 0 0 0
148 1 1.9557721715459957 7.342109689508537 4.690671736479606 1 1 0
110 1 4.700648734605743 1.604322038183641 12.994083974287786 1 0 0
546 1 8.86276126607251 6.786956865493059 0.9561226321948034 -1 0 1
75 1 2.69627444044082 0.17376936970763343 9.213375186953106 1 2 0
178 1 2.061302507425934 11.591123507086765 0.33230400368098995 0 1 0
61 1 8.382039948389462 0.8135171253514567 12.987024066161409 2 -2 2
402 1 8.054539249501527 12.867309732395105 4.719178427742274 0 0 0
702 1 6.338777439736048 8.097527913655203 13.052833472410027 1 1 -1
119 1 6.967304181048637 12.445745086281018 22.099393625454205 -1 0 -2
675 1 6.20732240842816 6.828407138784827 19.87221652660071 0 2 2
1 1 3.305469146988914 2.999816164506711 15.827427211400137 0 0 0
144 1 10.785158572669353 8.019301559452105 25.43159354640704 0 1 0
682 1 3.4099393866550716 5.864646898548937 13.69521633244337 -1 2 -2
78 1 9.58122879693814 4.285976686163353 14.936237876091862 1 0 0
939 1 6.317321245358313 4.952808161120416 16.063461279917806 0 1 -1
206 1 11.776412940271625 9.00283434282428 19.291678290845542 -1 0 0
799 1 0.8158833870862986 11.667395763386303 22.868064865830842 0 1 1
185 1 10.537998216824516 9.522626033327558 22.76603349653018 0 -1 0
291 1 11.089619633779842 1.431634351858624 15.905004915001049 0 1 1
204 1 11.810032740892357 3.875438947878828 16.660702257184074 1 1 -1
35 1 11.636881161768429 5.264961311557905 13.570729330903491 3 1 1
640 1 11.268203738314412 2.103391407644169 18.151871361104746 -1 0 1
858 1 4.138660290927281 6.415262386418395 16.328378205480703 0 0 1
618 1 9.033823198867557 1.4644806230648342 18.736905966307358 0 -1 1
465 1 2.8904070942530495 11.540676649317428 19.55186759493356 -1 1 0
373 1 1.0928026612712844 8.380959867967782 14.354501367170899 1 -1 0
268 1 7.921520821817657 6.097275623491919 14.474085029071173 2 0 1
252 1 11.974186608644946 6.367499227051662 15.533272785764883 1 1 1
942 1 8.541075658852064 10.690132551191237 18.27144326308192 -1 2 0
233 1 10.043340621558608 7.762340091953397 16.402344396344244 0 0 2
677 1 3.6169592356041282 8.24638177338607 14.689495459967054 1 0 0
906 1 6.49523230972792 9.555563251300748 15.978969292766536 1 -1 1
929 1 0.8254103739437446 4.377220475311204 15.59424842501321 0 1 1
159 1 9.967127158439729 9.814324633550209 14.856100353242473 -1 -2 0
582 1 3.1272317051128042 1.9827404666686517 25.977402042375218 2 1 1
497 1 0.6311373233055386 7.080015446498461 21.70094670513456 1 0 -1
319 1 1.9683887723420572 10.78692169640984 13.32887233812433 0 -1 0
638 1 0.9975296238472715 8.158715500135752 16.544808209050306 2 1 0
219 1 2.312479842476819 3.128298903675065 13.577588622971604 1 1 0
427 1 4.084971838403906 11.69843961999262 13.559854394336442 -1 1 1
764 1 1.005339819699333 0.946168900586861 13.646559305179348 0 1 -1
56 1 8.134858711818529 3.3402878378870486 25.411922845366515 -1 1 -2
482 1 1.7618140922414443 11.022135459559644 15.840898854418924 0 0 0
156 1 4.3380819309637095 12.673320444785391 18.135000503036345 -2 2 0
230 1 5.3739622887006755 2.540759423742172 20.270091444484457 -1 0 0
651 1 12.92761486838529 8.261835109586615 17.48108759652814 1 0 -1
583 1 6.323858839938117 11.57938392084106 18.143323870538126 0 0 -1
445 1 11.38967136854292 11.017190266100204 17.67116596884429 0 -1 1
600 1 11.999220213750554 0.3130777048391056 13.655957288401511 1 0 -1
761 1 3.6278070582843434 3.862007655674607 19.780787314385847 0 1 1
227 1 1.5469483672714732 2.964098487203352 20.83835933062558 2 -1 0
557 1 5.063292513670124 9.604272433177274 18.5873845574393 1 0 0
739 1 2.068231784790399 1.3026625364260138 17.97711919429018 -1 0 -1
975 1 7.618888481823644 1.9859382843587405 16.30409200500703 0 2 -2
820 1 5.519699359778678 4.474191353144399 18.11992403281658 0 0 2
382 1 7.589751206606649 2.999693740499948 20.016502935709475 0 -1 0
659 1 7.616370061172237 3.0369471720532886 22.446159630893494 0 1 0
163 1 9.318764079571745 3.31048537287825 17.35793017334499 1 2 -2
113 1 11.72402927891056 1.0865690783910182 23.13631887701236 2 -1 -1
65 1 9.444833476183845 11.288888445623533 16.500052407931996 -1 0 2
940 1 9.408347938020972 12.178290120185748 14.307384200761414 1 0 1
957 1 12.480594862899476 1.361269820085873 25.83232255461267 -1 0 0
544 1 5.4753321619002335 1.7372976041786943 17.382909903886482 0 0 0
566 1 7.043357575600656 8.23936168067673 18.21098956786807 2 2 0
517 1 1.897498468884798 5.9387375251287455 16.915938369934633 -1 -1 1
238 1 3.7450797784091017 7.831676083918783 18.23029798781308 0 1 -1
665 1 10.466376549503734 11.137748148208221 24.939732895078723 1 0 0
861 1 7.868181656707761 4.732306812775019 18.390663516669036 0 0 -2
634 1 3.813273102088109 7.333494091873345 20.56590980555476 1 0 -1
553 1 9.521840156322456 8.085703288967853 18.576439926711505 -1 -1 -1
440 1 8.9029157657406 5.983139145761875 20.15223462704333 1 2 -2
558 1 11.174718091414826 5.103592801868147 20.119592340151314 0 -2 -2
67 1 11.317681342512609 3.0784822470400512 21.237763734916957 -1 0 -1
105 1 6.188433215543264 8.295511491602737 23.40195962635425 0 -1 3
925 1 12.235394285438868 10.627429702462134 15.696521474103703 2 -1 0
556 1 4.3358204082092255 0.11199578133182442 20.55130776064871 1 1 0
573 1 1.888429849450448 9.26553123784409 19.514740940477882 1 -1 -1
422 1 12.19176776678275 6.363729729145817 24.77909340494769 -1 1 0
356 1 8.026937976409746 10.311573121491326 25.75804517313212 1 1 -1
588 1 5.683373803983584 9.702653680435471 21.322067924038787 0 0 0
601 1 1.2719957672067186 5.284068978227313 19.888490429790675 -1 0 0
121 1 1.6494546121207048 9.7817324819843 21.752983268661975 2 0 0
190 1 3.92003326959026 7.597987262791225 25.32231691115435 0 -1 0
13 1 4.096854804318198 11.395641883840646 21.927865359443544 2 0 -2
117 1 9.044480729780682 13.083738959259268 18.583195443145925 1 0 0
615 1 11.639742001156277 2.9176109190350688 13.979587638788589 2 0 0
442 1 9.822954423820681 11.128557077244967 20.20373677106792 -1 2 0
368 1 3.2568808232392383 10.08613833363149 23.787978530526317 0 2 1
875 1 4.29913961311525 10.613256739669353 16.182920526118686 1 -1 1
948 1 8.023113832137282 11.682233742064902 24.03438955954806 1 2 -1
390 1 4.626852480914683 3.228649900504435 24.70022777124507 0 1 0
317 1 2.0811751368400397 4.905114463043289 22.80183082400775 -1 2 0
155 1 5.296877118573852 1.9042896628542871 22.5793175894638 2 0 0
81 1 0.6057124122367477 0.595463170533984 22.957660574813136 1 1 -1
393 1 4.73480047222296 3.6606208237381073 14.259603897251006 -2 -1 0
579 1 0.19527403042281866 12.517085134713664 19.088362776730463 0 1 0
106 1 2.1490224987759246 0.735901008025856 15.477113333726148 0 0 0
963 1 6.6675474674442885 1.8038704694491647 26.19697755375918 -1 2 -2
964 1 9.526030925615663 2.7938111434804407 23.540234072654584 1 1 0
883 1 7.637243352402501 6.037801475241693 24.592735592071417 0 1 1
304 1 7.345065458982201 11.889689293861805 15.835408512248387 0 -1 1
226 1 8.260379554138785 10.113981774977123 21.507387994872182 1 -1 -1
308 1 9.913941884826597 5.915692278719088 23.199146556678087 0 0 -2
655 1 9.78829426345747 0.5750199215613785 24.812490216874522 2 -2 -1
514 1 8.959854352087708 7.96225912377558 13.312047979746293 1 0 0
29 1 1.2449335922559734 5.381451826672009 24.785473282982085 0 -1 0
599 1 4.359728623967701 5.370478740568465 22.24659817016277 1 -1 -1
859 1 5.1553343183718985 9.807608516760027 24.967676062659287 1 -1 -2
456 1 0.13073022911257864 7.39438556521627 24.130010185323673 1 -1 0
378 1 2.260844313989588 2.879296243086816 23.764116355242706 0 1 -2
699 1 12.135989423125892 12.926168718583035 13.869070501589098 2 0 -2
845 1 0.7755809328835276 1.6154633885606817 25.269978913524128 -1 2 0
48 1 8.428989539307393 8.109980823927549 24.042380982123195 1 -1 0
25 1 7.5177967303292075 5.359407887754014 22.193438819645117 -1 0 -1
463 1 5.434916907693656 5.588672653409761 24.428301811681585 0 3 0
614 1 4.223022938703705 12.08640204077053 25.457207113644326 1 0 -1
239 1 11.798187837071541 10.99204270029817 21.251755605455692 1 0 0
458 1 11.578876934161853 4.4567412716155035 23.555880760646076 0 -1 2
798 1 11.92065523750216 7.236053070859477 21.16824152028434 0 0 -1
493 1 1.039241882401212 12.861019922938492 17.04859509303409 0 -2 0
372 1 11.047510523214637 5.738744731324407 17.900122765844678 0 1 0
140 1 2.8606765981924105 7.693437162587867 22.56834525678299 -1 -1 -1
631 1 1.9407245526049859 0.7634450608976409 20.93240704979998 -1 0 0
22 1 2.4570376627711985 3.669043196441461 17.89810398159877 0 0 -1
203 1 0.26358946823526297 10.180014290545563 24.412391982563623 0 0 0
167 1 4.921299592889118 13.088063235713287 15.806467248852988 1 0 -2
346 1 4.126898221513779 0.040953679961237555 18.405379872374116 1 0 -2
46 1 7.203072304663692 2.799193648932312 13.158918140410355 1 2 1
412 1 5.227236023440396 13.206601913301242 8.739995095961614 0 0 0
332 1 13.000831236626821 16.022736019052267 10.725449004607345 -1 0 0
223 1 2.569047162498715 16.60329628521385 0.7807305086425732 -1 0 2
79 1 12.213501063560043 16.093885861252918 0.33248680315064183 1 -1 1
916 1 6.75271466986622 16.468189541185033 4.27038056874172 -1 1 -2
101 1 9.700031443524486 16.252379723344156 3.188138595220888 0 0 0
282 1 5.435890700928114 13.990608787068822 4.276884345083019 0 -1 0
944 1 5.103732424527034 17.757001685053844 2.9150692596606307 0 1 0
760 1 11.133622910967748 14.777832705319605 5.673240248197825 1 -2 2
888 1 9.550936513562752 13.893472065495871 2.9520008711499757 1 -1 1
768 1 2.8123548518089976 25.96093618432489 0.7596205602621606 0 0 2
524 1 1.850122382145602 21.599657758850025 2.4457418933291826 1 0 0
306 1 1.7940126904155569 19.071566577287708 4.213022448942461 -1 -1 0
175 1 2.742306609249161 18.226362630409767 2.2938784180572602 2 0 2
693 1 1.1271109181816708 15.183227252487008 2.2634614131666613 1 -1 1
982 1 4.2737539660682 18.464928119064286 5.077519585011616 1 -1 -1
885 1 4.278390601231474 22.347674490486472 0.11915337741327718 0 0 -1
945 1 4.422762781797703 22.147360426190417 7.612256563954631 0 -2 -1
815 1 0.6205585582128504 23.917218462264056 11.200190609954342 -1 0 1
536 1 2.4376601421788524 25.470945036517225 6.9468787612941245 1 -2 0
9 1 12.080902576720785 20.53932893899946 1.2155506793789352 1 -2 0
274 1 12.233733622636212 22.89290538539638 0.9860879617602918 1 2 -1
720 1 4.991561217113004 26.15031538874075 4.792020082237772 1 -1 0
327 1 7.560048304832759 20.944599998978408 4.534031689996721 1 -1 0
240 1 7.9855639051550105 18.82310696459979 3.174258648753469 0 -3 0
635 1 10.769513854702518 22.303813395864577 10.651690221757015 0 0 0
410 1 11.504041101004944 20.739717205322115 3.4499791237814406 0 0 0
772 1 11.415538677444472 24.214837454900877 12.639645473832566 0 -1 0
789 1 3.023363506837753 24.01370780691532 1.8132687506620826 -1 0 1
295 1 5.603402076376634 22.079661126498397 1.9772000311086384 1 0 0
108 1 6.374284043238915 20.821833406450093 0.04632694608062586 1 0 0
778 1 6.183154326692536 19.063771657888534 11.079341874961022 -1 -1 0
88 1 9.822850492077162 25.764328933451985 11.893827371228282 0 -1 2
235 1 5.568193624051203 19.935302536969377 2.787274102858133 -1 0 0
264 1 3.3444594089547 20.237066308469434 1.3353344063973054 0 0 -1
161 1 12.790672101985663 24.65949741545891 2.4618509116487792 1 0 1
187 1 7.903127933907498 25.63497778993843 2.9278473067961612 0 0 0
709 1 8.162549464332804 17.011206404712553 1.1409551454061304 -1 0 2
936 1 4.814386635066278 14.407737929292642 6.636098034560801 1 0 0
316 1 2.3654549525418074 13.982690870185023 5.039508070288573 0 0 1
788 1 2.638328095990438 24.101023248826397 10.56295701827828 -1 -1 -2
908 1 7.286933913723522 14.175508651722941 6.752775417530107 -1 0 0
616 1 7.785443461584967 17.192096319951197 10.854596754699015 -1 0 -1
742 1 8.965937517394172 15.946940678593268 5.603571355550369 0 0 -1
416 1 3.1874080097854085 24.695178226473928 4.579262338338199 1 -1 0
741 1 7.674380670185649 16.839823228706376 7.661977503122357 0 -1 -1
398 1 9.812221826523768 14.34173638685111 9.880355925569535 2 2 0
366 1 11.595280159289109 15.285299068411828 8.146157924927511 -1 0 1
911 1 11.336099815167708 17.30680054605603 5.626007941084518 1 1 0
782 1 1.2062894768321664 20.455166282205436 8.719404922310373 0 0 -1
485 1 3.8045511553546816 20.10884783258431 6.488792116428553 -1 1 0
509 1 1.3379941584512616 18.55258614513221 6.713663266431752 0 1 -2
763 1 3.516595251978271 15.347837965454282 2.9170737663836026 0 -1 2
385 1 8.29024353486008 19.018782508277248 5.74180440618107 -1 -1 0
695 1 8.455480985907027 20.360121237793855 7.72319493160247 0 0 0
823 1 3.430255676615257 16.188276362123023 5.226095863965328 -1 0 -2
89 1 6.408700117778219 17.732653430113224 6.025946066203021 0 0 1
609 1 7.4926178747650045 22.95209781514901 3.465451463079097 -1 2 1
801 1 6.122139741519973 19.85018683238447 8.277779729318022 2 0 -1
249 1 10.639331210721672 20.043383315963457 6.704820062660379 -1 1 2
331 1 10.110507827087543 18.609752777184166 4.183612385462809 -1 0 -1
417 1 11.02014763375975 20.185644071190772 9.244200473541909 -1 -1 0
589 1 6.205969663289318 15.613933344874871 2.2285991532816425 0 1 0
154 1 10.991236168495806 17.740813127371595 7.975075808403894 1 0 -2
194 1 11.621050374560138 25.87185473934387 9.027053536709369 -1 0 2
490 1 1.2799028013035108 22.710088868732754 7.341637158664 0 -2 0
960 1 0.8265104196634817 23.56666777207283 2.868387614739545 1 -1 1
561 1 5.023708392532892 25.67885867905322 10.63570639361835 -1 1 1
795 1 0.08717232286106165 13.199556018229893 9.688567727670405 1 -1 1
657 1 11.065199847811845 13.632459256895759 11.837076935795697 1 -1 2
348 1 2.490054703948446 14.629026865688722 7.479926367743763 0 0 1
654 1 6.409060172889302 22.360242017722047 5.66728023391186 2 1 1
461 1 5.877423227632631 24.321234403640076 7.148218927843405 0 1 1
628 1 8.16679400906225 20.595117221789913 1.5465895645222458 1 -1 1
769 1 2.44124836022942 21.521612999394115 5.23569763736049 -1 0 0
201 1 8.712165045451876 22.86757222088392 6.23710766015836 1 0 0
260 1 3.985500250032562 22.56326665511844 3.7101686478091223 0 -1 1
843 1 10.111948881008605 23.888183238464975 8.884906712820229 -1 1 1
591 1 9.188457016981008 24.366860544835795 4.599072275223908 -1 -1 0
765 1 8.271565298796283 25.348784863241043 6.680457560597756 1 -2 -1
658 1 4.815621212979783 26.023023298072065 7.692678580060207 2 -1 0
115 1 6.292710358856307 15.52967114971655 9.200803337045286 1 2 -1
188 1 1.7670167620953041 16.922679131779105 10.797063840028159 0 -1 0
310 1 9.531099634791321 22.676925850463746 1.3621248176431293 1 -1 -1
652 1 2.6385415387671896 17.0579906532189 7.949636323589718 -1 -1 0
179 1 3.5449500060652013 19.438922235312265 8.56364852401599 0 1 2
598 1 6.70905736109067 14.801367608433898 11.53680877462348 0 -1 1
322 1 3.8454471870989164 18.69325949597684 10.587947144934427 0 0 0
751 1 12.517217117932754 14.408753809225573 4.046384685224501 0 0 -1
705 1 7.765032794554815 24.022873856840512 12.150772325924105 0 0 0
983 1 8.857010132700985 14.800940399695623 11.939125877196783 1 0 1
174 1 2.4044033720164704 14.48953443050821 11.312496946285115 1 0 0
667 1 10.751777460171269 18.2113323424069 12.610914895095028 1 -1 1
362 1 9.68436318494155 22.53311070196114 13.082052749537855 1 1 0
576 1 9.421186703542427 13.177250594419824 6.543397068847777 -1 0 -1
4 1 4.122960354469315 22.935454827421157 12.120143456488455 0 -1 0
842 1 11.800407732151186 14.227211139359 1.8374599390728792 0 0 0
40 1 4.328938638936469 19.77424009268214 12.774358277379724 1 -1 1
86 1 12.521251651603949 23.999036578801366 10.448871976407387 1 -1 0
999 1 5.064159965028611 16.725069193401197 7.912115262939869 -1 0 0
307 1 2.398530405618079 20.738016208484854 11.909386180207612 2 -2 -1
539 1 1.3694698134055514 16.681283606910586 4.021257503522712 1 0 -1
138 1 10.715245326241785 21.85947731989561 5.238950328774535 1 0 -1
662 1 9.19350463890739 18.41497218038989 8.977647406388034 0 -1 1
484 1 12.067814776113645 20.21614820491221 11.974972357342573 0 -1 0
790 1 11.716914366639957 22.113851831272193 7.803202818408884 1 0 0
854 1 2.930457130333706 21.861794137300283 9.377194502567097 0 -1 0
45 1 11.10124987407761 25.667969037609133 4.131550548977127 -1 1 2
114 1 5.487914922006946 21.33896348134554 9.82347951206724 1 -1 0
989 1 10.72418489523411 25.834409999281817 6.724627151747151 0 -1 0
135 1 7.163254315604759 24.15436134186688 8.986754525592472 1 1 1
961 1 6.086546442382279 23.276372856085526 10.958241919941344 1 -1 -1
386 1 8.38788419027101 22.221787486612318 9.081214487324878 0 0 1
199 1 10.77122634524569 16.22647415050916 11.835791055618184 0 0 2
896 1 7.060687779531068 24.52911397954611 0.9182441106905097 -1 -1 0
516 1 5.851400085849261 21.173760198365468 12.586543669067003 1 -1 0
72 1 0.4391582857187266 25.64113406505362 8.928259170717688 0 0 1
968 1 5.421869953758815 24.584751535248575 2.7277285944062273 2 -1 1
525 1 0.010617751761081706 18.486481685464128 0.19528226634274273 1 1 1
38 1 10.576349265282142 24.27109444945943 0.45583769219412823 0 -1 1
581 1 12.80430981963382 23.41407816635671 6.147267289725272 -1 0 2
880 1 0.4353459264358327 13.779575133729551 7.140150921187916 -1 1 -1
518 1 0.059370846198604 25.355473162258395 3.882157171571786 1 -1 -2
321 1 2.5886147463417712 13.186891667997614 2.0691702208992586 2 1 0
330 1 4.904457900412324 24.752284625335207 0.05270151274577728 1 -1 -2
743 1 8.574074210396256 18.961759283447265 0.0016943325699472211 -1 -1 1
527 1 6.7374845364247875 18.078457196363864 13.093207773836166 0 -2 -1
731 1 1.4586950308421884 14.611915816883435 13.363934115584438 1 1 -1
792 1 3.4754687423644253 15.746438299247462 16.808103319840637 -1 0 0
689 1 2.5413427754063087 19.208302834824465 23.487291757521817 2 -1 1
171 1 2.777933434979167 13.624470338409697 15.435170557344966 0 1 -2
984 1 11.824194213298696 25.668393042700284 17.132136343718333 1 -1 0
836 1 6.335740856443389 15.003763733677312 15.402949801390356 -1 -1 0
990 1 8.938590099099148 14.420345478652566 22.3451172936933 1 0 -1
707 1 5.518375597084597 16.142123097474816 13.38654409630315 0 -1 -2
612 1 8.573467681189978 20.569550760425557 13.528634665587667 0 1 0
876 1 4.373089718729955 25.9451515506035 15.619978799409518 0 0 2
68 1 2.169438783183703 24.047531721921025 20.206881239851302 1 0 0
341 1 10.695791666713246 13.90500751875313 15.886139750991486 0 -1 0
2 1 10.282166561268815 13.155330208221132 20.687149909205218 0 1 1
383 1 12.530285803442768 14.84072891367638 17.09151146317674 -1 0 1
153 1 4.099578381922824 18.044459921806027 20.082886278435467 0 0 0
869 1 1.3228286811367524 16.363908166604745 17.51100826644516 1 0 -1
220 1 4.006591373760597 17.871995604812536 15.616021910063527 0 -1 1
873 1 2.579247818113895 19.92833940573453 16.4015220948552 2 -2 -2
949 1 2.498564359190425 24.587262518217415 14.531634041914455 -1 2 0
831 1 6.4687844627726525 17.476601011884064 16.98766416264257 0 0 0
952 1 7.248261326517825 24.57686337423719 18.38378023925583 -1 -1 1
796 1 12.185993501377748 20.248303702584494 15.690337869759441 1 0 1
521 1 11.9198042276101 21.970768148919433 14.072547312349158 0 0 -1
969 1 4.761140372568933 25.710935599973066 24.249715339758616 0 -1 0
471 1 10.824247300259868 23.746524225375648 15.911598073538071 0 -2 1
669 1 9.081638578921083 21.178518291530523 15.757186458751969 -1 0 -1
672 1 0.8917478690279812 19.984149951857837 14.700389860957387 -1 1 -1
222 1 7.4912958335976105 25.922641291297342 15.907209015987025 0 0 0
491 1 13.104347748866076 25.270198439495932 25.69946562565284 0 0 0
139 1 7.914552294580707 22.665184587039906 14.373311290339053 -2 -1 0
773 1 9.198934638947852 23.623894659994836 17.80977874834364 2 1 1
292 1 11.793659863581087 23.00799288733381 23.848339088367368 0 -1 -2
595 1 6.256140206042714 23.69301352020013 15.843777101457215 2 -1 1
476 1 0.7662298384371166 24.317028691428405 21.73770402153232 0 0 0
630 1 11.049756956474736 22.315448655110032 19.18316694305541 0 1 1
863 1 0.4756916974915518 17.74226388227795 15.875540377765915 1 -1 0
71 1 0.5657821386424846 16.411357877410154 25.53104780053073 2 1 -1
767 1 6.609342313664744 25.353915481020096 13.857504758859571 -1 -2 0
901 1 6.2890331429903465 23.222590704201625 25.328470288565512 2 0 -2
215 1 10.013163335433887 25.750480697491593 14.6209425421917 0 -1 0
208 1 0.706830607013235 17.96278108722833 20.138409674299577 0 -1 1
755 1 2.54800505491577 17.270198107304765 21.72937706153198 -1 -1 1
565 1 1.559115378247071 15.571125623369129 23.545051761269452 0 0 1
303 1 12.646139115433286 13.369467949662582 22.303327265556256 0 0 1
932 1 9.517263236633273 18.255479991249803 16.87873611130871 1 1 -1
481 1 5.913390431240278 15.228821342445606 20.431771507247753 1 0 -1
496 1 7.543714131325227 19.55503377415601 16.624854332856046 -1 1 0
549 1 3.8348826864434677 15.791743340548324 19.31156314156974 1 -1 -1
183 1 4.153936272606089 18.21913590800627 25.06808053371204 0 -2 0
365 1 10.504285229897423 20.40458552767109 25.735148271022656 -2 1 0
409 1 8.47309152573891 20.266217378574407 21.498902692993415 0 -1 0
857 1 1.5903625108142212 14.91639843013086 20.332185310577323 2 0 -3
363 1 9.487476445628976 13.221404864744219 24.467791038887544 0 -1 -1
157 1 7.407109343386914 17.23784316183264 20.49462491292296 0 0 0
172 1 2.4181549210083486 21.97313513913371 18.28221567190224 -2 1 2
498 1 0.8085917581108382 19.652936198024634 18.292639116319595 1 2 -3
649 1 6.236134303683882 19.500469326602943 14.889801093769698 1 -1 -1
887 1 3.182163485812611 20.363790551678402 19.648893848357933 -1 0 0
436 1 4.3548385400542795 19.595245925766054 21.73685545588476 0 -1 1
49 1 4.426704407187805 21.235668725097877 15.677876513839688 0 0 1
674 1 7.939512763649394 21.66606515030408 19.753294371930775 -1 0 0
16 1 6.736819614878302 21.523583820411098 17.76461247570084 -1 0 0
593 1 6.303446642063108 20.003836371154055 23.983232843490438 1 -1 -2
176 1 10.96037624198779 14.855379587492008 18.826044034517025 0 1 -3
225 1 12.341730012351874 18.438520935986766 20.096999560140134 2 0 -1