 vasp.6.5.0 16Dec24 (build Jan 20 2025 08:32:48) complex                         
 executed on        HPECrayEX_GCC date 2025.07.22  07:41:10
 running  128 mpi-ranks, with    1 threads/rank, on    1 nodes
 distrk:  each k-point on  128 cores,    1 groups
 distr:  one band on NCORE=  16 cores,    8 groups


--------------------------------------------------------------------------------------------------------


 INCAR:
   SYSTEM = a-Si SPC
   NCORE = 16
   ISTART = 1
   ICHARG = 1
   ISPIN = 1
   ISYM = 1
   EDIFF = 1E-6
   NELM = 150
   EDIFFG = -0.01
   NSW = 0
   ISIF = 2
   IBRION = -1
   PREC = Accurate
   ENCUT = 1200
   KSPACING = 0.23
   KGAMMA = .TRUE.
   METAGGA = SCAN
   LASPH = .TRUE.
   LDIAG = .FALSE.
   LMIXTAU = .TRUE.
   ADDGRID = .TRUE.
   ALGO = Normal
   ISMEAR = 0
   SIGMA = 0.1
   LORBIT = 11
   NEDOS = 2000
   LWAVE = .FALSE.
   LCHARG = .FALSE.

 POTCAR:    PAW_PBE H 15Jun2001                   
 POTCAR:    PAW_PBE Si 05Jan2001                  
 POTCAR:    PAW_PBE H 15Jun2001                   
   SHA256 =  030f79b5d3ab3cf0e668861823c8fb652ff669f3e15e46930bd03bfd63a607b6 H/POTCAR              
   COPYR  = (c) Copyright 15Jun2001 Georg Kresse                                                    
   COPYR  = This file is part of the software VASP. Any use, copying, and all other rights are regul
   COPYR  = If you do not have a valid VASP license, you may not use, copy or distribute this file. 
   VRHFIN =H: ultrasoft test                                                                        
   LEXCH  = PE                                                                                      
   EATOM  =    12.4884 eV,    0.9179 Ry                                                             
                                                                                                    
   TITEL  = PAW_PBE H 15Jun2001                                                                     
   LULTRA =        F    use ultrasoft PP ?                                                          
   IUNSCR =        0    unscreen: 0-lin 1-nonlin 2-no                                               
   RPACOR =    0.000    partial core radius                                                         
   POMASS =    1.000; ZVAL   =    1.000    mass and valenz                                          
   RCORE  =    1.100    outmost cutoff radius                                                       
   RWIGS  =    0.700; RWIGS  =    0.370    wigner-seitz radius (au A)                               
   ENMAX  =  250.000; ENMIN  =  200.000 eV                                                          
   RCLOC  =    0.701    cutoff for local pot                                                        
   LCOR   =        T    correct aug charges                                                         
   LPAW   =        T    paw PP                                                                      
   EAUG   =  400.000                                                                                
   RMAX   =    1.123    core radius for proj-oper                                                   
   RAUG   =    1.200    factor for augmentation sphere                                              
   RDEP   =    1.112    radius for radial grids                                                     
   RDEPT  =    0.926    core radius for aug-charge                                                  
                                                                                                    
   Atomic configuration                                                                             
    2 entries                                                                                       
     n  l   j            E        occ.                                                              
     1  0  0.50        -6.4927   1.0000                                                             
     2  1  0.50        -3.4015   0.0000                                                             
   Description                                                                                      
     l       E           TYP  RCUT    TYP  RCUT                                                     
     0     -6.4927494     23  1.100                                                                 
     0      6.8029130     23  1.100                                                                 
     1     -4.0817478     23  1.100                                                                 
  local pseudopotential read in
  atomic valenz-charges read in
  non local Contribution for L=           0  read in
    real space projection operators read in
  non local Contribution for L=           0  read in
    real space projection operators read in
  non local Contribution for L=           1  read in
    real space projection operators read in
    PAW grid and wavefunctions read in

   number of l-projection  operators is LMAX  =           3
   number of lm-projection operators is LMMAX =           5

 POTCAR:    PAW_PBE Si 05Jan2001                  
   SHA256 =  79d9987ad8750f624c4d6acb2a16d13abf6a777132adc04dc6c8399be72b42bb Si/POTCAR             
   COPYR  = (c) Copyright 05Jan2001 Georg Kresse                                                    
   COPYR  = This file is part of the software VASP. Any use, copying, and all other rights are regul
   COPYR  = If you do not have a valid VASP license, you may not use, copy or distribute this file. 
   VRHFIN =Si: s2p2                                                                                 
   LEXCH  = PE                                                                                      
   EATOM  =   103.0669 eV,    7.5752 Ry                                                             
                                                                                                    
   TITEL  = PAW_PBE Si 05Jan2001                                                                    
   LULTRA =        F    use ultrasoft PP ?                                                          
   IUNSCR =        1    unscreen: 0-lin 1-nonlin 2-no                                               
   RPACOR =    1.500    partial core radius                                                         
   POMASS =   28.085; ZVAL   =    4.000    mass and valenz                                          
   RCORE  =    1.900    outmost cutoff radius                                                       
   RWIGS  =    2.480; RWIGS  =    1.312    wigner-seitz radius (au A)                               
   ENMAX  =  245.345; ENMIN  =  184.009 eV                                                          
   ICORE  =        2    local potential                                                             
   LCOR   =        T    correct aug charges                                                         
   LPAW   =        T    paw PP                                                                      
   EAUG   =  322.069                                                                                
   DEXC   =    0.000                                                                                
   RMAX   =    1.950    core radius for proj-oper                                                   
   RAUG   =    1.300    factor for augmentation sphere                                              
   RDEP   =    1.993    radius for radial grids                                                     
   RDEPT  =    1.837    core radius for aug-charge                                                  
                                                                                                    
   Atomic configuration                                                                             
    6 entries                                                                                       
     n  l   j            E        occ.                                                              
     1  0  0.50     -1785.8828   2.0000                                                             
     2  0  0.50      -139.4969   2.0000                                                             
     2  1  1.50       -95.5546   6.0000                                                             
     3  0  0.50       -10.8127   2.0000                                                             
     3  1  0.50        -4.0811   2.0000                                                             
     3  2  1.50        -4.0817   0.0000                                                             
   Description                                                                                      
     l       E           TYP  RCUT    TYP  RCUT                                                     
     0    -10.8127223     23  1.900                                                                 
     0     -7.6451159     23  1.900                                                                 
     1     -4.0811372     23  1.900                                                                 
     1      2.4879257     23  1.900                                                                 
     2     -4.0817478      7  1.900                                                                 
  local pseudopotential read in
  partial core-charges read in
  partial kinetic energy density read in
  atomic valenz-charges read in
  non local Contribution for L=           0  read in
    real space projection operators read in
  non local Contribution for L=           0  read in
    real space projection operators read in
  non local Contribution for L=           1  read in
    real space projection operators read in
  non local Contribution for L=           1  read in
    real space projection operators read in
    PAW grid and wavefunctions read in

   number of l-projection  operators is LMAX  =           4
   number of lm-projection operators is LMMAX =           8

 -----------------------------------------------------------------------------
|                                                                             |
|               ----> ADVICE to this user running VASP <----                  |
|                                                                             |
|     You have a (more or less) 'large supercell' and for larger cells it     |
|     might be more efficient to use real-space projection operators.         |
|     Therefore, try LREAL= Auto in the INCAR file.                           |
|     Mind: For very accurate calculation, you might also keep the            |
|     reciprocal projection scheme (i.e. LREAL=.FALSE.).                      |
|                                                                             |
 -----------------------------------------------------------------------------

 -----------------------------------------------------------------------------
|                                                                             |
|               ----> ADVICE to this user running VASP <----                  |
|                                                                             |
|     You enforced a specific xc type in the INCAR file but a different       |
|     type was found in the POTCAR file.                                      |
|     I HOPE YOU KNOW WHAT YOU ARE DOING!                                     |
|                                                                             |
 -----------------------------------------------------------------------------

  PAW_PBE H 15Jun2001                   :
 energy of atom  1       EATOM=  -12.4884
 kinetic energy error for atom=    0.0000 (will be added to EATOM!!)
  PAW_PBE Si 05Jan2001                  :
 energy of atom  2       EATOM= -103.0669
 kinetic energy error for atom=    0.0001 (will be added to EATOM!!)


 POSCAR:  H Si
  positions in cartesian coordinates
  No initial velocities read in


 exchange-correlation table for SCAN
   RHO(1)=    0.500       N(1)  =     2000
   RHO(2)=  100.500       N(2)  =     4000



--------------------------------------------------------------------------------------------------------


 ion  position               nearest neighbor table
   1  0.885  0.528  0.510-  33 0.81
   2  0.474  0.623  0.452-  54 1.45
   3  0.901  0.564  0.616-
   4  0.782  0.417  0.402- 108 1.51
   5  0.514  0.417  0.446- 112 1.53
   6  0.001  0.515  0.445-  62 1.48
   7  0.873  0.718  0.530-  29 0.77
   8  0.965  0.628  0.558-  38 1.43
   9  0.159  0.553  0.371-
  10  0.611  0.432  0.470-  17 0.80
  11  0.874  0.481  0.374-  16 0.83
  12  0.967  0.425  0.504-  70 1.53
  13  0.648  0.281  0.481-  68 1.45
  14  0.644  0.412  0.402-
  15  0.797  0.812  0.479-  20 0.71
  16  0.898  0.440  0.358-  11 0.83
  17  0.654  0.414  0.486-  10 0.80
  18  0.636  0.554  0.437- 109 1.54
  19  0.725  0.390  0.543-  51 1.42
  20  0.763  0.804  0.496-  15 0.71
  21  0.633  0.568  0.594-  57 1.44
  22  0.139  0.455  0.498-  88 1.52
  23  0.812  0.663  0.464-  77 1.54
  24  0.993  0.321  0.402-  50 1.54
  25  0.785  0.570  0.386-  77 1.54
  26  0.795  0.342  0.493- 108 1.54
  27  0.558  0.546  0.514-  31 0.80
  28  0.305  0.105  0.575-  93 1.48
  29  0.823  0.720  0.538-   7 0.77
  30  0.782  0.541  0.587-  57 1.47
  31  0.607  0.561  0.524-  27 0.80
  32  0.297  0.992  0.589-  48 1.47
  33  0.846  0.533  0.530-   1 0.81
  34  0.501  0.469  0.546- 110 1.46
  35  0.501  0.187  0.580-  69 1.42
  36  0.913  0.419  0.443- 108 1.47
  37  0.326  0.421  0.587- 110 2.32 107 2.39  87 2.42
  38  0.031  0.688  0.580-   8 1.43  83 2.36  79 2.38
  39  0.948  0.862  0.444-  91 2.20  43 2.39 101 2.44  89 2.45
  40  0.202  0.002  0.463-  49 2.29 101 2.35  52 2.44 105 2.55
  41  0.853  0.363  0.642-  94 2.36  51 2.40
  42  0.410  0.269  0.508-  87 2.27 112 2.34 103 2.41 110 2.46
  43  0.857  0.996  0.458-  60 2.21  97 2.25  39 2.39  85 2.74
  44  0.172  0.819  0.367- 101 2.31  64 2.31
  45  0.156  0.144  0.641-  71 2.33  93 2.41
  46  0.042  0.155  0.504-  85 2.18  75 2.29  49 2.36  96 2.41
  47  0.712  0.167  0.401-  60 2.25  68 2.32  95 2.35
  48  0.354  0.951  0.627-  32 1.47  82 2.30  80 2.37
  49  0.096  0.008  0.524-  40 2.29  91 2.34  46 2.36  71 2.37  72 3.01
  50  0.078  0.319  0.370-  24 1.54  81 2.21
  51  0.721  0.357  0.591-  19 1.42 104 2.34  86 2.39  41 2.40
  52  0.329  0.910  0.493-  63 2.25 100 2.38  40 2.44 106 2.51
  53  0.459  0.251  0.382- 112 2.37 102 2.37
  54  0.470  0.707  0.480-   2 1.45  63 2.29  56 2.32  76 2.37
  55  0.414  0.869  0.370-  63 2.25  90 2.26
  56  0.380  0.678  0.546-  54 2.32 107 2.32 106 2.35  59 2.42
  57  0.719  0.612  0.605-  21 1.44  30 1.47  58 2.23
  58  0.681  0.746  0.572-  73 2.22  57 2.23  67 2.27  76 2.51
  59  0.456  0.670  0.623-  67 2.30  56 2.42
  60  0.764  0.022  0.397-  43 2.21  47 2.25  84 2.28  98 3.11
  61  0.130  0.673  0.462-  83 2.28  62 2.34  64 2.36  88 2.39
  62  0.999  0.610  0.426-   6 1.48  61 2.34  77 2.36
  63  0.372  0.803  0.440-  64 2.24  52 2.25  55 2.25  54 2.29
  64  0.256  0.717  0.413-  63 2.24  44 2.31  61 2.36
  65  0.016  0.030  0.374- 101 2.32  85 2.35
  66  0.916  0.875  0.589-  72 2.33  73 2.40  91 2.41
  67  0.561  0.788  0.619-  80 2.27  58 2.27  59 2.30
  68  0.644  0.182  0.475-  13 1.45  47 2.32 103 2.37  99 2.38
  69  0.556  0.173  0.622-  35 1.42  86 2.20 104 3.09
  70  0.027  0.381  0.542-  12 1.53  94 2.30  75 2.32 111 2.37
  71  0.109  0.005  0.608-  72 2.30  45 2.33  49 2.37
  72  0.954  0.029  0.601-  71 2.30  66 2.33  96 2.34  49 3.01
  73  0.752  0.878  0.584-  58 2.22  66 2.40  97 2.49
  74  0.612  0.928  0.478-  84 2.26  76 2.26  97 2.28 100 2.48
  75  0.130  0.285  0.503-  46 2.29  70 2.32  87 2.36  81 2.44
  76  0.618  0.774  0.490-  74 2.26  54 2.37 109 2.41  58 2.51
  77  0.842  0.643  0.413-  23 1.54  25 1.54  89 2.29  62 2.36 109 2.66
  78  0.291  0.439  0.415- 112 2.34  81 2.43  88 2.53
  79  0.152  0.589  0.603- 111 2.24 107 2.35  38 2.38
  80  0.503  0.926  0.595-  67 2.27  48 2.37 100 2.38
  81  0.190  0.307  0.422-  50 2.21  78 2.43  75 2.44 105 2.53
  82  0.271  0.819  0.640-  48 2.30 106 2.47
  83  0.122  0.771  0.525- 106 2.28  61 2.28  91 2.28  38 2.36
  84  0.625  0.950  0.399-  90 2.22  74 2.26  60 2.28  98 2.35
  85  0.975  0.134  0.435-  46 2.18  65 2.35  95 2.42  43 2.74
  86  0.702  0.197  0.606-  69 2.20  99 2.30  51 2.39
  87  0.272  0.287  0.544-  93 2.23  42 2.27  75 2.36  37 2.42
  88  0.201  0.528  0.477-  22 1.52 107 2.33  61 2.39  78 2.53
  89  0.862  0.786  0.380-  77 2.29  98 2.45  39 2.45
  90  0.494  0.002  0.369-  84 2.22  55 2.26 102 2.45
  91  0.006  0.875  0.517-  39 2.20  83 2.28  49 2.34  66 2.41
  92  0.620  0.696  0.362- 109 2.22  98 2.29
  93  0.299  0.190  0.604-  28 1.48  87 2.23  45 2.41
  94  0.939  0.280  0.586-  96 2.28  70 2.30  41 2.36
  95  0.861  0.231  0.397- 108 2.34  47 2.35  85 2.42
  96  0.902  0.145  0.549-  94 2.28  72 2.34  99 2.36  46 2.41
  97  0.744  0.978  0.513-  99 2.24  43 2.25  74 2.28  73 2.49
  98  0.703  0.829  0.361-  92 2.29  84 2.35  89 2.45  60 3.11
  99  0.744  0.125  0.536-  97 2.24  86 2.30  96 2.36  68 2.38
 100  0.468  0.982  0.517- 103 2.34  80 2.38  52 2.38  74 2.48
 101  0.096  0.920  0.417-  44 2.31  65 2.32  40 2.35  39 2.44
 102  0.409  0.112  0.418- 105 2.30 103 2.31  53 2.37  90 2.45
 103  0.491  0.130  0.488- 102 2.31 100 2.34  68 2.37  42 2.41
 104  0.578  0.383  0.626- 110 2.28  51 2.34  69 3.09
 105  0.254  0.146  0.419- 102 2.30  81 2.53  40 2.55
 106  0.268  0.795  0.552-  83 2.28  56 2.35  82 2.47  52 2.51
 107  0.274  0.559  0.550-  56 2.32  88 2.33  79 2.35  37 2.39
 108  0.828  0.364  0.442-  36 1.47   4 1.51  26 1.54  95 2.34
 109  0.666  0.655  0.435-  18 1.54  92 2.22  76 2.41  77 2.66
 110  0.474  0.380  0.565-  34 1.46 104 2.28  37 2.32  42 2.46
 111  0.078  0.456  0.613-  79 2.24  70 2.37
 112  0.424  0.364  0.441-   5 1.53  42 2.34  78 2.34  53 2.37

  LATTYP: Found a simple tetragonal cell.
 ALAT       =    14.5676482755
 C/A-ratio  =     1.9185862722
  
  Lattice vectors:
  
 A1 = (  14.5676482755,   0.0000000000,   0.0000000000)
 A2 = (   0.0000000000,  14.5676482755,   0.0000000000)
 A3 = (   0.0000000000,   0.0000000000,  27.9492900000)


Analysis of symmetry for initial positions (statically):
=====================================================================
 Subroutine PRICEL returns:
 Original cell was already a primitive cell.
 

 Routine SETGRP: Setting up the symmetry group for a 
 simple tetragonal supercell.


 Subroutine GETGRP returns: Found  1 space group operations
 (whereof  1 operations were pure point group operations)
 out of a pool of 16 trial point group operations.


The static configuration has the point symmetry C_1 .


Analysis of symmetry for dynamics (positions and initial velocities):
=====================================================================
 Subroutine PRICEL returns:
 Original cell was already a primitive cell.
 

 Routine SETGRP: Setting up the symmetry group for a 
 simple tetragonal supercell.


 Subroutine GETGRP returns: Found  1 space group operations
 (whereof  1 operations were pure point group operations)
 out of a pool of 16 trial point group operations.


The dynamic configuration has the point symmetry C_1 .


 Subroutine INISYM returns: Found  1 space group operations
 (whereof  1 operations are pure point group operations),
 and found     1 'primitive' translations


----------------------------------------------------------------------------------------

                                     Primitive cell                                     

  volume of cell :    5931.2970

  direct lattice vectors                    reciprocal lattice vectors
    14.567648276  0.000000000  0.000000000     0.068645260  0.000000000  0.000000000
     0.000000000 14.567648276  0.000000000     0.000000000  0.068645260  0.000000000
     0.000000000  0.000000000 27.949290000     0.000000000  0.000000000  0.035779084

  length of vectors
    14.567648276 14.567648276 27.949290000     0.068645260  0.068645260  0.035779084

  position of ions in fractional coordinates (direct lattice)
     0.885228676  0.528212918  0.509767511
     0.474246760  0.623434876  0.452083756
     0.901353448  0.564441140  0.616250717
     0.782102903  0.416638972  0.401920049
     0.513874296  0.417443494  0.445937267
     0.000607629  0.515002824  0.444908618
     0.872961768  0.718338321  0.529599500
     0.964802261  0.628277799  0.558303628
     0.158817673  0.553214208  0.371097262
     0.611100696  0.432470628  0.470363290
     0.873744324  0.480991157  0.373615824
     0.966943994  0.425427624  0.504066472
     0.647803257  0.281110576  0.481180023
     0.644376486  0.411717107  0.401872105
     0.796889092  0.811565448  0.478669404
     0.898127121  0.439681813  0.357790842
     0.653507678  0.414493807  0.485680674
     0.636203581  0.553694038  0.436884443
     0.725319544  0.390420601  0.542936869
     0.762738075  0.804213541  0.496294539
     0.632632655  0.567542533  0.594464117
     0.138966837  0.454998629  0.497861663
     0.812183255  0.662743898  0.464495520
     0.992768340  0.321273545  0.402411653
     0.785445927  0.570019940  0.385856922
     0.795488728  0.341719535  0.492754914
     0.558055758  0.546356546  0.513643459
     0.305194079  0.104922220  0.574656100
     0.822740896  0.719615123  0.538063042
     0.782459858  0.540599268  0.587296493
     0.607205077  0.560752144  0.523536018
     0.296938114  0.991526635  0.588676492
     0.846011639  0.532972780  0.529934392
     0.501017725  0.469428550  0.546295094
     0.501284755  0.187144139  0.579997560
     0.912652458  0.419206991  0.442691389
     0.326014186  0.420844180  0.586765531
     0.030817328  0.687990251  0.579585385
     0.947922392  0.861848101  0.444358694
     0.201946803  0.002166602  0.463055412
     0.852677094  0.363198637  0.642209158
     0.410360676  0.269096283  0.507693398
     0.856569280  0.995562202  0.458095358
     0.171670125  0.818821252  0.367141062
     0.156237984  0.144162596  0.640908946
     0.042089978  0.155206246  0.503519410
     0.712318132  0.167474527  0.400722881
     0.353814830  0.950805493  0.626502856
     0.096144551  0.007765838  0.523567504
     0.077567084  0.319319214  0.369547026
     0.721111589  0.357123532  0.590566344
     0.328926118  0.909693847  0.493294463
     0.458797458  0.251150353  0.382255435
     0.470493924  0.707334486  0.479941709
     0.414436832  0.869151956  0.370297635
     0.379617897  0.678112885  0.546367010
     0.718832567  0.611509135  0.604821804
     0.680863501  0.745549302  0.571623465
     0.456392815  0.670154840  0.623058403
     0.763843263  0.022153747  0.396937096
     0.130191913  0.673409998  0.461630331
     0.999001330  0.610443074  0.426475950
     0.372331202  0.803197591  0.439824053
     0.255754390  0.717150758  0.413109242
     0.015949383  0.030459687  0.374131114
     0.916379895  0.875494778  0.589082943
     0.560671142  0.787992666  0.618625017
     0.643983835  0.181963482  0.475307602
     0.555828906  0.172677837  0.621527058
     0.027409640  0.380881656  0.542293561
     0.109220100  0.004802793  0.608161424
     0.953791562  0.029070169  0.600788428
     0.752118653  0.878165079  0.584372984
     0.611679376  0.927871112  0.478465464
     0.130419129  0.285026102  0.503176288
     0.617781253  0.774277343  0.489552329
     0.842497002  0.642652117  0.412830523
     0.290715421  0.438792857  0.414865279
     0.152294314  0.588612509  0.602900825
     0.502675508  0.925592089  0.595200451
     0.189774626  0.306969246  0.422158846
     0.271027274  0.819109562  0.639844876
     0.122338209  0.771305003  0.525271304
     0.625088541  0.950050395  0.398805479
     0.975112779  0.134110871  0.434732331
     0.701932104  0.196995421  0.605890525
     0.272306822  0.287075849  0.543894675
     0.201353022  0.528243122  0.476945926
     0.861621571  0.785905850  0.380253845
     0.493814092  0.002246993  0.368749618
     0.006260736  0.875364352  0.516803826
     0.620445375  0.695554959  0.361884398
     0.298792222  0.189564571  0.603775981
     0.939417244  0.279535854  0.585574804
     0.860777235  0.231019444  0.397335675
     0.902266430  0.144521611  0.549033267
     0.744423519  0.978483262  0.512571876
     0.703359925  0.829008209  0.361104736
     0.743723338  0.125351049  0.535704127
     0.468092713  0.981798828  0.517369851
     0.095752586  0.919873939  0.416835276
     0.408551187  0.112167041  0.417948721
     0.491285200  0.130152099  0.487698972
     0.577756261  0.383230697  0.626142918
     0.254130243  0.145574629  0.418710457
     0.268315786  0.794534559  0.552354282
     0.273902137  0.558788203  0.549615393
     0.828486505  0.363504109  0.441691005
     0.665589244  0.655478484  0.434914447
     0.474394348  0.379924741  0.565083406
     0.077670739  0.455824432  0.612931133
     0.424076686  0.363992176  0.440727832

  ion indices of the primitive-cell ions
   primitive index   ion index
                 1           1
                 2           2
                 3           3
                 4           4
                 5           5
                 6           6
                 7           7
                 8           8
                 9           9
                10          10
                11          11
                12          12
                13          13
                14          14
                15          15
                16          16
                17          17
                18          18
                19          19
                20          20
                21          21
                22          22
                23          23
                24          24
                25          25
                26          26
                27          27
                28          28
                29          29
                30          30
                31          31
                32          32
                33          33
                34          34
                35          35
                36          36
                37          37
                38          38
                39          39
                40          40
                41          41
                42          42
                43          43
                44          44
                45          45
                46          46
                47          47
                48          48
                49          49
                50          50
                51          51
                52          52
                53          53
                54          54
                55          55
                56          56
                57          57
                58          58
                59          59
                60          60
                61          61
                62          62
                63          63
                64          64
                65          65
                66          66
                67          67
                68          68
                69          69
                70          70
                71          71
                72          72
                73          73
                74          74
                75          75
                76          76
                77          77
                78          78
                79          79
                80          80
                81          81
                82          82
                83          83
                84          84
                85          85
                86          86
                87          87
                88          88
                89          89
                90          90
                91          91
                92          92
                93          93
                94          94
                95          95
                96          96
                97          97
                98          98
                99          99
               100         100
               101         101
               102         102
               103         103
               104         104
               105         105
               106         106
               107         107
               108         108
               109         109
               110         110
               111         111
               112         112

----------------------------------------------------------------------------------------


 -----------------------------------------------------------------------------
|                                                                             |
|           W    W    AA    RRRRR   N    N  II  N    N   GGGG   !!!           |
|           W    W   A  A   R    R  NN   N  II  NN   N  G    G  !!!           |
|           W    W  A    A  R    R  N N  N  II  N N  N  G       !!!           |
|           W WW W  AAAAAA  RRRRR   N  N N  II  N  N N  G  GGG   !            |
|           WW  WW  A    A  R   R   N   NN  II  N   NN  G    G                |
|           W    W  A    A  R    R  N    N  II  N    N   GGGG   !!!           |
|                                                                             |
|     The requested file  could not be found or opened for reading            |
|     k-point information. Automatic k-point generation is used as a          |
|     fallback, which may lead to unwanted results.                           |
|                                                                             |
 -----------------------------------------------------------------------------



Automatic generation of k-mesh.
 Grid dimensions derived from KSPACING:
 generate k-points for:    2    2    1

 Generating k-lattice:

  Cartesian coordinates                     Fractional coordinates (reciprocal lattice)
     0.034322630  0.000000000  0.000000000     0.500000000  0.000000000  0.000000000
     0.000000000  0.034322630  0.000000000     0.000000000  0.500000000  0.000000000
     0.000000000  0.000000000  0.035779084     0.000000000  0.000000000  1.000000000

  Length of vectors
     0.034322630  0.034322630  0.035779084

  Shift w.r.t. Gamma in fractional coordinates (k-lattice)
     0.000000000  0.000000000  0.000000000

 
 Subroutine IBZKPT returns following result:
 ===========================================
 
 Found      4 irreducible k-points:
 
 Following reciprocal coordinates:
            Coordinates               Weight
  0.000000  0.000000  0.000000      1.000000
  0.500000  0.000000  0.000000      1.000000
  0.000000  0.500000  0.000000      1.000000
  0.500000  0.500000  0.000000      1.000000
 
 Following cartesian coordinates:
            Coordinates               Weight
  0.000000  0.000000  0.000000      1.000000
  0.034323  0.000000  0.000000      1.000000
  0.000000  0.034323  0.000000      1.000000
  0.034323  0.034323  0.000000      1.000000
 


--------------------------------------------------------------------------------------------------------




 Dimension of arrays:
   k-points           NKPTS =      4   k-points in BZ     NKDIM =      4   number of bands    NBANDS=    232
   number of dos      NEDOS =   2000   number of ions     NIONS =    112
   non local maximal  LDIM  =      4   non local SUM 2l+1 LMDIM =      8
   total plane-waves  NPLWV = ******
   max r-space proj   IRMAX =      1   max aug-charges    IRDMAX= 407447
   dimension x,y,z NGX =   168 NGY =  168 NGZ =  320
   dimension x,y,z NGXF=   336 NGYF=  336 NGZF=  640
   support grid    NGXF=   672 NGYF=  672 NGZF= 1280
   ions per type =              36  76
   NGX,Y,Z   is equivalent  to a cutoff of  19.17, 19.17, 19.03 a.u.
   NGXF,Y,Z  is equivalent  to a cutoff of  38.34, 38.34, 38.07 a.u.

 SYSTEM =  a-Si SPC                                
 POSCAR =   H Si                                   

 Startparameter for this run:
   NWRITE =      2    write-flag & timer
   PREC   = accura    normal or accurate (medium, high low for compatibility)
   ISTART =      1    job   : 0-new  1-cont  2-samecut
   ICHARG =      1    charge: 1-file 2-atom 10-const
   ISPIN  =      1    spin polarized calculation?
   LNONCOLLINEAR =      F non collinear calculations
   LSORBIT =      F    spin-orbit coupling
   INIWAV =      1    electr: 0-lowe 1-rand  2-diag
   LASPH  =      T    aspherical Exc in radial PAW
 Electronic Relaxation 1
   ENCUT  = 1200.0 eV  88.20 Ry    9.39 a.u.  41.15 41.15 78.94*2*pi/ulx,y,z
   ENINI  = 1200.0     initial cutoff
   ENAUG  =  400.0 eV  augmentation charge cutoff
   NELM   =    150;   NELMIN=  2; NELMDL=  0     # of ELM steps 
   EDIFF  = 0.1E-05   stopping-criterion for ELM
   LREAL  =      F    real-space projection
   NLSPLINE    = F    spline interpolate recip. space projectors
   LCOMPAT=      F    compatible to vasp.4.4
   GGA_COMPAT  = T    GGA compatible to vasp.4.4-vasp.4.6
   LMAXPAW     = -100 max onsite density
   LMAXMIX     =    2 max onsite mixed and CHGCAR
   VOSKOWN=      0    Vosko Wilk Nusair interpolation
   ROPT   =    0.00000   0.00000
 Ionic relaxation
   EDIFFG = -.1E-01   stopping-criterion for IOM
   NSW    =      0    number of steps for IOM
   NBLOCK =      1;   KBLOCK =      1    inner block; outer block 
   IBRION =     -1    ionic relax: 0-MD 1-quasi-New 2-CG
   NFREE  =      0    steps in history (QN), initial steepest desc. (CG)
   ISIF   =      2    stress and relaxation
   IWAVPR =     10    prediction:  0-non 1-charg 2-wave 3-comb
   ISYM   =      1    0-nonsym 1-usesym 2-fastsym
   LCORR  =      T    Harris-Foulkes like correction to forces

   POTIM  = 0.5000    time-step for ionic-motion
   TEIN   =    0.0    initial temperature
   TEBEG  =    0.0;   TEEND  =   0.0 temperature during run
   SMASS  =  -3.00    Nose mass-parameter (am)
   estimated Nose-frequenzy (Omega)   =  0.10E-29 period in steps = 0.13E+47 mass=  -0.485E-26a.u.
   SCALEE = 1.0000    scale energy and forces
   NPACO  =    256;   APACO  = 10.0  distance and # of slots for P.C.
   PSTRESS=    0.0 pullay stress

  Mass of Ions in am
   POMASS =   1.00 28.09
  Ionic Valenz
   ZVAL   =   1.00  4.00
  Atomic Wigner-Seitz radii
   RWIGS  =  -1.00 -1.00
  virtual crystal weights 
   VCA    =   1.00  1.00
   NELECT =     340.0000    total number of electrons
   NUPDOWN=      -1.0000    fix difference up-down

 DOS related values:
   EMIN   =  10.00;   EMAX   =-10.00  energy-range for DOS
   EFERMI =   0.00;   METHOD = LEGACY      
   ISMEAR =     0;   SIGMA  =   0.10  broadening in eV -4-tet -1-fermi 0-gaus
   EFERMI_NEDOS =   21; number of points for ismear=-14 and -15

 Electronic relaxation 2 (details)
   IALGO  =     38    algorithm
   LDIAG  =      F    sub-space diagonalisation (order eigenvalues)
   LSUBROT=      F    optimize rotation matrix (better conditioning)
   TURBO    =      0    0=normal 1=particle mesh
   IRESTART =      0    0=no restart 2=restart with 2 vectors
   NREBOOT  =      0    no. of reboots
   NMIN     =      0    reboot dimension
   EREF     =   0.00    reference energy to select bands
   IMIX   =      4    mixing-type and parameters
     AMIX     =   0.40;   BMIX     =  1.00
     AMIX_MAG =   1.60;   BMIX_MAG =  1.00
     AMIN     =   0.10
     WC   =   100.;   INIMIX=   1;  MIXPRE=   1;  MAXMIX= -45

 Intra band minimization:
   WEIMIN = 0.0000     energy-eigenvalue tresh-hold
   EBREAK =  0.11E-08  absolut break condition
   DEPER  =   0.30     relativ break condition  

   TIME   =   0.40     timestep for ELM

  volume/ion in A,a.u.               =      52.96       357.38
  Fermi-wavevector in a.u.,A,eV,Ry     =   0.631226  1.192843  5.421183  0.398446
  Thomas-Fermi vector in A             =   1.694128

 Write flags
   LWAVE        =      F    write WAVECAR
   LDOWNSAMPLE  =      F    k-point downsampling of WAVECAR
   LCHARG       =      F    write CHGCAR
   LVTOT        =      F    write LOCPOT, total local potential
   LVHAR        =      F    write LOCPOT, Hartree potential only
   WRT_POTENTIAL= false  ! write potential to hdf5 file
   LELF         =      F    write electronic localiz. function (ELF)
   LORBIT       =     11    0 simple, 1 ext, 2 COOP (PROOUT), +10 PAW based schemes


 Python interface
   PLUGINS active      =      F    recompile with -DPLUGINS to activate

 Dipole corrections
   LMONO      =      F    monopole corrections only (constant potential shift)
   LDIPOL     =      F    correct potential (dipole corrections)
   IDIPOL     =      0    1-x, 2-y, 3-z, 4-all directions 
   EPSILON    =  1.0000000 bulk dielectric constant
   LVACPOTAV  =      F  vacuum potentials using an averaging scheme for the charge density
   VACPOTFLAT =  0.1000000 required flatness to determine vacuum potential

Coulomb truncation method
  LTRUNCATE          =      F  Coulomb kernel truncation to be used
  IDIMENSIONALITY    =      3  Dimensionality of cutoff (0 molecules / 2 surfaces)
  ISURFACE           =     -1  Direction of surface normal
  LCOARSEN           =      F  Coarsen the charge grid before padding, preferred


 Exchange correlation treatment:
   METAGGA = SCAN    functional components
   XC_C    = 1    coefficients multiplying the functional components
   LIBXC   =     F    Libxc                    
   VOSKOWN =     0    Vosko Wilk Nusair interpolation
   LHFCALC =     F    Hartree Fock is set to
   LHFONE  =     F    Hartree Fock one center treatment
   AEXX    =    0.0000 exact exchange contribution

 Parameters of functionals:
   SCAN:
     P1 =  0.000000E+00
     P2 =  0.000000E+00
     P3 =  0.000000E+00

 Accuracy and mixing parameters for tau-dependent meta-GGA functionals:
   LMAXTAU = 6
   LMIXTAU = T

 Van der Waals corrections
   IVDW    =     0    specifies the selected vdW correction

 Linear response parameters
   LEPSILON=     F    determine dielectric tensor
   LRPA    =     F    only Hartree local field effects (RPA)
   LNABLA  =     F    use nabla operator in PAW spheres
   LVEL    =     F    velocity operator in full k-point grid
   CSHIFT  =0.1000    complex shift for real part using Kramers Kronig
   OMEGAMAX=  -1.0    maximum frequency
   DEG_THRESHOLD= 0.2000000E-02 threshold for treating states as degnerate
   RTIME   =   -0.100 relaxation time in fs
  (WPLASMAI=    0.000 imaginary part of plasma frequency in eV, 0.658/RTIME)
   DFIELD  = 0.0000000 0.0000000 0.0000000 field for delta impulse in time

  Optional k-point grid parameters
   LKPOINTS_OPT  =     F    use optional k-point grid
   KPOINTS_OPT_MODE=     1    mode for optional k-point grid

 Orbital magnetization related:
   ORBITALMAG=     F  switch on orbital magnetization
   LCHIMAG   =     F  perturbation theory with respect to B field
   DQ        =  0.001000  dq finite difference perturbation B field
   LLRAUG    =     F  two centre corrections for induced B field
   LBONE     =     F  B-component reconstruction in AE one-centre
   LVGVCALC  =     T  calculate vGv susceptibility
   LVGVAPPL  =     F  apply vGv susceptibility instead of pGv for G=0

 Random number generation:
   RANDOM_GENERATOR = DEFAULT
   PCG_SEED         = not used


--------------------------------------------------------------------------------------------------------


 Static calculation
 charge density and potential will be updated during run
 non-spin polarized calculation
 Variant of blocked Davidson
 perform Loewdin sub-space diagonalisation
    ordering is kept fixed
    before iterative eigenvector-optimisation
 modified Broyden-mixing scheme, WC =      100.0
 initial mixing is a Kerker type mixing with AMIX =  0.4000 and BMIX =      1.0000
 Hartree-type preconditioning will be used
 using additional bands           62
 reciprocal scheme for non local part
 use partial core corrections
 calculate Harris-corrections to forces   (improved forces if not selfconsistent)
 use gradient corrections 
 use of overlap-Matrix (Vanderbilt PP)
 Gauss-broadening in eV      SIGMA  =   0.10


--------------------------------------------------------------------------------------------------------


  energy-cutoff  :     1200.00
  volume of cell :     5931.30
      direct lattice vectors                 reciprocal lattice vectors
    14.567648276  0.000000000  0.000000000     0.068645260  0.000000000  0.000000000
     0.000000000 14.567648276  0.000000000     0.000000000  0.068645260  0.000000000
     0.000000000  0.000000000 27.949290000     0.000000000  0.000000000  0.035779084

  length of vectors
    14.567648276 14.567648276 27.949290000     0.068645260  0.068645260  0.035779084



 old parameters found on file WAVECAR:
  energy-cutoff  :     1200.00
  volume of cell :     5931.30
      direct lattice vectors                 reciprocal lattice vectors
    14.567648276  0.000000000  0.000000000     0.068645260  0.000000000  0.000000000
     0.000000000 14.567648276  0.000000000     0.000000000  0.068645260  0.000000000
     0.000000000  0.000000000 27.949290000     0.000000000  0.000000000  0.035779084

  length of vectors


 k-points in units of 2pi/SCALE and weight: read from INCAR                         
   0.00000000  0.00000000  0.00000000       0.250
   0.03432263  0.00000000  0.00000000       0.250
   0.00000000  0.03432263  0.00000000       0.250
   0.03432263  0.03432263  0.00000000       0.250

 k-points in reciprocal lattice and weights: read from INCAR                         
   0.00000000  0.00000000  0.00000000       0.250
   0.50000000  0.00000000  0.00000000       0.250
   0.00000000  0.50000000  0.00000000       0.250
   0.50000000  0.50000000  0.00000000       0.250

 position of ions in fractional coordinates (direct lattice) 
   0.88522868  0.52821292  0.50976751
   0.47424676  0.62343488  0.45208376
   0.90135345  0.56444114  0.61625072
   0.78210290  0.41663897  0.40192005
   0.51387430  0.41744349  0.44593727
   0.00060763  0.51500282  0.44490862
   0.87296177  0.71833832  0.52959950
   0.96480226  0.62827780  0.55830363
   0.15881767  0.55321421  0.37109726
   0.61110070  0.43247063  0.47036329
   0.87374432  0.48099116  0.37361582
   0.96694399  0.42542762  0.50406647
   0.64780326  0.28111058  0.48118002
   0.64437649  0.41171711  0.40187210
   0.79688909  0.81156545  0.47866940
   0.89812712  0.43968181  0.35779084
   0.65350768  0.41449381  0.48568067
   0.63620358  0.55369404  0.43688444
   0.72531954  0.39042060  0.54293687
   0.76273807  0.80421354  0.49629454
   0.63263265  0.56754253  0.59446412
   0.13896684  0.45499863  0.49786166
   0.81218326  0.66274390  0.46449552
   0.99276834  0.32127354  0.40241165
   0.78544593  0.57001994  0.38585692
   0.79548873  0.34171954  0.49275491
   0.55805576  0.54635655  0.51364346
   0.30519408  0.10492222  0.57465610
   0.82274090  0.71961512  0.53806304
   0.78245986  0.54059927  0.58729649
   0.60720508  0.56075214  0.52353602
   0.29693811  0.99152664  0.58867649
   0.84601164  0.53297278  0.52993439
   0.50101773  0.46942855  0.54629509
   0.50128476  0.18714414  0.57999756
   0.91265246  0.41920699  0.44269139
   0.32601419  0.42084418  0.58676553
   0.03081733  0.68799025  0.57958538
   0.94792239  0.86184810  0.44435869
   0.20194680  0.00216660  0.46305541
   0.85267709  0.36319864  0.64220916
   0.41036068  0.26909628  0.50769340
   0.85656928  0.99556220  0.45809536
   0.17167012  0.81882125  0.36714106
   0.15623798  0.14416260  0.64090895
   0.04208998  0.15520625  0.50351941
   0.71231813  0.16747453  0.40072288
   0.35381483  0.95080549  0.62650286
   0.09614455  0.00776584  0.52356750
   0.07756708  0.31931921  0.36954703
   0.72111159  0.35712353  0.59056634
   0.32892612  0.90969385  0.49329446
   0.45879746  0.25115035  0.38225543
   0.47049392  0.70733449  0.47994171
   0.41443683  0.86915196  0.37029764
   0.37961790  0.67811289  0.54636701
   0.71883257  0.61150914  0.60482180
   0.68086350  0.74554930  0.57162347
   0.45639281  0.67015484  0.62305840
   0.76384326  0.02215375  0.39693710
   0.13019191  0.67341000  0.46163033
   0.99900133  0.61044307  0.42647595
   0.37233120  0.80319759  0.43982405
   0.25575439  0.71715076  0.41310924
   0.01594938  0.03045969  0.37413111
   0.91637990  0.87549478  0.58908294
   0.56067114  0.78799267  0.61862502
   0.64398383  0.18196348  0.47530760
   0.55582891  0.17267784  0.62152706
   0.02740964  0.38088166  0.54229356
   0.10922010  0.00480279  0.60816142
   0.95379156  0.02907017  0.60078843
   0.75211865  0.87816508  0.58437298
   0.61167938  0.92787111  0.47846546
   0.13041913  0.28502610  0.50317629
   0.61778125  0.77427734  0.48955233
   0.84249700  0.64265212  0.41283052
   0.29071542  0.43879286  0.41486528
   0.15229431  0.58861251  0.60290083
   0.50267551  0.92559209  0.59520045
   0.18977463  0.30696925  0.42215885
   0.27102727  0.81910956  0.63984488
   0.12233821  0.77130500  0.52527130
   0.62508854  0.95005040  0.39880548
   0.97511278  0.13411087  0.43473233
   0.70193210  0.19699542  0.60589053
   0.27230682  0.28707585  0.54389467
   0.20135302  0.52824312  0.47694593
   0.86162157  0.78590585  0.38025385
   0.49381409  0.00224699  0.36874962
   0.00626074  0.87536435  0.51680383
   0.62044538  0.69555496  0.36188440
   0.29879222  0.18956457  0.60377598
   0.93941724  0.27953585  0.58557480
   0.86077723  0.23101944  0.39733567
   0.90226643  0.14452161  0.54903327
   0.74442352  0.97848326  0.51257188
   0.70335993  0.82900821  0.36110474
   0.74372334  0.12535105  0.53570413
   0.46809271  0.98179883  0.51736985
   0.09575259  0.91987394  0.41683528
   0.40855119  0.11216704  0.41794872
   0.49128520  0.13015210  0.48769897
   0.57775626  0.38323070  0.62614292
   0.25413024  0.14557463  0.41871046
   0.26831579  0.79453456  0.55235428
   0.27390214  0.55878820  0.54961539
   0.82848650  0.36350411  0.44169101
   0.66558924  0.65547848  0.43491445
   0.47439435  0.37992474  0.56508341
   0.07767074  0.45582443  0.61293113
   0.42407669  0.36399218  0.44072783

 position of ions in cartesian coordinates  (Angst):
  12.89570000  7.69482000 14.24764000
   6.90866000  9.08198000 12.63542000
  13.13060000  8.22258000 17.22377000
  11.39340000  6.06945000 11.23338000
   7.48594000  6.08117000 12.46363000
   0.00885172  7.50238000 12.43488000
  12.71700000 10.46450000 14.80193000
  14.05490000  9.15253000 15.60419000
   2.31360000  8.05903000 10.37190500
   8.90230000  6.30008000 13.14632000
  12.72840000  7.00691000 10.44229700
  14.08610000  6.19748000 14.08830000
   9.43697000  4.09512000 13.44864000
   9.38705000  5.99775000 11.23204000
  11.60880000 11.82260000 13.37847000
  13.08360000  6.40513000 10.00000000
   9.52007000  6.03820000 13.57443000
   9.26799000  8.06602000 12.21061000
  10.56620000  5.68751000 15.17470000
  11.11130000 11.71550000 13.87108000
   9.21597000  8.26776000 16.61485000
   2.02442000  6.62826000 13.91488000
  11.83160000  9.65462000 12.98232000
  14.46230000  4.68020000 11.24712000
  11.44210000  8.30385000 10.78442700
  11.58840000  4.97805000 13.77215000
   8.12956000  7.95913000 14.35597000
   4.44596000  1.52847000 16.06123000
  11.98540000 10.48310000 15.03848000
  11.39860000  7.87526000 16.41452000
   8.84555000  8.16884000 14.63246000
   4.32569000 14.44421128 16.45309000
  12.32440000  7.76416000 14.81129000
   7.29865000  6.83847000 15.26856000
   7.30254000  2.72625000 16.21052000
  13.29520000  6.10686000 12.37291000
   4.74926000  6.13071000 16.39968000
   0.44893600 10.02240000 16.19900000
  13.80900000 12.55510000 12.41951000
   2.94189000  0.03156230 12.94207000
  12.42150000  5.29095000 17.94929000
   5.97799000  3.92010000 14.18967000
  12.47820000 14.50300000 12.80344000
   2.50083000 11.92830000 10.26133200
   2.27602000  2.10011000 17.91295000
   0.61315200  2.26099000 14.07301000
  10.37680000  2.43971000 11.19992000
   5.15425000 13.85100000 17.51031000
   1.40060000  0.11313000 14.63334000
   1.12997000  4.65173000 10.32857700
  10.50490000  5.20245000 16.50591000
   4.79168000 13.25210000 13.78723000
   6.68360000  3.65867000 10.68376800
   6.85399000 10.30420000 13.41403000
   6.03737000 12.66150000 10.34955600
   5.53014000  9.87851000 15.27057000
  10.47170000  8.90825000 16.90434000
   9.91858000 10.86090000 15.97647000
   6.64857000  9.76258000 17.41404000
  11.12740000  0.32272800 11.09411000
   1.89659000  9.81000000 12.90224000
  14.55310000  8.89272000 11.91970000
   5.42399000 11.70070000 12.29277000
   3.72574000 10.44720000 11.54611000
   0.23234500  0.44372600 10.45669900
  13.34950000 12.75390000 16.46445000
   8.16766000 11.47920000 17.29013000
   9.38133000  2.65078000 13.28451000
   8.09712000  2.51551000 17.37124000
   0.39929400  5.54855000 15.15672000
   1.59108000  0.06996540 16.99768000
  13.89450000  0.42348400 16.79161000
  10.95660000 12.79280000 16.33281000
   8.91073000 13.51690000 13.37277000
   1.89990000  4.15216000 14.06342000
   8.99962000 11.27940000 13.68264000
  12.27320000  9.36193000 11.53832000
   4.23504000  6.39218000 11.59519000
   2.21857000  8.57470000 16.85065000
   7.32280000 13.48370000 16.63543000
   2.76457000  4.47182000 11.79904000
   3.94823000 11.93250000 17.88321000
   1.78218000 11.23610000 14.68096000
   9.10607000 13.84000000 11.14633000
  14.20510000  1.95368000 12.15046000
  10.22550000  2.86976000 16.93421000
   3.96687000  4.18202000 15.20147000
   2.93324000  7.69526000 13.33030000
  12.55180000 11.44880000 10.62782500
   7.19371000  0.03273340 10.30629000
   0.09120420 12.75200000 14.44430000
   9.03843000 10.13260000 10.11441200
   4.35270000  2.76151000 16.87511000
  13.68510000  4.07218000 16.36640000
  12.53950000  3.36541000 11.10525000
  13.14390000  2.10534000 15.34509000
  10.84450000 14.25420000 14.32602000
  10.24630000 12.07670000 10.09262100
  10.83430000  1.82607000 14.97255000
   6.81901000 14.30250000 14.46012000
   1.39489000 13.40040000 11.65025000
   5.95163000  1.63401000 11.68137000
   7.15687000  1.89601000 13.63084000
   8.41655000  5.58277000 17.50025000
   3.70208000  2.12068000 11.70266000
   3.90873000 11.57450000 15.43791000
   3.99011000  8.14023000 15.36136000
  12.06910000  5.29540000 12.34495000
   9.69607000  9.54878000 12.15555000
   6.91081000  5.53461000 15.79368000
   1.13148000  6.64029000 17.13099000
   6.17780000  5.30251000 12.31803000



--------------------------------------------------------------------------------------------------------


 k-point     1 :   0.0000 0.0000 0.0000  plane waves:  559733
 k-point     2 :   0.5000 0.0000 0.0000  plane waves:  559838
 k-point     3 :   0.0000 0.5000 0.0000  plane waves:  559838
 k-point     4 :   0.5000 0.5000 0.0000  plane waves:  559924

 maximum and minimum number of plane-waves per node :     35045    34906

 maximum number of plane-waves:    559924
 maximum index in each direction: 
   IXMAX=   41   IYMAX=   41   IZMAX=   78
   IXMIN=  -41   IYMIN=  -41   IZMIN=  -78


 parallel 3D FFT for wavefunctions:
    minimum data exchange during FFTs selected (reduces bandwidth)
 parallel 3D FFT for charge:
    minimum data exchange during FFTs selected (reduces bandwidth)


 total amount of memory used by VASP MPI-rank0   368607. kBytes
=======================================================================

   base                                    :      30000. kBytes
   nonl-proj                               :      80658. kBytes
   fftplans                                :     108859. kBytes
   grid                                    :      83991. kBytes
   one-center                              :         21. kBytes
   wavefun                                 :      65078. kBytes

     INWAV:  cpu time     19.1184: real time     19.1318
 Broyden mixing: mesh for mixing (old mesh)
   NGX = 83   NGY = 83   NGZ =157
  (NGX  =336   NGY  =336   NGZ  =640)
  gives a total of ****** points

 initial charge density was supplied:
 number of electron     339.9999999 magnetization 
 keeping initial charge density in first step


--------------------------------------------------------------------------------------------------------


 Maximum index for augmentation-charges        11397 (set IRDMAX)


--------------------------------------------------------------------------------------------------------


 First call to EWALD:  gamma=   0.098
 Maximum number of real-space cells   3x   3x   2
 Maximum number of reciprocal cells   2x   2x   4

    FEWALD:  cpu time      0.0159: real time      0.0159


--------------------------------------- Ionic step        1  -------------------------------------------




--------------------------------------- Iteration      1(   1)  ---------------------------------------


    POTLOK:  cpu time      2.1759: real time      2.1770
    SETDIJ:  cpu time      1.8061: real time      1.8071
    EDDIAG:  cpu time     38.5844: real time     38.6077
     EDDAV:  cpu time    183.4972: real time    183.5917
       DOS:  cpu time      0.0076: real time      0.0076
    CHARGE:  cpu time     22.3843: real time     22.4027
    MIXING:  cpu time      0.0506: real time      0.0509
    --------------------------------------------
      LOOP:  cpu time    248.5062: real time    248.6449

 eigenvalue-minimisations  :  1928
 total energy-change (2. order) :-0.8616086E+03  (-0.1000303E+01)
 number of electron     339.9999999 magnetization 
 augmentation part      -16.8606579 magnetization 

 Broyden mixing:
  rms(total) = 0.10406E+01    rms(broyden)= 0.24944E+02
  rms(prec ) = 0.10754E+01
  weight for this iteration     100.00
  WARNING: grid for Broyden might be to small

 Free energy of the ion-electron system (eV)
  ---------------------------------------------------
  alpha Z        PSCENC =        41.69113659
  Ewald energy   TEWEN  =     49083.78902273
  -Hartree energ DENC   =    -56240.73068157
  -exchange      EXHF   =         0.00000000
  -V(xc)+E(xc)   XCENC  =      -272.37114252
  PAW double counting   =     27925.03093216   -27167.53335392
  entropy T*S    EENTRO =        -0.24724648
  eigenvalues    EBANDS =     -2513.89778421
  atomic energy  EATOM  =      8282.66055418
  Solvation  Ediel_sol  =         0.00000000
  ---------------------------------------------------
  free energy    TOTEN  =      -861.60856304 eV

  energy without entropy =     -861.36131656  energy(sigma->0) =     -861.48493980


--------------------------------------------------------------------------------------------------------




--------------------------------------- Iteration      1(   2)  ---------------------------------------


    POTLOK:  cpu time      2.1353: real time      2.1533
    SETDIJ:  cpu time      1.7906: real time      1.7918
    EDDIAG:  cpu time     38.6538: real time     38.6783
     EDDAV:  cpu time    180.1221: real time    180.2188
       DOS:  cpu time      0.0019: real time      0.0019
    CHARGE:  cpu time     22.3272: real time     22.3443
    MIXING:  cpu time      0.0435: real time      0.0436
    --------------------------------------------
      LOOP:  cpu time    245.0744: real time    245.2320

 eigenvalue-minimisations  :  1864
 total energy-change (2. order) : 0.6210142E+02  (-0.1108227E+01)
 number of electron     339.9999999 magnetization 
 augmentation part      -16.8764171 magnetization 

 Broyden mixing:
  rms(total) = 0.84140E+00    rms(broyden)= 0.14144E+02
  rms(prec ) = 0.89543E+00
  weight for this iteration     100.00
  WARNING: grid for Broyden might be to small

 eigenvalues of (default mixing * dielectric matrix)
  average eigenvalue GAMMA=   0.6384
  0.6384

 Free energy of the ion-electron system (eV)
  ---------------------------------------------------
  alpha Z        PSCENC =        41.69113659
  Ewald energy   TEWEN  =     49083.78902273
  -Hartree energ DENC   =    -56229.23609013
  -exchange      EXHF   =         0.00000000
  -V(xc)+E(xc)   XCENC  =      -265.71320568
  PAW double counting   =     33110.97774642   -32353.24112741
  entropy T*S    EENTRO =        -0.23408319
  eigenvalues    EBANDS =     -2470.20109902
  atomic energy  EATOM  =      8282.66055418
  Solvation  Ediel_sol  =         0.00000000
  ---------------------------------------------------
  free energy    TOTEN  =      -799.50714551 eV

  energy without entropy =     -799.27306231  energy(sigma->0) =     -799.39010391


--------------------------------------------------------------------------------------------------------




--------------------------------------- Iteration      1(   3)  ---------------------------------------


    POTLOK:  cpu time      2.1431: real time      2.1649
    SETDIJ:  cpu time      1.7896: real time      1.7902
    EDDIAG:  cpu time     38.6771: real time     38.7009
     EDDAV:  cpu time    181.8240: real time    181.9175
       DOS:  cpu time      0.0022: real time      0.0022
    CHARGE:  cpu time     22.4425: real time     22.4610
    MIXING:  cpu time      0.0419: real time      0.0419
    --------------------------------------------
      LOOP:  cpu time    246.9203: real time    247.0786

 eigenvalue-minimisations  :  1896
 total energy-change (2. order) :-0.1403990E+01  (-0.8402170E+00)
 number of electron     339.9999999 magnetization 
 augmentation part      -16.7683841 magnetization 

 Broyden mixing:
  rms(total) = 0.52145E+00    rms(broyden)= 0.24899E+01
  rms(prec ) = 0.53118E+00
  weight for this iteration     100.00
  WARNING: grid for Broyden might be to small

 eigenvalues of (default mixing * dielectric matrix)
  average eigenvalue GAMMA=   0.6037
  0.6435  0.5639

 Free energy of the ion-electron system (eV)
  ---------------------------------------------------
  alpha Z        PSCENC =        41.69113659
  Ewald energy   TEWEN  =     49083.78902273
  -Hartree energ DENC   =    -56229.32578329
  -exchange      EXHF   =         0.00000000
  -V(xc)+E(xc)   XCENC  =      -268.54818939
  PAW double counting   =     36042.19331770   -35284.58960166
  entropy T*S    EENTRO =        -0.24829509
  eigenvalues    EBANDS =     -2468.53329695
  atomic energy  EATOM  =      8282.66055418
  Solvation  Ediel_sol  =         0.00000000
  ---------------------------------------------------
  free energy    TOTEN  =      -800.91113518 eV

  energy without entropy =     -800.66284008  energy(sigma->0) =     -800.78698763


--------------------------------------------------------------------------------------------------------




--------------------------------------- Iteration      1(   4)  ---------------------------------------


    POTLOK:  cpu time      2.1349: real time      2.1548
    SETDIJ:  cpu time      1.7937: real time      1.7944
    EDDIAG:  cpu time     38.6187: real time     38.6407
     EDDAV:  cpu time    196.0616: real time    196.1603
       DOS:  cpu time      0.0038: real time      0.0038
    CHARGE:  cpu time     22.3801: real time     22.3995
    MIXING:  cpu time      0.0419: real time      0.0419
    --------------------------------------------
      LOOP:  cpu time    261.0347: real time    261.1954

 eigenvalue-minimisations  :  2152
 total energy-change (2. order) :-0.1133163E+01  (-0.2339458E+00)
 number of electron     339.9999999 magnetization 
 augmentation part      -16.7348990 magnetization 

 Broyden mixing:
  rms(total) = 0.45468E+00    rms(broyden)= 0.78395E+01
  rms(prec ) = 0.57189E+00
  weight for this iteration     100.00
  WARNING: grid for Broyden might be to small

 eigenvalues of (default mixing * dielectric matrix)
  average eigenvalue GAMMA=   0.6048
  0.8082  0.6370  0.3692

 Free energy of the ion-electron system (eV)
  ---------------------------------------------------
  alpha Z        PSCENC =        41.69113659
  Ewald energy   TEWEN  =     49083.78902273
  -Hartree energ DENC   =    -56229.29735964
  -exchange      EXHF   =         0.00000000
  -V(xc)+E(xc)   XCENC  =      -267.95409818
  PAW double counting   =     43001.47425062   -42243.99890036
  entropy T*S    EENTRO =        -0.23900546
  eigenvalues    EBANDS =     -2470.16989896
  atomic energy  EATOM  =      8282.66055418
  Solvation  Ediel_sol  =         0.00000000
  ---------------------------------------------------
  free energy    TOTEN  =      -802.04429849 eV

  energy without entropy =     -801.80529302  energy(sigma->0) =     -801.92479575


--------------------------------------------------------------------------------------------------------




--------------------------------------- Iteration      1(   5)  ---------------------------------------


    POTLOK:  cpu time      2.1384: real time      2.1607
    SETDIJ:  cpu time      1.7936: real time      1.7947
    EDDIAG:  cpu time     38.6693: real time     38.6925
     EDDAV:  cpu time    194.9476: real time    195.0510
       DOS:  cpu time      0.0051: real time      0.0051
    CHARGE:  cpu time     22.3599: real time     22.3802
    MIXING:  cpu time      0.0417: real time      0.0417
    --------------------------------------------
      LOOP:  cpu time    259.9555: real time    260.1259

 eigenvalue-minimisations  :  2136
 total energy-change (2. order) : 0.1093179E+00  (-0.1580958E+00)
 number of electron     339.9999999 magnetization 
 augmentation part      -16.7302494 magnetization 

 Broyden mixing:
  rms(total) = 0.43403E+00    rms(broyden)= 0.64753E+01
  rms(prec ) = 0.52031E+00
  weight for this iteration     100.00
  WARNING: grid for Broyden might be to small

 eigenvalues of (default mixing * dielectric matrix)
  average eigenvalue GAMMA=   0.7189
  1.4003  0.6426  0.4164  0.4164

 Free energy of the ion-electron system (eV)
  ---------------------------------------------------
  alpha Z        PSCENC =        41.69113659
  Ewald energy   TEWEN  =     49083.78902273
  -Hartree energ DENC   =    -56229.86360763
  -exchange      EXHF   =         0.00000000
  -V(xc)+E(xc)   XCENC  =      -268.73820529
  PAW double counting   =     43442.51932058   -42685.03627536
  entropy T*S    EENTRO =        -0.24463923
  eigenvalues    EBANDS =     -2468.71228716
  atomic energy  EATOM  =      8282.66055418
  Solvation  Ediel_sol  =         0.00000000
  ---------------------------------------------------
  free energy    TOTEN  =      -801.93498058 eV

  energy without entropy =     -801.69034134  energy(sigma->0) =     -801.81266096


--------------------------------------------------------------------------------------------------------




--------------------------------------- Iteration      1(   6)  ---------------------------------------


    POTLOK:  cpu time      2.1398: real time      2.1575
    SETDIJ:  cpu time      1.7960: real time      1.7970
    EDDIAG:  cpu time     38.6288: real time     38.6529
     EDDAV:  cpu time    190.6548: real time    190.7566
       DOS:  cpu time      0.0023: real time      0.0023
    CHARGE:  cpu time     22.3468: real time     22.3665
    MIXING:  cpu time      0.0442: real time      0.0448
    --------------------------------------------
      LOOP:  cpu time    255.6127: real time    255.7776

 eigenvalue-minimisations  :  2056
 total energy-change (2. order) : 0.9805631E+00  (-0.4067166E+00)
 number of electron     339.9999999 magnetization 
 augmentation part      -16.7580917 magnetization 

 Broyden mixing:
  rms(total) = 0.13312E+00    rms(broyden)= 0.51421E+01
  rms(prec ) = 0.18137E+00
  weight for this iteration     100.00
  WARNING: grid for Broyden might be to small

 eigenvalues of (default mixing * dielectric matrix)
  average eigenvalue GAMMA=   0.7804
  1.9019  0.6335  0.5409  0.5409  0.2846

 Free energy of the ion-electron system (eV)
  ---------------------------------------------------
  alpha Z        PSCENC =        41.69113659
  Ewald energy   TEWEN  =     49083.78902273
  -Hartree energ DENC   =    -56230.81431915
  -exchange      EXHF   =         0.00000000
  -V(xc)+E(xc)   XCENC  =      -268.91673249
  PAW double counting   =     43425.97836931   -42668.47281410
  entropy T*S    EENTRO =        -0.23692453
  eigenvalues    EBANDS =     -2466.63271004
  atomic energy  EATOM  =      8282.66055418
  Solvation  Ediel_sol  =         0.00000000
  ---------------------------------------------------
  free energy    TOTEN  =      -800.95441749 eV

  energy without entropy =     -800.71749297  energy(sigma->0) =     -800.83595523


--------------------------------------------------------------------------------------------------------




--------------------------------------- Iteration      1(   7)  ---------------------------------------


    POTLOK:  cpu time      2.1342: real time      2.1553
    SETDIJ:  cpu time      1.7866: real time      1.7874
    EDDIAG:  cpu time     38.6478: real time     38.6734
     EDDAV:  cpu time    190.0263: real time    190.1334
       DOS:  cpu time      0.0033: real time      0.0033
    CHARGE:  cpu time     22.3811: real time     22.4007
    MIXING:  cpu time      0.0432: real time      0.0432
    --------------------------------------------
      LOOP:  cpu time    255.0225: real time    255.1967

 eigenvalue-minimisations  :  2048
 total energy-change (2. order) :-0.4670481E+00  (-0.3377332E-01)
 number of electron     339.9999999 magnetization 
 augmentation part      -16.7717174 magnetization 

 Broyden mixing:
  rms(total) = 0.62976E-01    rms(broyden)= 0.88731E+00
  rms(prec ) = 0.76431E-01
  weight for this iteration     100.00
  WARNING: grid for Broyden might be to small

 eigenvalues of (default mixing * dielectric matrix)
  average eigenvalue GAMMA=   0.8469
  2.3693  0.7440  0.6410  0.5218  0.5218  0.2833

 Free energy of the ion-electron system (eV)
  ---------------------------------------------------
  alpha Z        PSCENC =        41.69113659
  Ewald energy   TEWEN  =     49083.78902273
  -Hartree energ DENC   =    -56230.11831537
  -exchange      EXHF   =         0.00000000
  -V(xc)+E(xc)   XCENC  =      -268.84386446
  PAW double counting   =     43643.82522056   -42886.30897052
  entropy T*S    EENTRO =        -0.25583950
  eigenvalues    EBANDS =     -2467.86040979
  atomic energy  EATOM  =      8282.66055418
  Solvation  Ediel_sol  =         0.00000000
  ---------------------------------------------------
  free energy    TOTEN  =      -801.42146560 eV

  energy without entropy =     -801.16562609  energy(sigma->0) =     -801.29354584


--------------------------------------------------------------------------------------------------------




--------------------------------------- Iteration      1(   8)  ---------------------------------------


    POTLOK:  cpu time      2.1351: real time      2.1578
    SETDIJ:  cpu time      1.7952: real time      1.7964
    EDDIAG:  cpu time     38.6548: real time     38.6800
     EDDAV:  cpu time    184.8398: real time    184.9434
       DOS:  cpu time      0.0021: real time      0.0021
    CHARGE:  cpu time     22.3917: real time     22.4153
    MIXING:  cpu time      0.0439: real time      0.0439
    --------------------------------------------
      LOOP:  cpu time    249.8627: real time    250.0389

 eigenvalue-minimisations  :  1952
 total energy-change (2. order) :-0.1589249E+00  (-0.9417417E-02)
 number of electron     339.9999999 magnetization 
 augmentation part      -16.7731540 magnetization 

 Broyden mixing:
  rms(total) = 0.57011E-01    rms(broyden)= 0.13494E+00
  rms(prec ) = 0.63444E-01
  weight for this iteration     100.00
  WARNING: grid for Broyden might be to small

 eigenvalues of (default mixing * dielectric matrix)
  average eigenvalue GAMMA=   0.8266
  2.4821  0.6569  0.6569  0.6443  0.6443  0.2887  0.4133

 Free energy of the ion-electron system (eV)
  ---------------------------------------------------
  alpha Z        PSCENC =        41.69113659
  Ewald energy   TEWEN  =     49083.78902273
  -Hartree energ DENC   =    -56229.36618380
  -exchange      EXHF   =         0.00000000
  -V(xc)+E(xc)   XCENC  =      -268.88073630
  PAW double counting   =     43695.95294036   -42938.43400906
  entropy T*S    EENTRO =        -0.24947787
  eigenvalues    EBANDS =     -2468.74363731
  atomic energy  EATOM  =      8282.66055418
  Solvation  Ediel_sol  =         0.00000000
  ---------------------------------------------------
  free energy    TOTEN  =      -801.58039048 eV

  energy without entropy =     -801.33091261  energy(sigma->0) =     -801.45565154


--------------------------------------------------------------------------------------------------------




--------------------------------------- Iteration      1(   9)  ---------------------------------------


    POTLOK:  cpu time      2.1318: real time      2.1519
    SETDIJ:  cpu time      1.7873: real time      1.7887
    EDDIAG:  cpu time     38.7048: real time     38.7315
     EDDAV:  cpu time    193.4889: real time    193.6026
       DOS:  cpu time      0.0027: real time      0.0027
    CHARGE:  cpu time     22.3606: real time     22.3810
    MIXING:  cpu time      0.0446: real time      0.0446
    --------------------------------------------
      LOOP:  cpu time    258.5210: real time    258.7032

 eigenvalue-minimisations  :  2112
 total energy-change (2. order) :-0.5491994E-01  (-0.3329451E-02)
 number of electron     339.9999999 magnetization 
 augmentation part      -16.7707742 magnetization 

 Broyden mixing:
  rms(total) = 0.29796E-01    rms(broyden)= 0.12227E+00
  rms(prec ) = 0.32940E-01
  weight for this iteration     100.00
  WARNING: grid for Broyden might be to small

 eigenvalues of (default mixing * dielectric matrix)
  average eigenvalue GAMMA=   0.8801
  2.5576  0.8594  0.8594  0.8790  0.6386  0.2865  0.4802  0.4802

 Free energy of the ion-electron system (eV)
  ---------------------------------------------------
  alpha Z        PSCENC =        41.69113659
  Ewald energy   TEWEN  =     49083.78902273
  -Hartree energ DENC   =    -56228.73463352
  -exchange      EXHF   =         0.00000000
  -V(xc)+E(xc)   XCENC  =      -268.91838646
  PAW double counting   =     43697.56925162   -42940.04862744
  entropy T*S    EENTRO =        -0.24739195
  eigenvalues    EBANDS =     -2469.39623615
  atomic energy  EATOM  =      8282.66055418
  Solvation  Ediel_sol  =         0.00000000
  ---------------------------------------------------
  free energy    TOTEN  =      -801.63531041 eV

  energy without entropy =     -801.38791846  energy(sigma->0) =     -801.51161444


--------------------------------------------------------------------------------------------------------




--------------------------------------- Iteration      1(  10)  ---------------------------------------


    POTLOK:  cpu time      2.1424: real time      2.1607
    SETDIJ:  cpu time      1.7845: real time      1.7855
    EDDIAG:  cpu time     38.6631: real time     38.6871
     EDDAV:  cpu time    190.7617: real time    190.8595
       DOS:  cpu time      0.0069: real time      0.0069
    CHARGE:  cpu time     22.3639: real time     22.3828
    MIXING:  cpu time      0.0454: real time      0.0455
    --------------------------------------------
      LOOP:  cpu time    255.7679: real time    255.9276

 eigenvalue-minimisations  :  2064
 total energy-change (2. order) :-0.4155177E-01  (-0.4028752E-02)
 number of electron     339.9999999 magnetization 
 augmentation part      -16.7696711 magnetization 

 Broyden mixing:
  rms(total) = 0.24347E-01    rms(broyden)= 0.12692E+00
  rms(prec ) = 0.26879E-01
  weight for this iteration     100.00
  WARNING: grid for Broyden might be to small

 eigenvalues of (default mixing * dielectric matrix)
  average eigenvalue GAMMA=   0.8494
  2.5684  0.8650  0.8650  0.9572  0.2874  0.6297  0.4871  0.4922  0.4922

 Free energy of the ion-electron system (eV)
  ---------------------------------------------------
  alpha Z        PSCENC =        41.69113659
  Ewald energy   TEWEN  =     49083.78902273
  -Hartree energ DENC   =    -56228.19164848
  -exchange      EXHF   =         0.00000000
  -V(xc)+E(xc)   XCENC  =      -268.89051363
  PAW double counting   =     43676.69996300   -42919.17482536
  entropy T*S    EENTRO =        -0.24908561
  eigenvalues    EBANDS =     -2470.01146560
  atomic energy  EATOM  =      8282.66055418
  Solvation  Ediel_sol  =         0.00000000
  ---------------------------------------------------
  free energy    TOTEN  =      -801.67686218 eV

  energy without entropy =     -801.42777657  energy(sigma->0) =     -801.55231938


--------------------------------------------------------------------------------------------------------




--------------------------------------- Iteration      1(  11)  ---------------------------------------


    POTLOK:  cpu time      2.1389: real time      2.1625
    SETDIJ:  cpu time      1.7960: real time      1.7969
    EDDIAG:  cpu time     38.6900: real time     38.7117
     EDDAV:  cpu time    189.0788: real time    189.1772
       DOS:  cpu time      0.0033: real time      0.0033
    CHARGE:  cpu time     22.3829: real time     22.4017
    MIXING:  cpu time      0.0460: real time      0.0460
    --------------------------------------------
      LOOP:  cpu time    254.1359: real time    254.2994

 eigenvalue-minimisations  :  2032
 total energy-change (2. order) :-0.2769905E-01  (-0.1532319E-02)
 number of electron     339.9999999 magnetization 
 augmentation part      -16.7709467 magnetization 

 Broyden mixing:
  rms(total) = 0.29756E-01    rms(broyden)= 0.16332E+00
  rms(prec ) = 0.32011E-01
  weight for this iteration     100.00
  WARNING: grid for Broyden might be to small

 eigenvalues of (default mixing * dielectric matrix)
  average eigenvalue GAMMA=   0.8404
  2.5593  0.8542  0.8542  0.8641  0.8641  0.2871  0.6274  0.5339  0.5339  0.4257

 Free energy of the ion-electron system (eV)
  ---------------------------------------------------
  alpha Z        PSCENC =        41.69113659
  Ewald energy   TEWEN  =     49083.78902273
  -Hartree energ DENC   =    -56227.63664065
  -exchange      EXHF   =         0.00000000
  -V(xc)+E(xc)   XCENC  =      -268.84555608
  PAW double counting   =     43673.97506988   -42916.44367409
  entropy T*S    EENTRO =        -0.24750496
  eigenvalues    EBANDS =     -2470.64696883
  atomic energy  EATOM  =      8282.66055418
  Solvation  Ediel_sol  =         0.00000000
  ---------------------------------------------------
  free energy    TOTEN  =      -801.70456124 eV

  energy without entropy =     -801.45705627  energy(sigma->0) =     -801.58080875


--------------------------------------------------------------------------------------------------------




--------------------------------------- Iteration      1(  12)  ---------------------------------------


    POTLOK:  cpu time      2.1405: real time      2.1614
    SETDIJ:  cpu time      1.7889: real time      1.7898
    EDDIAG:  cpu time     38.7160: real time     38.7388
     EDDAV:  cpu time    183.4100: real time    183.5051
       DOS:  cpu time      0.0021: real time      0.0021
    CHARGE:  cpu time     22.3662: real time     22.3845
    MIXING:  cpu time      0.0470: real time      0.0470
    --------------------------------------------
      LOOP:  cpu time    248.4707: real time    248.6286

 eigenvalue-minimisations  :  1928
 total energy-change (2. order) :-0.1045907E-01  (-0.5046619E-03)
 number of electron     339.9999999 magnetization 
 augmentation part      -16.7669739 magnetization 

 Broyden mixing:
  rms(total) = 0.20064E-01    rms(broyden)= 0.75056E-01
  rms(prec ) = 0.24544E-01
  weight for this iteration     100.00
  WARNING: grid for Broyden might be to small

 eigenvalues of (default mixing * dielectric matrix)
  average eigenvalue GAMMA=   0.8841
  2.5547  1.5184  0.8792  0.8792  0.7588  0.7588  0.2870  0.6154  0.5038  0.5038
  0.4658

 Free energy of the ion-electron system (eV)
  ---------------------------------------------------
  alpha Z        PSCENC =        41.69113659
  Ewald energy   TEWEN  =     49083.78902273
  -Hartree energ DENC   =    -56226.82100538
  -exchange      EXHF   =         0.00000000
  -V(xc)+E(xc)   XCENC  =      -268.79397069
  PAW double counting   =     43688.03533764   -42930.49917079
  entropy T*S    EENTRO =        -0.24661099
  eigenvalues    EBANDS =     -2471.53031359
  atomic energy  EATOM  =      8282.66055418
  Solvation  Ediel_sol  =         0.00000000
  ---------------------------------------------------
  free energy    TOTEN  =      -801.71502030 eV

  energy without entropy =     -801.46840931  energy(sigma->0) =     -801.59171481


--------------------------------------------------------------------------------------------------------




--------------------------------------- Iteration      1(  13)  ---------------------------------------


    POTLOK:  cpu time      2.1407: real time      2.1580
    SETDIJ:  cpu time      1.7906: real time      1.7915
    EDDIAG:  cpu time     38.6796: real time     38.7016
     EDDAV:  cpu time    185.6656: real time    185.7616
       DOS:  cpu time      0.0047: real time      0.0047
    CHARGE:  cpu time     22.3694: real time     22.3908
    MIXING:  cpu time      0.0480: real time      0.0480
    --------------------------------------------
      LOOP:  cpu time    250.6984: real time    250.8561

 eigenvalue-minimisations  :  1968
 total energy-change (2. order) :-0.1079966E-02  (-0.3326948E-03)
 number of electron     339.9999999 magnetization 
 augmentation part      -16.7713168 magnetization 

 Broyden mixing:
  rms(total) = 0.22729E-01    rms(broyden)= 0.92473E-01
  rms(prec ) = 0.25615E-01
  weight for this iteration     100.00
  WARNING: grid for Broyden might be to small

 eigenvalues of (default mixing * dielectric matrix)
  average eigenvalue GAMMA=   0.8695
  2.5468  1.4082  1.4082  0.8048  0.8048  0.6412  0.6412  0.6406  0.2871  0.4385
  0.4385  0.3737

 Free energy of the ion-electron system (eV)
  ---------------------------------------------------
  alpha Z        PSCENC =        41.69113659
  Ewald energy   TEWEN  =     49083.78902273
  -Hartree energ DENC   =    -56226.11884010
  -exchange      EXHF   =         0.00000000
  -V(xc)+E(xc)   XCENC  =      -268.77931815
  PAW double counting   =     43673.67050938   -42916.13059799
  entropy T*S    EENTRO =        -0.24593302
  eigenvalues    EBANDS =     -2472.25263388
  atomic energy  EATOM  =      8282.66055418
  Solvation  Ediel_sol  =         0.00000000
  ---------------------------------------------------
  free energy    TOTEN  =      -801.71610027 eV

  energy without entropy =     -801.47016724  energy(sigma->0) =     -801.59313375


--------------------------------------------------------------------------------------------------------




--------------------------------------- Iteration      1(  14)  ---------------------------------------


    POTLOK:  cpu time      2.1589: real time      2.1607
    SETDIJ:  cpu time      1.7934: real time      1.7948
    EDDIAG:  cpu time     38.6810: real time     38.7061
     EDDAV:  cpu time    182.9762: real time    183.0719
       DOS:  cpu time      0.0094: real time      0.0099
    CHARGE:  cpu time     22.3652: real time     22.3866
    MIXING:  cpu time      0.0622: real time      0.0628
    --------------------------------------------
      LOOP:  cpu time    248.0466: real time    248.1931

 eigenvalue-minimisations  :  1912
 total energy-change (2. order) :-0.1140714E-02  (-0.2041521E-03)
 number of electron     339.9999999 magnetization 
 augmentation part      -16.7668158 magnetization 

 Broyden mixing:
  rms(total) = 0.23554E-01    rms(broyden)= 0.43239E-01
  rms(prec ) = 0.27828E-01
  weight for this iteration     100.00
  WARNING: grid for Broyden might be to small

 eigenvalues of (default mixing * dielectric matrix)
  average eigenvalue GAMMA=   0.9124
  2.5532  1.6557  1.6557  0.8155  0.8155  0.8237  0.8237  0.5958  0.5958  0.4641
  0.4641  0.2874  0.3119

 Free energy of the ion-electron system (eV)
  ---------------------------------------------------
  alpha Z        PSCENC =        41.69113659
  Ewald energy   TEWEN  =     49083.78902273
[...]
   0.166E+02 -.331E+02 0.336E+03   -.167E+02 0.318E+02 -.335E+03   -.114E+01 0.203E+01 -.106E+01   -.212E-04 0.325E-04 -.446E-05
   0.109E+02 0.237E+02 -.637E+02   -.967E+01 -.237E+02 0.624E+02   -.102E+01 0.501E+00 0.242E+01   0.133E-04 -.178E-04 -.161E-05
   0.467E+02 0.589E+02 0.340E+03   -.469E+02 -.595E+02 -.338E+03   -.549E+00 0.109E+01 -.250E+01   -.176E-04 -.159E-04 -.234E-04
   -.235E+02 -.195E+02 -.288E+03   0.202E+02 0.171E+02 0.285E+03   0.246E+01 0.135E+01 0.470E+01   0.360E-04 0.120E-04 -.640E-05
   -.770E+01 -.952E+01 -.233E+03   0.468E+01 0.122E+02 0.231E+03   0.194E+01 -.171E+01 0.286E+01   -.764E-05 0.412E-06 0.610E-05
   -.178E+01 -.285E+02 0.285E+03   0.506E+00 0.293E+02 -.284E+03   0.126E+01 -.663E+00 -.820E+00   0.632E-05 0.353E-05 -.224E-04
   0.144E+02 -.179E+02 -.133E+03   -.133E+02 0.190E+02 0.134E+03   -.875E+00 -.949E+00 -.924E+00   -.170E-04 0.295E-04 0.248E-05
   0.530E+01 0.308E+01 -.683E+02   -.544E+01 -.176E+01 0.681E+02   -.250E+00 -.239E+01 0.238E+01   -.189E-04 0.118E-04 -.545E-05
   -.596E+01 0.512E+01 0.344E+03   0.401E+01 -.832E+01 -.342E+03   0.262E+01 0.299E+01 -.184E+01   -.542E-05 0.114E-05 -.237E-04
   0.844E+01 -.230E+02 -.109E+03   -.101E+02 0.217E+02 0.110E+03   0.140E+01 0.210E+01 -.128E+01   -.134E-04 0.216E-04 0.199E-04
   0.750E+01 -.122E+02 -.595E+02   -.722E+01 0.127E+02 0.598E+02   0.575E+00 -.828E+00 -.199E+00   -.429E-05 0.176E-04 0.317E-05
   -.171E+02 0.111E+02 0.228E+03   0.169E+02 -.989E+01 -.231E+03   -.117E+00 -.130E+01 0.225E+01   0.155E-04 0.112E-04 -.377E-04
   0.166E+02 -.173E+01 0.224E+03   -.161E+02 0.543E+01 -.222E+03   -.334E-01 -.343E+01 -.234E+01   -.131E-04 0.400E-04 -.120E-04
   -.583E+00 -.171E+02 0.137E+02   -.561E+00 0.177E+02 -.148E+02   0.952E+00 -.389E-01 0.168E+01   -.310E-04 0.115E-04 -.128E-04
   0.115E+02 -.258E+02 -.318E+03   -.117E+02 0.265E+02 0.320E+03   0.566E+00 -.186E+01 -.385E+00   -.134E-04 -.766E-05 -.963E-05
   0.120E+02 -.118E+02 0.229E+03   -.116E+02 0.109E+02 -.230E+03   -.117E+01 0.618E+00 0.153E+01   0.332E-04 0.203E-04 -.193E-04
   0.306E+01 0.390E+01 -.144E+03   -.239E+01 -.477E+01 0.144E+03   0.400E+00 0.232E+01 -.239E+00   0.217E-04 -.160E-04 0.916E-05
   -.167E+02 0.138E+02 -.125E+03   0.169E+02 -.151E+02 0.124E+03   0.232E+00 0.878E+00 0.165E+01   0.229E-04 -.293E-05 0.672E-05
   0.258E+02 -.201E+02 0.135E+03   -.216E+02 0.217E+02 -.138E+03   -.371E+01 -.205E+01 0.251E+01   0.837E-05 -.191E-05 0.324E-05
   0.563E+01 0.542E+02 0.146E+03   -.953E+01 -.540E+02 -.150E+03   0.330E+01 -.194E+00 0.451E+01   -.116E-04 -.131E-04 -.593E-05
   -.107E+02 -.435E+01 -.157E+03   0.117E+02 0.818E+01 0.158E+03   -.126E+01 -.419E+01 -.115E+01   -.736E-06 -.830E-06 0.467E-05
   0.878E+01 0.988E+01 -.299E+03   -.728E+01 -.930E+01 0.300E+03   -.225E+01 -.868E+00 -.427E+00   0.120E-04 -.388E-06 0.105E-04
   -.126E+02 -.452E+02 0.174E+03   0.140E+02 0.440E+02 -.174E+03   -.829E+00 0.130E+01 -.219E+00   -.261E-04 -.227E-04 -.207E-04
 -----------------------------------------------------------------------------------------------
   -.348E+02 -.154E+02 -.384E+02   0.176E-12 -.114E-12 -.125E-11   0.348E+02 0.154E+02 0.384E+02   0.596E-04 0.259E-04 -.285E-03


 POSITION                                       TOTAL-FORCE (eV/Angst)
 -----------------------------------------------------------------------------------
     12.89570      7.69482     14.24764        -1.253144      0.172617      1.123807
      6.90866      9.08198     12.63542         0.085946     -0.643418     -0.394539
     13.13060      8.22258     17.22377         0.615853     -0.720275      0.387769
     11.39340      6.06945     11.23338        -0.996789     -0.323007      0.924638
      7.48594      6.08117     12.46363        -0.866519     -0.060710     -0.205787
      0.00885      7.50238     12.43488         0.080281     -0.021991      0.072211
     12.71700     10.46450     14.80193        -0.491406     -0.164286      0.154728
     14.05490      9.15253     15.60419        -0.688430     -0.458987     -0.600851
      2.31360      8.05903     10.37190        -0.321743      0.002210      0.635173
      8.90230      6.30008     13.14632         1.324734     -0.554532      0.755264
     12.72840      7.00691     10.44230         1.218505     -1.669822     -1.615283
     14.08610      6.19748     14.08830         0.545240     -0.201301      0.671740
      9.43697      4.09512     13.44864        -0.395051      0.558723      0.117847
      9.38705      5.99775     11.23204         0.034130     -0.079786     -0.165093
     11.60880     11.82260     13.37847         1.367343      0.266357     -1.510296
     13.08360      6.40513     10.00000        -0.708714      1.689163      0.877072
      9.52007      6.03820     13.57443        -0.999543      0.489909     -0.509743
      9.26799      8.06602     12.21061         0.437416      0.645056      0.393859
     10.56620      5.68751     15.17470         0.189645      0.280802     -1.311299
     11.11130     11.71550     13.87108        -1.017257     -0.262242      1.113229
      9.21597      8.26776     16.61485        -1.180040     -0.620794      0.365797
      2.02442      6.62826     13.91488        -0.111213      0.359676     -0.287813
     11.83160      9.65462     12.98232        -0.527576     -0.720383     -0.427389
     14.46230      4.68020     11.24712         0.432374      0.228740      0.046610
     11.44210      8.30385     10.78443         0.643992      0.406554      0.663861
     11.58840      4.97805     13.77215         0.031366      0.457898     -0.999930
      8.12956      7.95913     14.35597         1.399624      0.533496      0.488023
      4.44596      1.52847     16.06123         0.464941     -0.116936     -0.347258
     11.98540     10.48310     15.03848         0.806555     -0.205957     -0.143046
     11.39860      7.87526     16.41452         0.166831      0.087619     -0.479159
      8.84555      8.16884     14.63246        -1.265645     -0.177266     -0.496283
      4.32569     14.44421     16.45309         0.064625      0.371771     -0.202601
     12.32440      7.76416     14.81129         1.125324     -0.114989     -1.214021
      7.29865      6.83847     15.26856        -0.085376      0.445187     -0.562140
      7.30254      2.72625     16.21052        -0.722717     -0.301925     -1.714213
     13.29520      6.10686     12.37291         0.126528      0.075356      0.474804
      4.74926      6.13071     16.39968        -0.730981     -0.322368     -0.862577
      0.44894     10.02240     16.19900         1.021222      0.851747      1.149314
     13.80900     12.55510     12.41951        -0.919897      0.164831     -2.088408
      2.94189      0.03156     12.94207         1.348333      0.562207     -0.320032
     12.42150      5.29095     17.94929         0.024419     -0.229837     -0.530318
      5.97799      3.92010     14.18967         0.818717      0.171988      0.134223
     12.47820     14.50300     12.80344         2.443985      0.193089     -0.937773
      2.50083     11.92830     10.26133         0.870563     -0.267228      0.004031
      2.27602      2.10011     17.91295         0.269658      0.510406     -0.434973
      0.61315      2.26099     14.07301        -0.006325     -0.510578      1.341738
     10.37680      2.43971     11.19992         0.294306      0.513501     -0.492140
      5.15425     13.85100     17.51031         0.603026     -1.018756     -0.632290
      1.40060      0.11313     14.63334        -0.115502      0.517384      0.476944
      1.12997      4.65173     10.32858        -1.545145     -0.028561     -1.499310
     10.50490      5.20245     16.50591         0.223386     -0.115419      1.665773
      4.79168     13.25210     13.78723        -0.904387      0.604494      0.806294
      6.68360      3.65867     10.68377         0.389882      0.041387      0.043520
      6.85399     10.30420     13.41403         0.333289      0.461279      0.309183
      6.03737     12.66150     10.34956         0.086730     -0.006349     -0.798847
      5.53014      9.87851     15.27057         0.013510      0.207358      0.922992
     10.47170      8.90825     16.90434         0.622203     -0.259940      0.551504
      9.91858     10.86090     15.97647        -0.223811     -0.031879     -1.132784
      6.64857      9.76258     17.41404        -0.860994      0.113323      0.259734
     11.12740      0.32273     11.09411        -0.194216      0.129679     -1.066067
      1.89659      9.81000     12.90224         0.259136     -0.749699     -0.676828
     14.55310      8.89272     11.91970         0.981759     -0.442120     -0.407163
      5.42399     11.70070     12.29277         0.622438     -0.378503     -0.248999
      3.72574     10.44720     11.54611        -1.694641     -0.409973     -0.531880
      0.23234      0.44373     10.45670        -0.475461      0.233091      0.067201
     13.34950     12.75390     16.46445        -0.388220     -0.552463     -0.060450
      8.16766     11.47920     17.29013        -0.586443      0.093689     -0.283768
      9.38133      2.65078     13.28451         0.380567     -0.100628      0.115512
      8.09712      2.51551     17.37124        -0.692168      0.417042      2.085347
      0.39929      5.54855     15.15672         0.029233      0.222089     -0.174779
      1.59108      0.06997     16.99768         0.791013      0.200069      0.284116
     13.89450      0.42348     16.79161         0.291472     -0.474093     -0.222597
     10.95660     12.79280     16.33281         1.120133      1.285298     -0.465819
      8.91073     13.51690     13.37277        -1.281608      0.155804      0.570260
      1.89990      4.15216     14.06342         1.065251      0.175928     -0.323611
      8.99962     11.27940     13.68264        -0.415304     -2.189234      0.639762
     12.27320      9.36193     11.53832         0.076441      0.290658     -0.366592
      4.23504      6.39218     11.59519        -1.173212      0.422328      0.627902
      2.21857      8.57470     16.85065        -0.194812      0.621626     -0.456688
      7.32280     13.48370     16.63543        -0.942661      0.940956      0.493674
      2.76457      4.47182     11.79904         1.440908     -0.854393      1.779147
      3.94823     11.93250     17.88321         0.176323     -0.771721     -0.333237
      1.78218     11.23610     14.68096        -0.345764     -0.716239      0.221079
      9.10607     13.84000     11.14633         0.557108     -0.812658     -0.892089
     14.20510      1.95368     12.15046        -1.927658     -0.899466     -1.840305
     10.22550      2.86976     16.93421         0.921549      0.312408      0.068394
      3.96687      4.18202     15.20147        -1.006879      1.308677      0.262128
      2.93324      7.69526     13.33030         0.386863     -0.491440     -0.207988
     12.55180     11.44880     10.62782        -0.184265      0.853477     -0.038206
      7.19371      0.03273     10.30629        -1.303399      0.666320      0.003229
      0.09120     12.75200     14.44430         0.209654      0.554431      1.294701
      9.03843     10.13260     10.11441        -0.541923      0.791655     -0.895219
      4.35270      2.76151     16.87511        -0.806665     -1.116210      1.028904
     13.68510      4.07218     16.36640        -0.965405      0.902774      0.798534
     12.53950      3.36541     11.10525        -0.016527      0.097491      0.759218
     13.14390      2.10534     15.34509         0.298004      0.178735     -0.112023
     10.84450     14.25420     14.32602        -0.420521     -1.160320      2.354238
     10.24630     12.07670     10.09262         0.785892     -0.101729      0.663919
     10.83430      1.82607     14.97255        -0.086627      0.902640     -0.162164
      6.81901     14.30250     14.46012         0.921910     -0.442784     -0.001041
      1.39489     13.40040     11.65025        -0.252445     -0.096078     -0.186930
      5.95163      1.63401     11.68137         0.541310      0.165272     -1.164941
      7.15687      1.89601     13.63084        -0.173736      0.600368      0.618573
      8.41655      5.58277     17.50025         0.436450     -1.431570      0.611872
      3.70208      2.12068     11.70266        -0.721260     -0.336238      0.595967
      3.90873     11.57450     15.43791         1.086701      1.580292      0.598615
      3.99011      8.14023     15.36136         0.420658     -0.318499      0.526642
     12.06910      5.29540     12.34495         0.357885     -0.510601     -0.231324
      9.69607      9.54878     12.15555        -0.393105     -0.067563      0.540747
      6.91081      5.53461     15.79368        -0.339069     -0.442946     -0.029439
      1.13148      6.64029     17.13099        -0.866986     -0.196967     -0.053788
      6.17780      5.30251     12.31803         0.646040      0.186728     -0.191235
 -----------------------------------------------------------------------------------
    total drift:                               -0.001965      0.009381     -0.000315


--------------------------------------------------------------------------------------------------------



  FREE ENERGIE OF THE ION-ELECTRON SYSTEM (eV)
  ---------------------------------------------------
  free  energy   TOTEN  =      -801.71723335 eV

  energy  without entropy=     -801.47117978  energy(sigma->0) =     -801.59420657



--------------------------------------------------------------------------------------------------------


    POTLOK:  cpu time      3.9241: real time      3.9274


--------------------------------------------------------------------------------------------------------


     LOOP+:  cpu time   7340.6824: real time   7345.5101
    4ORBIT:  cpu time      0.0000: real time      0.0000



 total charge

# of ion       s       p       d       tot
------------------------------------------
    1        0.575   0.025   0.000   0.600
    2        0.582   0.018   0.000   0.600
    3        0.388   0.002   0.000   0.390
    4        0.544   0.017   0.000   0.561
    5        0.547   0.016   0.000   0.563
    6        0.570   0.018   0.000   0.587
    7        0.599   0.030   0.000   0.630
    8        0.582   0.022   0.000   0.604
    9        0.380   0.001   0.000   0.381
   10        0.573   0.030   0.000   0.603
   11        0.561   0.025   0.000   0.586
   12        0.541   0.016   0.000   0.557
   13        0.582   0.018   0.000   0.600
   14        0.389   0.001   0.000   0.390
   15        0.642   0.043   0.000   0.685
   16        0.561   0.023   0.000   0.584
   17        0.585   0.026   0.000   0.611
   18        0.530   0.015   0.000   0.545
   19        0.600   0.021   0.000   0.621
   20        0.648   0.046   0.000   0.695
   21        0.589   0.019   0.000   0.608
   22        0.564   0.017   0.000   0.581
   23        0.529   0.017   0.000   0.546
   24        0.549   0.018   0.000   0.566
   25        0.532   0.016   0.000   0.548
   26        0.545   0.015   0.000   0.559
   27        0.581   0.028   0.000   0.609
   28        0.572   0.019   0.000   0.591
   29        0.601   0.033   0.000   0.633
   30        0.568   0.019   0.000   0.587
   31        0.579   0.027   0.000   0.606
   32        0.572   0.020   0.000   0.592
   33        0.568   0.026   0.000   0.594
   34        0.576   0.019   0.000   0.595
   35        0.595   0.022   0.000   0.616
   36        0.586   0.018   0.000   0.604
   37        0.808   0.830   0.000   1.638
   38        0.788   0.870   0.000   1.658
   39        0.767   0.912   0.000   1.679
   40        0.768   0.875   0.000   1.643
   41        0.875   0.693   0.000   1.569
   42        0.775   0.890   0.000   1.665
   43        0.784   0.913   0.000   1.696
   44        0.856   0.750   0.000   1.606
   45        0.861   0.720   0.000   1.581
   46        0.769   0.972   0.000   1.741
   47        0.792   0.879   0.000   1.670
   48        0.798   0.881   0.000   1.679
   49        0.771   0.922   0.000   1.692
   50        0.872   0.771   0.000   1.643
   51        0.764   0.940   0.000   1.704
   52        0.763   0.908   0.000   1.671
   53        0.877   0.710   0.000   1.587
   54        0.755   0.996   0.000   1.752
   55        0.835   0.797   0.000   1.631
   56        0.760   0.937   0.000   1.697
   57        0.776   0.964   0.000   1.740
   58        0.764   0.978   0.000   1.742
   59        0.865   0.726   0.000   1.591
   60        0.803   0.914   0.000   1.717
   61        0.756   0.923   0.000   1.679
   62        0.778   0.872   0.000   1.649
   63        0.766   0.998   0.000   1.764
   64        0.802   0.878   0.000   1.681
   65        0.873   0.727   0.000   1.600
   66        0.795   0.822   0.000   1.617
   67        0.794   0.889   0.000   1.683
   68        0.755   0.955   0.000   1.710
   69        0.817   0.849   0.000   1.665
   70        0.749   0.951   0.000   1.700
   71        0.810   0.851   0.000   1.661
   72        0.808   0.847   0.000   1.655
   73        0.807   0.851   0.000   1.658
   74        0.771   0.963   0.000   1.734
   75        0.764   0.926   0.000   1.691
   76        0.770   0.900   0.000   1.670
   77        0.734   0.978   0.000   1.711
   78        0.810   0.788   0.000   1.597
   79        0.798   0.866   0.000   1.664
   80        0.784   0.856   0.000   1.640
   81        0.769   0.897   0.000   1.666
   82        0.862   0.715   0.000   1.577
   83        0.763   0.985   0.000   1.748
   84        0.766   0.969   0.000   1.734
   85        0.778   0.892   0.000   1.670
   86        0.803   0.884   0.000   1.687
   87        0.763   0.951   0.000   1.714
   88        0.764   0.892   0.000   1.656
   89        0.808   0.820   0.000   1.628
   90        0.801   0.887   0.000   1.688
   91        0.780   0.932   0.000   1.712
   92        0.858   0.790   0.000   1.648
   93        0.794   0.902   0.000   1.696
   94        0.799   0.870   0.000   1.668
   95        0.796   0.841   0.000   1.638
   96        0.768   0.922   0.000   1.691
   97        0.772   0.965   0.000   1.737
   98        0.797   0.831   0.000   1.628
   99        0.763   0.965   0.000   1.728
  100        0.763   0.880   0.000   1.643
  101        0.768   0.925   0.000   1.693
  102        0.760   0.922   0.000   1.682
  103        0.766   0.908   0.000   1.673
  104        0.854   0.760   0.000   1.614
  105        0.789   0.799   0.000   1.587
  106        0.770   0.885   0.000   1.655
  107        0.762   0.924   0.000   1.686
  108        0.741   0.999   0.000   1.740
  109        0.789   0.864   0.000   1.653
  110        0.763   0.971   0.000   1.734
  111        0.840   0.764   0.000   1.604
  112        0.753   0.949   0.000   1.702
--------------------------------------------------
tot         80.187  67.645   0.000 147.831


 total amount of memory used by VASP MPI-rank0   368607. kBytes
=======================================================================

   base                                    :      30000. kBytes
   nonl-proj                               :      80658. kBytes
   fftplans                                :     108859. kBytes
   grid                                    :      83991. kBytes
   one-center                              :         21. kBytes
   wavefun                                 :      65078. kBytes

  
  
 General timing and accounting informations for this job:
 ========================================================
  
                  Total CPU time used (sec):     7490.456
                            User time (sec):     6641.480
                          System time (sec):      848.975
                         Elapsed time (sec):     7495.351
  
                   Maximum memory used (kb):      641864.
                   Average memory used (kb):          N/A
  
                          Minor page faults:     12150733
                          Major page faults:         1176
                 Voluntary context switches:         3763
