 vasp.6.5.0 16Dec24 (build Jan 20 2025 08:32:48) complex                         
 executed on        HPECrayEX_GCC date 2025.07.22  12:25:46
 running  128 mpi-ranks, with    1 threads/rank, on    1 nodes
 distrk:  each k-point on  128 cores,    1 groups
 distr:  one band on NCORE=  16 cores,    8 groups


--------------------------------------------------------------------------------------------------------


 INCAR:
   SYSTEM = a-Si SPC
   NCORE = 16
   ISTART = 1
   ICHARG = 1
   ISPIN = 1
   ISYM = 1
   EDIFF = 1E-6
   NELM = 150
   EDIFFG = -0.01
   NSW = 0
   ISIF = 2
   IBRION = -1
   PREC = Accurate
   ENCUT = 1200
   KSPACING = 0.23
   KGAMMA = .TRUE.
   METAGGA = SCAN
   LASPH = .TRUE.
   LDIAG = .FALSE.
   LMIXTAU = .TRUE.
   ADDGRID = .TRUE.
   ALGO = Normal
   ISMEAR = 0
   SIGMA = 0.1
   LORBIT = 11
   NEDOS = 2000
   LWAVE = .FALSE.
   LCHARG = .FALSE.

 POTCAR:    PAW_PBE H 15Jun2001                   
 POTCAR:    PAW_PBE Si 05Jan2001                  
 POTCAR:    PAW_PBE H 15Jun2001                   
   SHA256 =  030f79b5d3ab3cf0e668861823c8fb652ff669f3e15e46930bd03bfd63a607b6 H/POTCAR              
   COPYR  = (c) Copyright 15Jun2001 Georg Kresse                                                    
   COPYR  = This file is part of the software VASP. Any use, copying, and all other rights are regul
   COPYR  = If you do not have a valid VASP license, you may not use, copy or distribute this file. 
   VRHFIN =H: ultrasoft test                                                                        
   LEXCH  = PE                                                                                      
   EATOM  =    12.4884 eV,    0.9179 Ry                                                             
                                                                                                    
   TITEL  = PAW_PBE H 15Jun2001                                                                     
   LULTRA =        F    use ultrasoft PP ?                                                          
   IUNSCR =        0    unscreen: 0-lin 1-nonlin 2-no                                               
   RPACOR =    0.000    partial core radius                                                         
   POMASS =    1.000; ZVAL   =    1.000    mass and valenz                                          
   RCORE  =    1.100    outmost cutoff radius                                                       
   RWIGS  =    0.700; RWIGS  =    0.370    wigner-seitz radius (au A)                               
   ENMAX  =  250.000; ENMIN  =  200.000 eV                                                          
   RCLOC  =    0.701    cutoff for local pot                                                        
   LCOR   =        T    correct aug charges                                                         
   LPAW   =        T    paw PP                                                                      
   EAUG   =  400.000                                                                                
   RMAX   =    1.123    core radius for proj-oper                                                   
   RAUG   =    1.200    factor for augmentation sphere                                              
   RDEP   =    1.112    radius for radial grids                                                     
   RDEPT  =    0.926    core radius for aug-charge                                                  
                                                                                                    
   Atomic configuration                                                                             
    2 entries                                                                                       
     n  l   j            E        occ.                                                              
     1  0  0.50        -6.4927   1.0000                                                             
     2  1  0.50        -3.4015   0.0000                                                             
   Description                                                                                      
     l       E           TYP  RCUT    TYP  RCUT                                                     
     0     -6.4927494     23  1.100                                                                 
     0      6.8029130     23  1.100                                                                 
     1     -4.0817478     23  1.100                                                                 
  local pseudopotential read in
  atomic valenz-charges read in
  non local Contribution for L=           0  read in
    real space projection operators read in
  non local Contribution for L=           0  read in
    real space projection operators read in
  non local Contribution for L=           1  read in
    real space projection operators read in
    PAW grid and wavefunctions read in

   number of l-projection  operators is LMAX  =           3
   number of lm-projection operators is LMMAX =           5

 POTCAR:    PAW_PBE Si 05Jan2001                  
   SHA256 =  79d9987ad8750f624c4d6acb2a16d13abf6a777132adc04dc6c8399be72b42bb Si/POTCAR             
   COPYR  = (c) Copyright 05Jan2001 Georg Kresse                                                    
   COPYR  = This file is part of the software VASP. Any use, copying, and all other rights are regul
   COPYR  = If you do not have a valid VASP license, you may not use, copy or distribute this file. 
   VRHFIN =Si: s2p2                                                                                 
   LEXCH  = PE                                                                                      
   EATOM  =   103.0669 eV,    7.5752 Ry                                                             
                                                                                                    
   TITEL  = PAW_PBE Si 05Jan2001                                                                    
   LULTRA =        F    use ultrasoft PP ?                                                          
   IUNSCR =        1    unscreen: 0-lin 1-nonlin 2-no                                               
   RPACOR =    1.500    partial core radius                                                         
   POMASS =   28.085; ZVAL   =    4.000    mass and valenz                                          
   RCORE  =    1.900    outmost cutoff radius                                                       
   RWIGS  =    2.480; RWIGS  =    1.312    wigner-seitz radius (au A)                               
   ENMAX  =  245.345; ENMIN  =  184.009 eV                                                          
   ICORE  =        2    local potential                                                             
   LCOR   =        T    correct aug charges                                                         
   LPAW   =        T    paw PP                                                                      
   EAUG   =  322.069                                                                                
   DEXC   =    0.000                                                                                
   RMAX   =    1.950    core radius for proj-oper                                                   
   RAUG   =    1.300    factor for augmentation sphere                                              
   RDEP   =    1.993    radius for radial grids                                                     
   RDEPT  =    1.837    core radius for aug-charge                                                  
                                                                                                    
   Atomic configuration                                                                             
    6 entries                                                                                       
     n  l   j            E        occ.                                                              
     1  0  0.50     -1785.8828   2.0000                                                             
     2  0  0.50      -139.4969   2.0000                                                             
     2  1  1.50       -95.5546   6.0000                                                             
     3  0  0.50       -10.8127   2.0000                                                             
     3  1  0.50        -4.0811   2.0000                                                             
     3  2  1.50        -4.0817   0.0000                                                             
   Description                                                                                      
     l       E           TYP  RCUT    TYP  RCUT                                                     
     0    -10.8127223     23  1.900                                                                 
     0     -7.6451159     23  1.900                                                                 
     1     -4.0811372     23  1.900                                                                 
     1      2.4879257     23  1.900                                                                 
     2     -4.0817478      7  1.900                                                                 
  local pseudopotential read in
  partial core-charges read in
  partial kinetic energy density read in
  atomic valenz-charges read in
  non local Contribution for L=           0  read in
    real space projection operators read in
  non local Contribution for L=           0  read in
    real space projection operators read in
  non local Contribution for L=           1  read in
    real space projection operators read in
  non local Contribution for L=           1  read in
    real space projection operators read in
    PAW grid and wavefunctions read in

   number of l-projection  operators is LMAX  =           4
   number of lm-projection operators is LMMAX =           8

 -----------------------------------------------------------------------------
|                                                                             |
|               ----> ADVICE to this user running VASP <----                  |
|                                                                             |
|     You have a (more or less) 'large supercell' and for larger cells it     |
|     might be more efficient to use real-space projection operators.         |
|     Therefore, try LREAL= Auto in the INCAR file.                           |
|     Mind: For very accurate calculation, you might also keep the            |
|     reciprocal projection scheme (i.e. LREAL=.FALSE.).                      |
|                                                                             |
 -----------------------------------------------------------------------------

 -----------------------------------------------------------------------------
|                                                                             |
|               ----> ADVICE to this user running VASP <----                  |
|                                                                             |
|     You enforced a specific xc type in the INCAR file but a different       |
|     type was found in the POTCAR file.                                      |
|     I HOPE YOU KNOW WHAT YOU ARE DOING!                                     |
|                                                                             |
 -----------------------------------------------------------------------------

  PAW_PBE H 15Jun2001                   :
 energy of atom  1       EATOM=  -12.4884
 kinetic energy error for atom=    0.0000 (will be added to EATOM!!)
  PAW_PBE Si 05Jan2001                  :
 energy of atom  2       EATOM= -103.0669
 kinetic energy error for atom=    0.0001 (will be added to EATOM!!)


 POSCAR:  H Si
  positions in cartesian coordinates
  No initial velocities read in


 exchange-correlation table for SCAN
   RHO(1)=    0.500       N(1)  =     2000
   RHO(2)=  100.500       N(2)  =     4000



--------------------------------------------------------------------------------------------------------


 ion  position               nearest neighbor table
   1  0.189  0.778  0.113-  24 1.47
   2  0.567  0.789  0.236-  32 1.51
   3  0.715  0.838  0.654-   9 1.51
   4  0.621  0.549  0.606-  27 1.49
   5  0.902  0.236  0.282-  10 2.31  20 2.36  30 2.43  26 2.45
   6  0.116  0.232  0.074-  28 2.35  10 2.38  12 2.44  58 2.52
   7  0.308  0.103  0.753-  37 2.29  13 2.40  50 2.42  58 2.49
   8  0.343  0.331  0.783-  57 2.32  58 2.33  46 2.34  45 2.62
   9  0.819  0.840  0.680-   3 1.51  17 2.21  60 2.31  35 2.36
  10  0.963  0.182  0.015-   5 2.31  54 2.35   6 2.38  36 2.39
  11  0.641  0.395  0.861-  14 2.30  43 2.38  27 2.38  41 2.53
  12  0.148  0.341  0.315-  42 2.28  56 2.37   6 2.44  25 2.62
  13  0.183  0.001  0.688-  52 2.32  61 2.34   7 2.40
  14  0.523  0.390  0.068-  45 2.28  11 2.30  46 2.32  23 2.39
  15  0.029  0.445  0.751-  47 2.30  56 2.32  33 2.32  51 2.35
  16  0.722  0.071  0.101-  20 2.29  38 2.32  39 2.40  48 2.49
  17  0.873  0.982  0.684-   9 2.21  21 2.32  29 2.33  54 2.48
  18  0.074  0.710  0.603-  51 2.32  49 2.43  19 2.44
  19  0.008  0.730  0.903-  24 2.36  18 2.44  60 2.45  47 2.61  55 2.81
  20  0.758  0.166  0.335-  40 2.25  16 2.29   5 2.36  29 2.44
  21  0.968  0.975  0.432-  61 2.26  17 2.32  49 2.35  48 2.45
  22  0.540  0.084  0.397-  39 2.30  40 2.31  37 2.43  34 2.51
  23  0.546  0.366  0.384-  27 2.33  57 2.34  14 2.39  40 2.44
  24  0.097  0.819  0.104-   1 1.47  49 2.34  19 2.36  52 2.40
  25  0.025  0.469  0.263-  51 2.42  30 2.47  47 2.49  12 2.62
  26  0.991  0.196  0.550-  56 2.37  36 2.38  61 2.41   5 2.45
  27  0.647  0.452  0.561-   4 1.49  53 2.29  23 2.33  11 2.38
  28  0.166  0.085  0.167-   6 2.35  44 2.38  52 2.43  61 2.51
  29  0.740  0.049  0.568-  38 2.22  17 2.33  20 2.44  34 2.53
  30  0.871  0.398  0.231-  53 2.36  41 2.38   5 2.43  25 2.47
  31  0.785  0.827  0.197-  60 2.33  48 2.45  35 2.47  32 2.48
  32  0.622  0.876  0.232-   2 1.51  34 2.34  39 2.39  31 2.48
  33  0.878  0.394  0.737-  41 2.31  53 2.32  15 2.32  36 2.37
  34  0.608  0.938  0.522-  32 2.34  22 2.51  29 2.53
  35  0.873  0.750  0.438-  59 2.31   9 2.36  31 2.47  49 2.50
  36  0.874  0.231  0.763-  33 2.37  26 2.38  10 2.39  38 2.56
  37  0.395  0.143  0.508-   7 2.29  44 2.39  22 2.43  57 2.49
  38  0.729  0.135  0.814-  29 2.22  43 2.28  16 2.32  36 2.56
  39  0.565  0.019  0.119-  22 2.30  32 2.39  16 2.40  50 2.72
  40  0.622  0.218  0.437-  20 2.25  22 2.31  43 2.39  23 2.44
  41  0.794  0.457  0.971-  33 2.31  30 2.38  55 2.42  11 2.53
  42  0.301  0.318  0.256-  12 2.28  57 2.33  46 2.39  44 2.42
  43  0.619  0.242  0.756-  38 2.28  11 2.38  40 2.39  45 2.44
  44  0.312  0.152  0.229-  50 2.31  28 2.38  37 2.39  42 2.42
  45  0.482  0.252  0.947-  14 2.28  50 2.29  43 2.44   8 2.62  46 3.05
  46  0.367  0.421  0.041-  14 2.32   8 2.34  42 2.39  45 3.05
  47  0.011  0.554  0.973-  15 2.30  55 2.36  25 2.49  19 2.61
  48  0.860  0.977  0.178-  54 2.40  31 2.45  21 2.45  16 2.49
  49  0.025  0.826  0.386-  24 2.34  21 2.35  18 2.43  35 2.50
  50  0.414  0.113  0.003-  45 2.29  44 2.31   7 2.42  39 2.72
  51  0.025  0.562  0.533-  59 2.31  18 2.32  15 2.35  25 2.42
  52  0.114  0.967  0.962-  54 2.29  13 2.32  24 2.40  28 2.43
  53  0.800  0.456  0.492-  27 2.29  33 2.32  30 2.36  59 2.49
  54  0.967  0.024  0.950-  52 2.29  10 2.35  48 2.40  17 2.48
  55  0.862  0.603  0.890-  60 2.27  47 2.36  59 2.39  41 2.42  19 2.81
  56  0.094  0.318  0.613-  15 2.32  12 2.37  26 2.37  58 2.39
  57  0.404  0.315  0.496-   8 2.32  42 2.33  23 2.34  37 2.49
  58  0.210  0.242  0.789-   8 2.33  56 2.39   7 2.49   6 2.52
  59  0.874  0.606  0.568-  35 2.31  51 2.31  55 2.39  53 2.49
  60  0.843  0.756  0.939-  55 2.27   9 2.31  31 2.33  19 2.45
  61  0.090  0.069  0.469-  21 2.26  13 2.34  26 2.41  28 2.51

  LATTYP: Found a simple tetragonal cell.
 ALAT       =    14.5342042383
 C/A-ratio  =     0.5104869856
  
  Lattice vectors:
  
 A1 = (  14.5342042383,   0.0000000000,   0.0000000000)
 A2 = (   0.0000000000,  14.5342042383,   0.0000000000)
 A3 = (   0.0000000000,   0.0000000000,   7.4195221101)


Analysis of symmetry for initial positions (statically):
=====================================================================
 Subroutine PRICEL returns:
 Original cell was already a primitive cell.
 

 Routine SETGRP: Setting up the symmetry group for a 
 simple tetragonal supercell.


 Subroutine GETGRP returns: Found  1 space group operations
 (whereof  1 operations were pure point group operations)
 out of a pool of 16 trial point group operations.


The static configuration has the point symmetry C_1 .


Analysis of symmetry for dynamics (positions and initial velocities):
=====================================================================
 Subroutine PRICEL returns:
 Original cell was already a primitive cell.
 

 Routine SETGRP: Setting up the symmetry group for a 
 simple tetragonal supercell.


 Subroutine GETGRP returns: Found  1 space group operations
 (whereof  1 operations were pure point group operations)
 out of a pool of 16 trial point group operations.


The dynamic configuration has the point symmetry C_1 .


 Subroutine INISYM returns: Found  1 space group operations
 (whereof  1 operations are pure point group operations),
 and found     1 'primitive' translations


----------------------------------------------------------------------------------------

                                     Primitive cell                                     

  volume of cell :    1567.3228

  direct lattice vectors                    reciprocal lattice vectors
    14.534204238  0.000000000  0.000000000     0.068803216  0.000000000  0.000000000
     0.000000000 14.534204238  0.000000000     0.000000000  0.068803216  0.000000000
     0.000000000  0.000000000  7.419522110     0.000000000  0.000000000  0.134779570

  length of vectors
    14.534204238 14.534204238  7.419522110     0.068803216  0.068803216  0.134779570

  position of ions in fractional coordinates (direct lattice)
     0.188873774  0.777806601  0.113301772
     0.566690812  0.788698150  0.235670165
     0.715498408  0.837672280  0.653542092
     0.621155438  0.548883851  0.605646824
     0.901927604  0.236248916  0.281915731
     0.116053825  0.231726481  0.074076604
     0.307930171  0.102976398  0.752646857
     0.343293648  0.330510699  0.782778178
     0.818627550  0.839990948  0.679847020
     0.963265671  0.182098033  0.015422691
     0.640657022  0.394912574  0.861435535
     0.148417482  0.340827741  0.315288500
     0.182979402  0.000584536  0.687970185
     0.523053748  0.390412843  0.068152098
     0.029269714  0.445021268  0.751214151
     0.721608134  0.070761356  0.100543672
     0.873250423  0.981698053  0.683802801
     0.073633890  0.710406970  0.603493046
     0.007775245  0.729795717  0.902896427
     0.758211445  0.166397827  0.335293832
     0.967923649  0.975017260  0.431820264
     0.540223591  0.083640630  0.397235827
     0.545606754  0.365826014  0.383794260
     0.096720122  0.819308701  0.103644007
     0.024713978  0.468916625  0.262853856
     0.990842000  0.195546998  0.550292854
     0.646645654  0.452120384  0.560603491
     0.166478327  0.085473548  0.167025582
     0.740384532  0.048701875  0.567767026
     0.871323933  0.398353422  0.230579541
     0.784686923  0.826856414  0.196658218
     0.622258354  0.876153919  0.232134897
     0.878052888  0.393883965  0.737085208
     0.608482574  0.938069933  0.521528199
     0.872720638  0.749948179  0.437730349
     0.873849011  0.231323294  0.763293096
     0.394812121  0.143412736  0.507693076
     0.729148967  0.134844672  0.813967518
     0.564966603  0.018650006  0.118578661
     0.621968692  0.218494934  0.436862368
     0.793803349  0.456533422  0.971383317
     0.300803534  0.317844027  0.256110835
     0.618519587  0.242053844  0.756262993
     0.312184962  0.152452103  0.229382698
     0.482071800  0.252028246  0.947400641
     0.366704631  0.420592686  0.040927434
     0.011045462  0.553927127  0.972910370
     0.860033325  0.977301527  0.177887468
     0.025345798  0.825528512  0.386070687
     0.413919462  0.112755399  0.003492152
     0.025304034  0.562407812  0.532686599
     0.113878268  0.966650789  0.961530931
     0.799974998  0.455786219  0.492460289
     0.967290659  0.024035991  0.949596200
     0.862462079  0.602723056  0.889600422
     0.094155138  0.317535788  0.612730838
     0.404403977  0.314586194  0.496296115
     0.209804400  0.242116455  0.788809564
     0.873642601  0.605835714  0.568186190
     0.842564189  0.755768931  0.939216825
     0.090199641  0.069393548  0.468646086

  ion indices of the primitive-cell ions
   primitive index   ion index
                 1           1
                 2           2
                 3           3
                 4           4
                 5           5
                 6           6
                 7           7
                 8           8
                 9           9
                10          10
                11          11
                12          12
                13          13
                14          14
                15          15
                16          16
                17          17
                18          18
                19          19
                20          20
                21          21
                22          22
                23          23
                24          24
                25          25
                26          26
                27          27
                28          28
                29          29
                30          30
                31          31
                32          32
                33          33
                34          34
                35          35
                36          36
                37          37
                38          38
                39          39
                40          40
                41          41
                42          42
                43          43
                44          44
                45          45
                46          46
                47          47
                48          48
                49          49
                50          50
                51          51
                52          52
                53          53
                54          54
                55          55
                56          56
                57          57
                58          58
                59          59
                60          60
                61          61

----------------------------------------------------------------------------------------


 -----------------------------------------------------------------------------
|                                                                             |
|           W    W    AA    RRRRR   N    N  II  N    N   GGGG   !!!           |
|           W    W   A  A   R    R  NN   N  II  NN   N  G    G  !!!           |
|           W    W  A    A  R    R  N N  N  II  N N  N  G       !!!           |
|           W WW W  AAAAAA  RRRRR   N  N N  II  N  N N  G  GGG   !            |
|           WW  WW  A    A  R   R   N   NN  II  N   NN  G    G                |
|           W    W  A    A  R    R  N    N  II  N    N   GGGG   !!!           |
|                                                                             |
|     The requested file  could not be found or opened for reading            |
|     k-point information. Automatic k-point generation is used as a          |
|     fallback, which may lead to unwanted results.                           |
|                                                                             |
 -----------------------------------------------------------------------------



Automatic generation of k-mesh.
 Grid dimensions derived from KSPACING:
 generate k-points for:    2    2    4

 Generating k-lattice:

  Cartesian coordinates                     Fractional coordinates (reciprocal lattice)
     0.034401608  0.000000000  0.000000000     0.500000000  0.000000000  0.000000000
     0.000000000  0.034401608  0.000000000     0.000000000  0.500000000  0.000000000
     0.000000000  0.000000000  0.033694893     0.000000000  0.000000000  0.250000000

  Length of vectors
     0.034401608  0.034401608  0.033694893

  Shift w.r.t. Gamma in fractional coordinates (k-lattice)
     0.000000000  0.000000000  0.000000000

 
 Subroutine IBZKPT returns following result:
 ===========================================
 
 Found     12 irreducible k-points:
 
 Following reciprocal coordinates:
            Coordinates               Weight
  0.000000  0.000000  0.000000      1.000000
  0.500000  0.000000  0.000000      1.000000
  0.000000  0.500000  0.000000      1.000000
  0.500000  0.500000  0.000000      1.000000
  0.000000  0.000000  0.250000      2.000000
  0.500000  0.000000  0.250000      2.000000
  0.000000  0.500000  0.250000      2.000000
  0.500000  0.500000  0.250000      2.000000
  0.000000  0.000000  0.500000      1.000000
  0.500000  0.000000  0.500000      1.000000
  0.000000  0.500000  0.500000      1.000000
  0.500000  0.500000  0.500000      1.000000
 
 Following cartesian coordinates:
            Coordinates               Weight
  0.000000  0.000000  0.000000      1.000000
  0.034402  0.000000  0.000000      1.000000
  0.000000  0.034402  0.000000      1.000000
  0.034402  0.034402  0.000000      1.000000
  0.000000  0.000000  0.033695      2.000000
  0.034402  0.000000  0.033695      2.000000
  0.000000  0.034402  0.033695      2.000000
  0.034402  0.034402  0.033695      2.000000
  0.000000  0.000000  0.067390      1.000000
  0.034402  0.000000  0.067390      1.000000
  0.000000  0.034402  0.067390      1.000000
  0.034402  0.034402  0.067390      1.000000
 


--------------------------------------------------------------------------------------------------------




 Dimension of arrays:
   k-points           NKPTS =     12   k-points in BZ     NKDIM =     12   number of bands    NBANDS=    152
   number of dos      NEDOS =   2000   number of ions     NIONS =     61
   non local maximal  LDIM  =      4   non local SUM 2l+1 LMDIM =      8
   total plane-waves  NPLWV = ******
   max r-space proj   IRMAX =      1   max aug-charges    IRDMAX= 404756
   dimension x,y,z NGX =   168 NGY =  168 NGZ =   84
   dimension x,y,z NGXF=   336 NGYF=  336 NGZF=  168
   support grid    NGXF=   672 NGYF=  672 NGZF=  336
   ions per type =               4  57
   NGX,Y,Z   is equivalent  to a cutoff of  19.22, 19.22, 18.82 a.u.
   NGXF,Y,Z  is equivalent  to a cutoff of  38.43, 38.43, 37.64 a.u.

 SYSTEM =  a-Si SPC                                
 POSCAR =   H Si                                   

 Startparameter for this run:
   NWRITE =      2    write-flag & timer
   PREC   = accura    normal or accurate (medium, high low for compatibility)
   ISTART =      1    job   : 0-new  1-cont  2-samecut
   ICHARG =      1    charge: 1-file 2-atom 10-const
   ISPIN  =      1    spin polarized calculation?
   LNONCOLLINEAR =      F non collinear calculations
   LSORBIT =      F    spin-orbit coupling
   INIWAV =      1    electr: 0-lowe 1-rand  2-diag
   LASPH  =      T    aspherical Exc in radial PAW
 Electronic Relaxation 1
   ENCUT  = 1200.0 eV  88.20 Ry    9.39 a.u.  41.05 41.05 20.96*2*pi/ulx,y,z
   ENINI  = 1200.0     initial cutoff
   ENAUG  =  400.0 eV  augmentation charge cutoff
   NELM   =    150;   NELMIN=  2; NELMDL=  0     # of ELM steps 
   EDIFF  = 0.1E-05   stopping-criterion for ELM
   LREAL  =      F    real-space projection
   NLSPLINE    = F    spline interpolate recip. space projectors
   LCOMPAT=      F    compatible to vasp.4.4
   GGA_COMPAT  = T    GGA compatible to vasp.4.4-vasp.4.6
   LMAXPAW     = -100 max onsite density
   LMAXMIX     =    2 max onsite mixed and CHGCAR
   VOSKOWN=      0    Vosko Wilk Nusair interpolation
   ROPT   =    0.00000   0.00000
 Ionic relaxation
   EDIFFG = -.1E-01   stopping-criterion for IOM
   NSW    =      0    number of steps for IOM
   NBLOCK =      1;   KBLOCK =      1    inner block; outer block 
   IBRION =     -1    ionic relax: 0-MD 1-quasi-New 2-CG
   NFREE  =      0    steps in history (QN), initial steepest desc. (CG)
   ISIF   =      2    stress and relaxation
   IWAVPR =     10    prediction:  0-non 1-charg 2-wave 3-comb
   ISYM   =      1    0-nonsym 1-usesym 2-fastsym
   LCORR  =      T    Harris-Foulkes like correction to forces

   POTIM  = 0.5000    time-step for ionic-motion
   TEIN   =    0.0    initial temperature
   TEBEG  =    0.0;   TEEND  =   0.0 temperature during run
   SMASS  =  -3.00    Nose mass-parameter (am)
   estimated Nose-frequenzy (Omega)   =  0.10E-29 period in steps = 0.13E+47 mass=  -0.483E-26a.u.
   SCALEE = 1.0000    scale energy and forces
   NPACO  =    256;   APACO  = 10.0  distance and # of slots for P.C.
   PSTRESS=    0.0 pullay stress

  Mass of Ions in am
   POMASS =   1.00 28.09
  Ionic Valenz
   ZVAL   =   1.00  4.00
  Atomic Wigner-Seitz radii
   RWIGS  =  -1.00 -1.00
  virtual crystal weights 
   VCA    =   1.00  1.00
   NELECT =     232.0000    total number of electrons
   NUPDOWN=      -1.0000    fix difference up-down

 DOS related values:
   EMIN   =  10.00;   EMAX   =-10.00  energy-range for DOS
   EFERMI =   0.00;   METHOD = LEGACY      
   ISMEAR =     0;   SIGMA  =   0.10  broadening in eV -4-tet -1-fermi 0-gaus
   EFERMI_NEDOS =   21; number of points for ismear=-14 and -15

 Electronic relaxation 2 (details)
   IALGO  =     38    algorithm
   LDIAG  =      F    sub-space diagonalisation (order eigenvalues)
   LSUBROT=      F    optimize rotation matrix (better conditioning)
   TURBO    =      0    0=normal 1=particle mesh
   IRESTART =      0    0=no restart 2=restart with 2 vectors
   NREBOOT  =      0    no. of reboots
   NMIN     =      0    reboot dimension
   EREF     =   0.00    reference energy to select bands
   IMIX   =      4    mixing-type and parameters
     AMIX     =   0.40;   BMIX     =  1.00
     AMIX_MAG =   1.60;   BMIX_MAG =  1.00
     AMIN     =   0.10
     WC   =   100.;   INIMIX=   1;  MIXPRE=   1;  MAXMIX= -45

 Intra band minimization:
   WEIMIN = 0.0000     energy-eigenvalue tresh-hold
   EBREAK =  0.16E-08  absolut break condition
   DEPER  =   0.30     relativ break condition  

   TIME   =   0.40     timestep for ELM

  volume/ion in A,a.u.               =      25.69       173.39
  Fermi-wavevector in a.u.,A,eV,Ry     =   0.866000  1.636503 10.203776  0.749956
  Thomas-Fermi vector in A             =   1.984325

 Write flags
   LWAVE        =      F    write WAVECAR
   LDOWNSAMPLE  =      F    k-point downsampling of WAVECAR
   LCHARG       =      F    write CHGCAR
   LVTOT        =      F    write LOCPOT, total local potential
   LVHAR        =      F    write LOCPOT, Hartree potential only
   WRT_POTENTIAL= false  ! write potential to hdf5 file
   LELF         =      F    write electronic localiz. function (ELF)
   LORBIT       =     11    0 simple, 1 ext, 2 COOP (PROOUT), +10 PAW based schemes


 Python interface
   PLUGINS active      =      F    recompile with -DPLUGINS to activate

 Dipole corrections
   LMONO      =      F    monopole corrections only (constant potential shift)
   LDIPOL     =      F    correct potential (dipole corrections)
   IDIPOL     =      0    1-x, 2-y, 3-z, 4-all directions 
   EPSILON    =  1.0000000 bulk dielectric constant
   LVACPOTAV  =      F  vacuum potentials using an averaging scheme for the charge density
   VACPOTFLAT =  0.1000000 required flatness to determine vacuum potential

Coulomb truncation method
  LTRUNCATE          =      F  Coulomb kernel truncation to be used
  IDIMENSIONALITY    =      3  Dimensionality of cutoff (0 molecules / 2 surfaces)
  ISURFACE           =     -1  Direction of surface normal
  LCOARSEN           =      F  Coarsen the charge grid before padding, preferred


 Exchange correlation treatment:
   METAGGA = SCAN    functional components
   XC_C    = 1    coefficients multiplying the functional components
   LIBXC   =     F    Libxc                    
   VOSKOWN =     0    Vosko Wilk Nusair interpolation
   LHFCALC =     F    Hartree Fock is set to
   LHFONE  =     F    Hartree Fock one center treatment
   AEXX    =    0.0000 exact exchange contribution

 Parameters of functionals:
   SCAN:
     P1 =  0.000000E+00
     P2 =  0.000000E+00
     P3 =  0.000000E+00

 Accuracy and mixing parameters for tau-dependent meta-GGA functionals:
   LMAXTAU = 6
   LMIXTAU = T

 Van der Waals corrections
   IVDW    =     0    specifies the selected vdW correction

 Linear response parameters
   LEPSILON=     F    determine dielectric tensor
   LRPA    =     F    only Hartree local field effects (RPA)
   LNABLA  =     F    use nabla operator in PAW spheres
   LVEL    =     F    velocity operator in full k-point grid
   CSHIFT  =0.1000    complex shift for real part using Kramers Kronig
   OMEGAMAX=  -1.0    maximum frequency
   DEG_THRESHOLD= 0.2000000E-02 threshold for treating states as degnerate
   RTIME   =   -0.100 relaxation time in fs
  (WPLASMAI=    0.000 imaginary part of plasma frequency in eV, 0.658/RTIME)
   DFIELD  = 0.0000000 0.0000000 0.0000000 field for delta impulse in time

  Optional k-point grid parameters
   LKPOINTS_OPT  =     F    use optional k-point grid
   KPOINTS_OPT_MODE=     1    mode for optional k-point grid

 Orbital magnetization related:
   ORBITALMAG=     F  switch on orbital magnetization
   LCHIMAG   =     F  perturbation theory with respect to B field
   DQ        =  0.001000  dq finite difference perturbation B field
   LLRAUG    =     F  two centre corrections for induced B field
   LBONE     =     F  B-component reconstruction in AE one-centre
   LVGVCALC  =     T  calculate vGv susceptibility
   LVGVAPPL  =     F  apply vGv susceptibility instead of pGv for G=0

 Random number generation:
   RANDOM_GENERATOR = DEFAULT
   PCG_SEED         = not used


--------------------------------------------------------------------------------------------------------


 Static calculation
 charge density and potential will be updated during run
 non-spin polarized calculation
 Variant of blocked Davidson
 perform Loewdin sub-space diagonalisation
    ordering is kept fixed
    before iterative eigenvector-optimisation
 modified Broyden-mixing scheme, WC =      100.0
 initial mixing is a Kerker type mixing with AMIX =  0.4000 and BMIX =      1.0000
 Hartree-type preconditioning will be used
 using additional bands           36
 reciprocal scheme for non local part
 use partial core corrections
 calculate Harris-corrections to forces   (improved forces if not selfconsistent)
 use gradient corrections 
 use of overlap-Matrix (Vanderbilt PP)
 Gauss-broadening in eV      SIGMA  =   0.10


--------------------------------------------------------------------------------------------------------


  energy-cutoff  :     1200.00
  volume of cell :     1567.32
      direct lattice vectors                 reciprocal lattice vectors
    14.534204238  0.000000000  0.000000000     0.068803216  0.000000000  0.000000000
     0.000000000 14.534204238  0.000000000     0.000000000  0.068803216  0.000000000
     0.000000000  0.000000000  7.419522110     0.000000000  0.000000000  0.134779570

  length of vectors
    14.534204238 14.534204238  7.419522110     0.068803216  0.068803216  0.134779570



 old parameters found on file WAVECAR:
  energy-cutoff  :     1200.00
  volume of cell :     1567.32
      direct lattice vectors                 reciprocal lattice vectors
    14.534204238  0.000000000  0.000000000     0.068803216  0.000000000  0.000000000
     0.000000000 14.534204238  0.000000000     0.000000000  0.068803216  0.000000000
     0.000000000  0.000000000  7.419522110     0.000000000  0.000000000  0.134779570

  length of vectors


 k-points in units of 2pi/SCALE and weight: read from INCAR                         
   0.00000000  0.00000000  0.00000000       0.062
   0.03440161  0.00000000  0.00000000       0.062
   0.00000000  0.03440161  0.00000000       0.062
   0.03440161  0.03440161  0.00000000       0.062
   0.00000000  0.00000000  0.03369489       0.125
   0.03440161  0.00000000  0.03369489       0.125
   0.00000000  0.03440161  0.03369489       0.125
   0.03440161  0.03440161  0.03369489       0.125
   0.00000000  0.00000000  0.06738979       0.062
   0.03440161  0.00000000  0.06738979       0.062
   0.00000000  0.03440161  0.06738979       0.062
   0.03440161  0.03440161  0.06738979       0.062

 k-points in reciprocal lattice and weights: read from INCAR                         
   0.00000000  0.00000000  0.00000000       0.062
   0.50000000  0.00000000  0.00000000       0.062
   0.00000000  0.50000000  0.00000000       0.062
   0.50000000  0.50000000  0.00000000       0.062
   0.00000000  0.00000000  0.25000000       0.125
   0.50000000  0.00000000  0.25000000       0.125
   0.00000000  0.50000000  0.25000000       0.125
   0.50000000  0.50000000  0.25000000       0.125
   0.00000000  0.00000000  0.50000000       0.062
   0.50000000  0.00000000  0.50000000       0.062
   0.00000000  0.50000000  0.50000000       0.062
   0.50000000  0.50000000  0.50000000       0.062

 position of ions in fractional coordinates (direct lattice) 
   0.18887377  0.77780660  0.11330177
   0.56669081  0.78869815  0.23567017
   0.71549841  0.83767228  0.65354209
   0.62115544  0.54888385  0.60564682
   0.90192760  0.23624892  0.28191573
   0.11605383  0.23172648  0.07407660
   0.30793017  0.10297640  0.75264686
   0.34329365  0.33051070  0.78277818
   0.81862755  0.83999095  0.67984702
   0.96326567  0.18209803  0.01542269
   0.64065702  0.39491257  0.86143554
   0.14841748  0.34082774  0.31528850
   0.18297940  0.00058454  0.68797019
   0.52305375  0.39041284  0.06815210
   0.02926971  0.44502127  0.75121415
   0.72160813  0.07076136  0.10054367
   0.87325042  0.98169805  0.68380280
   0.07363389  0.71040697  0.60349305
   0.00777525  0.72979572  0.90289643
   0.75821145  0.16639783  0.33529383
   0.96792365  0.97501726  0.43182026
   0.54022359  0.08364063  0.39723583
   0.54560675  0.36582601  0.38379426
   0.09672012  0.81930870  0.10364401
   0.02471398  0.46891663  0.26285386
   0.99084200  0.19554700  0.55029285
   0.64664565  0.45212038  0.56060349
   0.16647833  0.08547355  0.16702558
   0.74038453  0.04870188  0.56776703
   0.87132393  0.39835342  0.23057954
   0.78468692  0.82685641  0.19665822
   0.62225835  0.87615392  0.23213490
   0.87805289  0.39388397  0.73708521
   0.60848257  0.93806993  0.52152820
   0.87272064  0.74994818  0.43773035
   0.87384901  0.23132329  0.76329310
   0.39481212  0.14341274  0.50769308
   0.72914897  0.13484467  0.81396752
   0.56496660  0.01865001  0.11857866
   0.62196869  0.21849493  0.43686237
   0.79380335  0.45653342  0.97138332
   0.30080353  0.31784403  0.25611083
   0.61851959  0.24205384  0.75626299
   0.31218496  0.15245210  0.22938270
   0.48207180  0.25202825  0.94740064
   0.36670463  0.42059269  0.04092743
   0.01104546  0.55392713  0.97291037
   0.86003333  0.97730153  0.17788747
   0.02534580  0.82552851  0.38607069
   0.41391946  0.11275540  0.00349215
   0.02530403  0.56240781  0.53268660
   0.11387827  0.96665079  0.96153093
   0.79997500  0.45578622  0.49246029
   0.96729066  0.02403599  0.94959620
   0.86246208  0.60272306  0.88960042
   0.09415514  0.31753579  0.61273084
   0.40440398  0.31458619  0.49629612
   0.20980440  0.24211645  0.78880956
   0.87364260  0.60583571  0.56818619
   0.84256419  0.75576893  0.93921683
   0.09019964  0.06939355  0.46864609

 position of ions in cartesian coordinates  (Angst):
   2.74513000 11.30480000  0.84064500
   8.23640000 11.46310000  1.74856000
  10.39920000 12.17490000  4.84897000
   9.02800000  7.97759000  4.49361000
  13.10880000  3.43369000  2.09168000
   1.68675000  3.36796000  0.54961300
   4.47552000  1.49668000  5.58428000
   4.98950000  4.80371000  5.80784000
  11.89810000 12.20860000  5.04414000
  14.00030000  2.64665000  0.11442900
   9.31144000  5.73974000  6.39144000
   2.15713000  4.95366000  2.33929000
   2.65946000  0.00849576  5.10441000
   7.60217000  5.67434000  0.50565600
   0.42541200  6.46803000  5.57365000
  10.48800000  1.02846000  0.74598600
  12.69200000 14.26820000  5.07349000
   1.07021000 10.32520000  4.47763000
   0.11300700 10.60700000  6.69906000
  11.02000000  2.41846000  2.48772000
  14.06800000 14.17110000  3.20390000
   7.85172000  1.21565000  2.94730000
   7.92996000  5.31699000  2.84757000
   1.40575000 11.90800000  0.76898900
   0.35919800  6.81533000  1.95025000
  14.40110000  2.84212000  4.08291000
   9.39848000  6.57121000  4.15941000
   2.41963000  1.24229000  1.23925000
  10.76090000  0.70784300  4.21256000
  12.66400000  5.78975000  1.71079000
  11.40480000 12.01770000  1.45911000
   9.04403000 12.73420000  1.72233000
  12.76180000  5.72479000  5.46882000
   8.84381000 13.63410000  3.86949000
  12.68430000 10.89990000  3.24775000
  12.70070000  3.36210000  5.66327000
   5.73828000  2.08439000  3.76684000
  10.59760000  1.95986000  6.03925000
   8.21134000  0.27106300  0.87979700
   9.03982000  3.17565000  3.24131000
  11.53730000  6.63535000  7.20720000
   4.37194000  4.61961000  1.90022000
   8.98969000  3.51806000  5.61111000
   4.53736000  2.21577000  1.70191000
   7.00653000  3.66303000  7.02926000
   5.32976000  6.11298000  0.30366200
   0.16053700  8.05089000  7.21853000
  12.49990000 14.20430000  1.31984000
   0.36838100 11.99840000  2.86446000
   6.01599000  1.63881000  0.02591010
   0.36777400  8.17415000  3.95228000
   1.65513000 14.04950000  7.13410000
  11.62700000  6.62449000  3.65382000
  14.05880000  0.34934400  7.04555000
  12.53520000  8.76010000  6.60041000
   1.36847000  4.61513000  4.54617000
   5.87769000  4.57226000  3.68228000
   3.04934000  3.51897000  5.85259000
  12.69770000  8.80534000  4.21567000
  12.24600000 10.98450000  6.96854000
   1.31098000  1.00858000  3.47713000



--------------------------------------------------------------------------------------------------------


 k-point     1 :   0.0000 0.0000 0.0000  plane waves:  147857
 k-point     2 :   0.5000 0.0000 0.0000  plane waves:  147810
 k-point     3 :   0.0000 0.5000 0.0000  plane waves:  147810
 k-point     4 :   0.5000 0.5000 0.0000  plane waves:  147948
 k-point     5 :   0.0000 0.0000 0.2500  plane waves:  147854
 k-point     6 :   0.5000 0.0000 0.2500  plane waves:  148010
 k-point     7 :   0.0000 0.5000 0.2500  plane waves:  148010
 k-point     8 :   0.5000 0.5000 0.2500  plane waves:  147900
 k-point     9 :   0.0000 0.0000 0.5000  plane waves:  147986
 k-point    10 :   0.5000 0.0000 0.5000  plane waves:  148040
 k-point    11 :   0.0000 0.5000 0.5000  plane waves:  148040
 k-point    12 :   0.5000 0.5000 0.5000  plane waves:  147936

 maximum and minimum number of plane-waves per node :      9322     9132

 maximum number of plane-waves:    148040
 maximum index in each direction: 
   IXMAX=   41   IYMAX=   41   IZMAX=   20
   IXMIN=  -41   IYMIN=  -41   IZMIN=  -21


 parallel 3D FFT for wavefunctions:
    minimum data exchange during FFTs selected (reduces bandwidth)
 parallel 3D FFT for charge:
    minimum data exchange during FFTs selected (reduces bandwidth)


 total amount of memory used by VASP MPI-rank0   137966. kBytes
=======================================================================

   base                                    :      30000. kBytes
   nonl-proj                               :      23230. kBytes
   fftplans                                :      28731. kBytes
   grid                                    :      22140. kBytes
   one-center                              :         12. kBytes
   wavefun                                 :      33853. kBytes

     INWAV:  cpu time      5.7282: real time      5.7306
 Broyden mixing: mesh for mixing (old mesh)
   NGX = 83   NGY = 83   NGZ = 41
  (NGX  =336   NGY  =336   NGZ  =168)
  gives a total of 282449 points

 initial charge density was supplied:
 number of electron     231.9999999 magnetization 
 keeping initial charge density in first step


--------------------------------------------------------------------------------------------------------


 Maximum index for augmentation-charges        11118 (set IRDMAX)


--------------------------------------------------------------------------------------------------------


 First call to EWALD:  gamma=   0.153
 Maximum number of real-space cells   2x   2x   4
 Maximum number of reciprocal cells   3x   3x   2

    FEWALD:  cpu time      0.0096: real time      0.0098


--------------------------------------- Ionic step        1  -------------------------------------------




--------------------------------------- Iteration      1(   1)  ---------------------------------------


    POTLOK:  cpu time      0.5019: real time      0.5022
    SETDIJ:  cpu time      0.8884: real time      0.8891
    EDDIAG:  cpu time     11.4754: real time     11.4840
     EDDAV:  cpu time     52.8915: real time     52.9376
       DOS:  cpu time      0.0105: real time      0.0106
    CHARGE:  cpu time      4.1388: real time      4.1417
    MIXING:  cpu time      0.0185: real time      0.0195
    --------------------------------------------
      LOOP:  cpu time     69.9250: real time     69.9848

 eigenvalue-minimisations  :  3656
 total energy-change (2. order) :-0.6009043E+03  (-0.6460808E+00)
 number of electron     231.9999999 magnetization 
 augmentation part      -12.7193641 magnetization 

 Broyden mixing:
  rms(total) = 0.95322E+00    rms(broyden)= 0.50362E+02
  rms(prec ) = 0.10814E+01
  weight for this iteration     100.00
  WARNING: grid for Broyden might be to small

 Free energy of the ion-electron system (eV)
  ---------------------------------------------------
  alpha Z        PSCENC =        72.44906666
  Ewald energy   TEWEN  =     -1937.71527900
  -Hartree energ DENC   =     -4420.07614447
  -exchange      EXHF   =         0.00000000
  -V(xc)+E(xc)   XCENC  =      -265.72578761
  PAW double counting   =     21677.73126956   -21109.54234323
  entropy T*S    EENTRO =        -0.05222202
  eigenvalues    EBANDS =      -542.73596710
  atomic energy  EATOM  =      5924.76308760
  Solvation  Ediel_sol  =         0.00000000
  ---------------------------------------------------
  free energy    TOTEN  =      -600.90431961 eV

  energy without entropy =     -600.85209758  energy(sigma->0) =     -600.87820859


--------------------------------------------------------------------------------------------------------




--------------------------------------- Iteration      1(   2)  ---------------------------------------


    POTLOK:  cpu time      0.5135: real time      0.5142
    SETDIJ:  cpu time      0.8818: real time      0.8823
    EDDIAG:  cpu time     11.6075: real time     11.6175
     EDDAV:  cpu time     53.0399: real time     53.0874
       DOS:  cpu time      0.0042: real time      0.0042
    CHARGE:  cpu time      4.1304: real time      4.1336
    MIXING:  cpu time      0.0126: real time      0.0127
    --------------------------------------------
      LOOP:  cpu time     70.1899: real time     70.2518

 eigenvalue-minimisations  :  3672
 total energy-change (2. order) : 0.4113015E+02  (-0.6114838E+00)
 number of electron     231.9999999 magnetization 
 augmentation part      -12.6686144 magnetization 

 Broyden mixing:
  rms(total) = 0.63969E+00    rms(broyden)= 0.28969E+02
  rms(prec ) = 0.70479E+00
  weight for this iteration     100.00
  WARNING: grid for Broyden might be to small

 eigenvalues of (default mixing * dielectric matrix)
  average eigenvalue GAMMA=   0.6348
  0.6348

 Free energy of the ion-electron system (eV)
  ---------------------------------------------------
  alpha Z        PSCENC =        72.44906666
  Ewald energy   TEWEN  =     -1937.71527900
  -Hartree energ DENC   =     -4414.01518437
  -exchange      EXHF   =         0.00000000
  -V(xc)+E(xc)   XCENC  =      -259.72607474
  PAW double counting   =     25977.55486515   -25409.21742786
  entropy T*S    EENTRO =        -0.04770408
  eigenvalues    EBANDS =      -513.81952084
  atomic energy  EATOM  =      5924.76308760
  Solvation  Ediel_sol  =         0.00000000
  ---------------------------------------------------
  free energy    TOTEN  =      -559.77417148 eV

  energy without entropy =     -559.72646740  energy(sigma->0) =     -559.75031944


--------------------------------------------------------------------------------------------------------




--------------------------------------- Iteration      1(   3)  ---------------------------------------


    POTLOK:  cpu time      0.4973: real time      0.5183
    SETDIJ:  cpu time      0.8820: real time      0.8829
    EDDIAG:  cpu time     11.5790: real time     11.5892
     EDDAV:  cpu time     52.8808: real time     52.9294
       DOS:  cpu time      0.0034: real time      0.0033
    CHARGE:  cpu time      4.1422: real time      4.1456
    MIXING:  cpu time      0.0094: real time      0.0094
    --------------------------------------------
      LOOP:  cpu time     69.9941: real time     70.0782

 eigenvalue-minimisations  :  3648
 total energy-change (2. order) :-0.1982070E+01  (-0.4905825E+00)
 number of electron     231.9999999 magnetization 
 augmentation part      -12.6292069 magnetization 

 Broyden mixing:
  rms(total) = 0.41486E+00    rms(broyden)= 0.14562E+02
  rms(prec ) = 0.44389E+00
  weight for this iteration     100.00
  WARNING: grid for Broyden might be to small

 eigenvalues of (default mixing * dielectric matrix)
  average eigenvalue GAMMA=   0.7037
  0.7829  0.6245

 Free energy of the ion-electron system (eV)
  ---------------------------------------------------
  alpha Z        PSCENC =        72.44906666
  Ewald energy   TEWEN  =     -1937.71527900
  -Hartree energ DENC   =     -4416.02548487
  -exchange      EXHF   =         0.00000000
  -V(xc)+E(xc)   XCENC  =      -262.60070862
  PAW double counting   =     28984.29776369   -28416.00812932
  entropy T*S    EENTRO =        -0.05729337
  eigenvalues    EBANDS =      -510.85926393
  atomic energy  EATOM  =      5924.76308760
  Solvation  Ediel_sol  =         0.00000000
  ---------------------------------------------------
  free energy    TOTEN  =      -561.75624117 eV

  energy without entropy =     -561.69894780  energy(sigma->0) =     -561.72759449


--------------------------------------------------------------------------------------------------------




--------------------------------------- Iteration      1(   4)  ---------------------------------------


    POTLOK:  cpu time      0.4900: real time      0.5147
    SETDIJ:  cpu time      0.8805: real time      0.8818
    EDDIAG:  cpu time     11.5945: real time     11.6046
     EDDAV:  cpu time     54.9565: real time     55.0021
       DOS:  cpu time      0.0034: real time      0.0034
    CHARGE:  cpu time      4.2582: real time      4.2612
    MIXING:  cpu time      0.0097: real time      0.0097
    --------------------------------------------
      LOOP:  cpu time     72.1929: real time     72.2775

 eigenvalue-minimisations  :  3912
 total energy-change (2. order) :-0.2709643E+00  (-0.5910867E-01)
 number of electron     231.9999999 magnetization 
 augmentation part      -12.6201888 magnetization 

 Broyden mixing:
  rms(total) = 0.60497E-01    rms(broyden)= 0.14958E+01
  rms(prec ) = 0.11033E+00
  weight for this iteration     100.00
  WARNING: grid for Broyden might be to small

 eigenvalues of (default mixing * dielectric matrix)
  average eigenvalue GAMMA=   0.8667
  1.2589  0.7136  0.6277

 Free energy of the ion-electron system (eV)
  ---------------------------------------------------
  alpha Z        PSCENC =        72.44906666
  Ewald energy   TEWEN  =     -1937.71527900
  -Hartree energ DENC   =     -4419.79764560
  -exchange      EXHF   =         0.00000000
  -V(xc)+E(xc)   XCENC  =      -262.76785463
  PAW double counting   =     34705.63896145   -34137.38975183
  entropy T*S    EENTRO =        -0.03936337
  eigenvalues    EBANDS =      -507.16842672
  atomic energy  EATOM  =      5924.76308760
  Solvation  Ediel_sol  =         0.00000000
  ---------------------------------------------------
  free energy    TOTEN  =      -562.02720545 eV

  energy without entropy =     -561.98784208  energy(sigma->0) =     -562.00752376


--------------------------------------------------------------------------------------------------------




--------------------------------------- Iteration      1(   5)  ---------------------------------------


    POTLOK:  cpu time      0.4950: real time      0.5174
    SETDIJ:  cpu time      0.8845: real time      0.8848
    EDDIAG:  cpu time     11.6334: real time     11.6426
     EDDAV:  cpu time     59.1451: real time     59.1991
       DOS:  cpu time      0.0039: real time      0.0038
    CHARGE:  cpu time      4.1913: real time      4.1953
    MIXING:  cpu time      0.0098: real time      0.0098
    --------------------------------------------
      LOOP:  cpu time     76.3629: real time     76.4528

 eigenvalue-minimisations  :  4400
 total energy-change (2. order) :-0.1510621E-01  (-0.1076641E-01)
 number of electron     231.9999999 magnetization 
 augmentation part      -12.6214781 magnetization 

 Broyden mixing:
  rms(total) = 0.44328E-01    rms(broyden)= 0.74116E+00
  rms(prec ) = 0.76519E-01
  weight for this iteration     100.00
  WARNING: grid for Broyden might be to small

 eigenvalues of (default mixing * dielectric matrix)
  average eigenvalue GAMMA=   0.9601
  1.8504  0.8167  0.6194  0.5538

 Free energy of the ion-electron system (eV)
  ---------------------------------------------------
  alpha Z        PSCENC =        72.44906666
  Ewald energy   TEWEN  =     -1937.71527900
  -Hartree energ DENC   =     -4420.29528930
  -exchange      EXHF   =         0.00000000
  -V(xc)+E(xc)   XCENC  =      -263.48990672
  PAW double counting   =     34688.14662611   -34119.88718574
  entropy T*S    EENTRO =        -0.05943639
  eigenvalues    EBANDS =      -505.95399487
  atomic energy  EATOM  =      5924.76308760
  Solvation  Ediel_sol  =         0.00000000
  ---------------------------------------------------
  free energy    TOTEN  =      -562.04231166 eV

  energy without entropy =     -561.98287527  energy(sigma->0) =     -562.01259346


--------------------------------------------------------------------------------------------------------




--------------------------------------- Iteration      1(   6)  ---------------------------------------


    POTLOK:  cpu time      0.4920: real time      0.5180
    SETDIJ:  cpu time      0.8816: real time      0.8827
    EDDIAG:  cpu time     11.6526: real time     11.6625
     EDDAV:  cpu time     55.7164: real time     55.7648
       DOS:  cpu time      0.0040: real time      0.0040
    CHARGE:  cpu time      4.1122: real time      4.1163
    MIXING:  cpu time      0.0096: real time      0.0096
    --------------------------------------------
      LOOP:  cpu time     72.8682: real time     72.9579

 eigenvalue-minimisations  :  3984
 total energy-change (2. order) : 0.4804160E-03  (-0.3121376E-02)
 number of electron     231.9999999 magnetization 
 augmentation part      -12.6216694 magnetization 

 Broyden mixing:
  rms(total) = 0.16385E-01    rms(broyden)= 0.31501E+00
  rms(prec ) = 0.18957E-01
  weight for this iteration     100.00
  WARNING: grid for Broyden might be to small

 eigenvalues of (default mixing * dielectric matrix)
  average eigenvalue GAMMA=   1.0332
  2.4977  0.9496  0.6642  0.6264  0.4282

 Free energy of the ion-electron system (eV)
  ---------------------------------------------------
  alpha Z        PSCENC =        72.44906666
  Ewald energy   TEWEN  =     -1937.71527900
  -Hartree energ DENC   =     -4420.17710814
  -exchange      EXHF   =         0.00000000
  -V(xc)+E(xc)   XCENC  =      -263.70702991
  PAW double counting   =     34507.80751645   -33939.53764073
  entropy T*S    EENTRO =        -0.05223174
  eigenvalues    EBANDS =      -505.87221243
  atomic energy  EATOM  =      5924.76308760
  Solvation  Ediel_sol  =         0.00000000
  ---------------------------------------------------
  free energy    TOTEN  =      -562.04183124 eV

  energy without entropy =     -561.98959950  energy(sigma->0) =     -562.01571537


--------------------------------------------------------------------------------------------------------




--------------------------------------- Iteration      1(   7)  ---------------------------------------


    POTLOK:  cpu time      0.4934: real time      0.5183
    SETDIJ:  cpu time      0.8803: real time      0.8815
    EDDIAG:  cpu time     11.6045: real time     11.6142
     EDDAV:  cpu time     54.6027: real time     54.6498
       DOS:  cpu time      0.0038: real time      0.0038
    CHARGE:  cpu time      4.2610: real time      4.2646
    MIXING:  cpu time      0.0101: real time      0.0101
    --------------------------------------------
      LOOP:  cpu time     71.8558: real time     71.9422

 eigenvalue-minimisations  :  3856
 total energy-change (2. order) :-0.8959591E-03  (-0.6771126E-03)
 number of electron     231.9999999 magnetization 
 augmentation part      -12.6207609 magnetization 

 Broyden mixing:
  rms(total) = 0.80310E-02    rms(broyden)= 0.21576E+00
  rms(prec ) = 0.97364E-02
  weight for this iteration     100.00
  WARNING: grid for Broyden might be to small

 eigenvalues of (default mixing * dielectric matrix)
  average eigenvalue GAMMA=   1.0578
  2.6124  1.2115  0.8268  0.4137  0.6502  0.6325

 Free energy of the ion-electron system (eV)
  ---------------------------------------------------
  alpha Z        PSCENC =        72.44906666
  Ewald energy   TEWEN  =     -1937.71527900
  -Hartree energ DENC   =     -4420.41275068
  -exchange      EXHF   =         0.00000000
  -V(xc)+E(xc)   XCENC  =      -263.67448894
  PAW double counting   =     34492.29491872   -33924.01540484
  entropy T*S    EENTRO =        -0.05252878
  eigenvalues    EBANDS =      -505.67934794
  atomic energy  EATOM  =      5924.76308760
  Solvation  Ediel_sol  =         0.00000000
  ---------------------------------------------------
  free energy    TOTEN  =      -562.04272720 eV

  energy without entropy =     -561.99019842  energy(sigma->0) =     -562.01646281


--------------------------------------------------------------------------------------------------------




--------------------------------------- Iteration      1(   8)  ---------------------------------------


    POTLOK:  cpu time      0.4994: real time      0.5173
    SETDIJ:  cpu time      0.8815: real time      0.8820
    EDDIAG:  cpu time     11.6504: real time     11.6589
     EDDAV:  cpu time     60.5008: real time     60.5544
       DOS:  cpu time      0.0034: real time      0.0034
    CHARGE:  cpu time      4.2564: real time      4.2599
    MIXING:  cpu time      0.0101: real time      0.0101
    --------------------------------------------
      LOOP:  cpu time     77.8020: real time     77.8861

 eigenvalue-minimisations  :  4568
 total energy-change (2. order) :-0.4349806E-03  (-0.1017976E-03)
 number of electron     231.9999999 magnetization 
 augmentation part      -12.6201673 magnetization 

 Broyden mixing:
  rms(total) = 0.24803E-02    rms(broyden)= 0.11251E+00
  rms(prec ) = 0.34453E-02
  weight for this iteration     100.00
  WARNING: grid for Broyden might be to small

 eigenvalues of (default mixing * dielectric matrix)
  average eigenvalue GAMMA=   1.1254
  2.7586  1.6350  1.0352  0.4172  0.7561  0.6473  0.6283

 Free energy of the ion-electron system (eV)
  ---------------------------------------------------
  alpha Z        PSCENC =        72.44906666
  Ewald energy   TEWEN  =     -1937.71527900
  -Hartree energ DENC   =     -4420.56169124
  -exchange      EXHF   =         0.00000000
  -V(xc)+E(xc)   XCENC  =      -263.63347337
  PAW double counting   =     34507.63066280   -33939.34452703
  entropy T*S    EENTRO =        -0.05285701
  eigenvalues    EBANDS =      -505.57815158
  atomic energy  EATOM  =      5924.76308760
  Solvation  Ediel_sol  =         0.00000000
  ---------------------------------------------------
  free energy    TOTEN  =      -562.04316218 eV

  energy without entropy =     -561.99030517  energy(sigma->0) =     -562.01673367


--------------------------------------------------------------------------------------------------------




--------------------------------------- Iteration      1(   9)  ---------------------------------------


    POTLOK:  cpu time      0.4911: real time      0.5140
    SETDIJ:  cpu time      0.8827: real time      0.8833
    EDDIAG:  cpu time     11.6402: real time     11.6498
     EDDAV:  cpu time     57.3095: real time     57.3614
       DOS:  cpu time      0.0033: real time      0.0033
    CHARGE:  cpu time      4.2517: real time      4.2548
    MIXING:  cpu time      0.0101: real time      0.0101
    --------------------------------------------
      LOOP:  cpu time     74.5888: real time     74.6768

 eigenvalue-minimisations  :  4176
 total energy-change (2. order) :-0.5413401E-04  (-0.1490736E-04)
 number of electron     231.9999999 magnetization 
 augmentation part      -12.6202369 magnetization 

 Broyden mixing:
  rms(total) = 0.13401E-02    rms(broyden)= 0.22125E-01
  rms(prec ) = 0.18242E-02
  weight for this iteration     100.00
  WARNING: grid for Broyden might be to small

 eigenvalues of (default mixing * dielectric matrix)
  average eigenvalue GAMMA=   1.2314
  3.1281  2.3133  1.1600  0.8837  0.4171  0.7038  0.6094  0.6356

 Free energy of the ion-electron system (eV)
  ---------------------------------------------------
  alpha Z        PSCENC =        72.44906666
  Ewald energy   TEWEN  =     -1937.71527900
  -Hartree energ DENC   =     -4420.56510895
  -exchange      EXHF   =         0.00000000
  -V(xc)+E(xc)   XCENC  =      -263.64674215
  PAW double counting   =     34516.17370541   -33947.88590299
  entropy T*S    EENTRO =        -0.05289574
  eigenvalues    EBANDS =      -505.56314715
  atomic energy  EATOM  =      5924.76308760
  Solvation  Ediel_sol  =         0.00000000
  ---------------------------------------------------
  free energy    TOTEN  =      -562.04321631 eV

  energy without entropy =     -561.99032057  energy(sigma->0) =     -562.01676844


--------------------------------------------------------------------------------------------------------




--------------------------------------- Iteration      1(  10)  ---------------------------------------


    POTLOK:  cpu time      0.4891: real time      0.5168
    SETDIJ:  cpu time      0.8843: real time      0.8846
    EDDIAG:  cpu time     11.6280: real time     11.6369
     EDDAV:  cpu time     55.8754: real time     55.9252
       DOS:  cpu time      0.0038: real time      0.0038
    CHARGE:  cpu time      4.1443: real time      4.1480
    MIXING:  cpu time      0.0107: real time      0.0107
    --------------------------------------------
      LOOP:  cpu time     73.0354: real time     73.1258

 eigenvalue-minimisations  :  4016
 total energy-change (2. order) :-0.4784242E-04  (-0.5588297E-05)
 number of electron     231.9999999 magnetization 
 augmentation part      -12.6202384 magnetization 

 Broyden mixing:
  rms(total) = 0.57604E-03    rms(broyden)= 0.14057E-01
  rms(prec ) = 0.86519E-03
  weight for this iteration     100.00
  WARNING: grid for Broyden might be to small

 eigenvalues of (default mixing * dielectric matrix)
  average eigenvalue GAMMA=   1.2904
  3.6354  2.5389  1.3087  1.0191  0.4163  0.7878  0.6716  0.6084  0.6273

 Free energy of the ion-electron system (eV)
  ---------------------------------------------------
  alpha Z        PSCENC =        72.44906666
  Ewald energy   TEWEN  =     -1937.71527900
  -Hartree energ DENC   =     -4420.53662061
  -exchange      EXHF   =         0.00000000
  -V(xc)+E(xc)   XCENC  =      -263.65191247
  PAW double counting   =     34513.47062811   -33945.18164556
  entropy T*S    EENTRO =        -0.05274133
  eigenvalues    EBANDS =      -505.58784755
  atomic energy  EATOM  =      5924.76308760
  Solvation  Ediel_sol  =         0.00000000
  ---------------------------------------------------
  free energy    TOTEN  =      -562.04326416 eV

  energy without entropy =     -561.99052282  energy(sigma->0) =     -562.01689349


--------------------------------------------------------------------------------------------------------




--------------------------------------- Iteration      1(  11)  ---------------------------------------


    POTLOK:  cpu time      0.4910: real time      0.5198
    SETDIJ:  cpu time      0.8841: real time      0.8844
    EDDIAG:  cpu time     11.6416: real time     11.6514
     EDDAV:  cpu time     54.7960: real time     54.8467
       DOS:  cpu time      0.0046: real time      0.0046
    CHARGE:  cpu time      4.1892: real time      4.1923
    MIXING:  cpu time      0.0104: real time      0.0104
    --------------------------------------------
      LOOP:  cpu time     72.0169: real time     72.1095

 eigenvalue-minimisations  :  3872
 total energy-change (2. order) :-0.3115787E-04  (-0.2671656E-05)
 number of electron     231.9999999 magnetization 
 augmentation part      -12.6202637 magnetization 

 Broyden mixing:
  rms(total) = 0.28358E-03    rms(broyden)= 0.12242E-01
  rms(prec ) = 0.49759E-03
  weight for this iteration     100.00
  WARNING: grid for Broyden might be to small

 eigenvalues of (default mixing * dielectric matrix)
  average eigenvalue GAMMA=   1.2783
  3.7767  2.5783  1.4161  1.0754  0.9047  0.4163  0.7331  0.6486  0.6170  0.6170

 Free energy of the ion-electron system (eV)
  ---------------------------------------------------
  alpha Z        PSCENC =        72.44906666
  Ewald energy   TEWEN  =     -1937.71527900
  -Hartree energ DENC   =     -4420.50002907
  -exchange      EXHF   =         0.00000000
  -V(xc)+E(xc)   XCENC  =      -263.65619427
  PAW double counting   =     34512.41454395   -33944.12504880
  entropy T*S    EENTRO =        -0.05277477
  eigenvalues    EBANDS =      -505.62066761
  atomic energy  EATOM  =      5924.76308760
  Solvation  Ediel_sol  =         0.00000000
  ---------------------------------------------------
  free energy    TOTEN  =      -562.04329531 eV

  energy without entropy =     -561.99052054  energy(sigma->0) =     -562.01690793


--------------------------------------------------------------------------------------------------------




--------------------------------------- Iteration      1(  12)  ---------------------------------------


    POTLOK:  cpu time      0.4875: real time      0.5135
    SETDIJ:  cpu time      0.8832: real time      0.8835
    EDDIAG:  cpu time     11.5741: real time     11.5828
     EDDAV:  cpu time     55.8334: real time     55.8832
       DOS:  cpu time      0.0040: real time      0.0040
    CHARGE:  cpu time      4.1771: real time      4.1804
    MIXING:  cpu time      0.0109: real time      0.0109
    --------------------------------------------
      LOOP:  cpu time     72.9702: real time     73.0584

 eigenvalue-minimisations  :  4000
 total energy-change (2. order) :-0.1576069E-04  (-0.1033974E-05)
 number of electron     231.9999999 magnetization 
 augmentation part      -12.6202949 magnetization 

 Broyden mixing:
  rms(total) = 0.18202E-03    rms(broyden)= 0.98996E-02
  rms(prec ) = 0.38344E-03
  weight for this iteration     100.00
  WARNING: grid for Broyden might be to small

 eigenvalues of (default mixing * dielectric matrix)
  average eigenvalue GAMMA=   1.2898
  3.8497  2.5980  1.6455  1.2135  1.0421  0.8443  0.4163  0.7113  0.6297  0.6297
  0.6078

 Free energy of the ion-electron system (eV)
  ---------------------------------------------------
  alpha Z        PSCENC =        72.44906666
  Ewald energy   TEWEN  =     -1937.71527900
  -Hartree energ DENC   =     -4420.46172799
  -exchange      EXHF   =         0.00000000
  -V(xc)+E(xc)   XCENC  =      -263.66043376
  PAW double counting   =     34512.54228122   -33944.25286859
  entropy T*S    EENTRO =        -0.05279347
  eigenvalues    EBANDS =      -505.65464374
  atomic energy  EATOM  =      5924.76308760
  Solvation  Ediel_sol  =         0.00000000
  ---------------------------------------------------
  free energy    TOTEN  =      -562.04331107 eV

  energy without entropy =     -561.99051761  energy(sigma->0) =     -562.01691434


--------------------------------------------------------------------------------------------------------




--------------------------------------- Iteration      1(  13)  ---------------------------------------


    POTLOK:  cpu time      0.4917: real time      0.5169
    SETDIJ:  cpu time      0.8835: real time      0.8841
    EDDIAG:  cpu time     11.5557: real time     11.5653
     EDDAV:  cpu time     50.7779: real time     50.8237
       DOS:  cpu time      0.0031: real time      0.0031
    CHARGE:  cpu time      4.1378: real time      4.1415
    MIXING:  cpu time      0.0110: real time      0.0110
    --------------------------------------------
      LOOP:  cpu time     67.8607: real time     67.9456

 eigenvalue-minimisations  :  3384
 total energy-change (2. order) :-0.8218158E-05  (-0.4538136E-06)
 number of electron     231.9999999 magnetization 
 augmentation part      -12.6203139 magnetization 

 Broyden mixing:
  rms(total) = 0.99677E-04    rms(broyden)= 0.33017E-02
  rms(prec ) = 0.21250E-03
  weight for this iteration     100.00
  WARNING: grid for Broyden might be to small

 eigenvalues of (default mixing * dielectric matrix)
  average eigenvalue GAMMA=   1.3229
  3.9248  2.5673  2.3154  1.3269  1.1022  0.9193  0.4163  0.7758  0.6773  0.6390
  0.6223  0.5883

 Free energy of the ion-electron system (eV)
  ---------------------------------------------------
  alpha Z        PSCENC =        72.44906666
  Ewald energy   TEWEN  =     -1937.71527900
  -Hartree energ DENC   =     -4420.43390006
  -exchange      EXHF   =         0.00000000
  -V(xc)+E(xc)   XCENC  =      -263.66330701
  PAW double counting   =     34512.31843398   -33944.02914663
  entropy T*S    EENTRO =        -0.05276794
  eigenvalues    EBANDS =      -505.67950688
  atomic energy  EATOM  =      5924.76308760
  Solvation  Ediel_sol  =         0.00000000
  ---------------------------------------------------
  free energy    TOTEN  =      -562.04331929 eV

  energy without entropy =     -561.99055135  energy(sigma->0) =     -562.01693532


--------------------------------------------------------------------------------------------------------




--------------------------------------- Iteration      1(  14)  ---------------------------------------


    POTLOK:  cpu time      0.5142: real time      0.5150
    SETDIJ:  cpu time      0.8840: real time      0.8844
    EDDIAG:  cpu time     11.5926: real time     11.6015
     EDDAV:  cpu time     52.7447: real time     52.7902
       DOS:  cpu time      0.0037: real time      0.0037
    CHARGE:  cpu time      4.1093: real time      4.1130
    MIXING:  cpu time      0.0109: real time      0.0109
    --------------------------------------------
      LOOP:  cpu time     69.8593: real time     69.9187

 eigenvalue-minimisations  :  3632
 total energy-change (2. order) :-0.6951501E-05  (-0.5221803E-06)
 number of electron     231.9999999 magnetization 
 augmentation part      -12.6203184 magnetization 

 Broyden mixing:
  rms(total) = 0.95004E-04    rms(broyden)= 0.34296E-02
  rms(prec ) = 0.17110E-03
  weight for this iteration     100.00
  WARNING: grid for Broyden might be to small

 eigenvalues of (default mixing * dielectric matrix)
  average eigenvalue GAMMA=   1.3166
  3.9517  2.5561  2.5561  1.3551  1.1633  1.0132  0.8577  0.4163  0.7387  0.6710
  0.6333  0.6197  0.5843

 Free energy of the ion-electron system (eV)
  ---------------------------------------------------
  alpha Z        PSCENC =        72.44906666
  Ewald energy   TEWEN  =     -1937.71527900
  -Hartree energ DENC   =     -4420.40599560
  -exchange      EXHF   =         0.00000000
  -V(xc)+E(xc)   XCENC  =      -263.66386804
  PAW double counting   =     34512.08540458   -33943.79625974
  entropy T*S    EENTRO =        -0.05275107
  eigenvalues    EBANDS =      -505.70673164
  atomic energy  EATOM  =      5924.76308760
  Solvation  Ediel_sol  =         0.00000000
  ---------------------------------------------------
  free energy    TOTEN  =      -562.04332624 eV

  energy without entropy =     -561.99057518  energy(sigma->0) =     -562.01695071


--------------------------------------------------------------------------------------------------------




--------------------------------------- Iteration      1(  15)  ---------------------------------------


    POTLOK:  cpu time      0.4931: real time      0.5189
    SETDIJ:  cpu time      0.8843: real time      0.8846
    EDDIAG:  cpu time     11.5934: real time     11.6026
     EDDAV:  cpu time     47.6390: real time     47.6821
       DOS:  cpu time      0.0032: real time      0.0032
    CHARGE:  cpu time      4.1094: real time      4.1126
    MIXING:  cpu time      0.0112: real time      0.0112
    --------------------------------------------
      LOOP:  cpu time     64.7336: real time     64.8152

 eigenvalue-minimisations  :  3000
 total energy-change (2. order) :-0.1736960E-05  (-0.1238870E-06)
 number of electron     231.9999999 magnetization 
 augmentation part      -12.6203218 magnetization 

 Broyden mixing:
  rms(total) = 0.37563E-04    rms(broyden)= 0.18555E-02
  rms(prec ) = 0.70119E-04
  weight for this iteration     100.00
  WARNING: grid for Broyden might be to small

 eigenvalues of (default mixing * dielectric matrix)
  average eigenvalue GAMMA=   1.3273
  3.9614  2.6492  2.6492  1.5058  1.3525  1.0719  0.9404  0.4163  0.8202  0.7229
  0.6490  0.6254  0.6254  0.5929

 Free energy of the ion-electron system (eV)
  ---------------------------------------------------
  alpha Z        PSCENC =        72.44906666
  Ewald energy   TEWEN  =     -1937.71527900
  -Hartree energ DENC   =     -4420.39375664
  -exchange      EXHF   =         0.00000000
  -V(xc)+E(xc)   XCENC  =      -263.66430119
  PAW double counting   =     34512.40014563   -33944.11109197
  entropy T*S    EENTRO =        -0.05276391
  eigenvalues    EBANDS =      -505.71843516
  atomic energy  EATOM  =      5924.76308760
  Solvation  Ediel_sol  =         0.00000000
  ---------------------------------------------------
  free energy    TOTEN  =      -562.04332798 eV

  energy without entropy =     -561.99056407  energy(sigma->0) =     -562.01694603


--------------------------------------------------------------------------------------------------------




--------------------------------------- Iteration      1(  16)  ---------------------------------------


    POTLOK:  cpu time      0.5148: real time      0.5159
    SETDIJ:  cpu time      0.8927: real time      0.8928
    EDDIAG:  cpu time     11.5990: real time     11.6085
     EDDAV:  cpu time     44.0234: real time     44.0622
       DOS:  cpu time      0.0030: real time      0.0030
    --------------------------------------------
      LOOP:  cpu time     57.0334: real time     57.0830

 eigenvalue-minimisations  :  2552
 total energy-change (2. order) :-0.8451389E-06  (-0.7129813E-07)
 number of electron     231.9999999 magnetization 
 augmentation part      -12.6203218 magnetization 

 Free energy of the ion-electron system (eV)
  ---------------------------------------------------
  alpha Z        PSCENC =        72.44906666
  Ewald energy   TEWEN  =     -1937.71527900
  -Hartree energ DENC   =     -4420.38519442
  -exchange      EXHF   =         0.00000000
  -V(xc)+E(xc)   XCENC  =      -263.66433336
  PAW double counting   =     34512.43478936   -33944.14574515
  entropy T*S    EENTRO =        -0.05277011
  eigenvalues    EBANDS =      -505.72695041
  atomic energy  EATOM  =      5924.76308760
  Solvation  Ediel_sol  =         0.00000000
  ---------------------------------------------------
  free energy    TOTEN  =      -562.04332883 eV

  energy without entropy =     -561.99055872  energy(sigma->0) =     -562.01694377


--------------------------------------------------------------------------------------------------------




 average (electrostatic) potential at core
  the test charge radii are     0.5201  0.9892
  (the norm of the test charge is              1.0000)
       1 -35.5947       2 -35.2189       3 -35.4512       4 -35.2601       5 -89.0660
       6 -89.1016       7 -89.3685       8 -89.3852       9 -88.7330      10 -88.8355
      11 -89.1871      12 -89.4273      13 -89.2597      14 -89.2753      15 -89.1764
      16 -89.0540      17 -88.7359      18 -89.7034      19 -89.4896      20 -88.8424
      21 -88.9147      22 -88.9600      23 -89.2433      24 -89.2484      25 -89.4393
      26 -89.1487      27 -89.1184      28 -89.1699      29 -88.7869      30 -89.2917
      31 -89.1871      32 -89.2167      33 -88.8215      34 -88.8366      35 -89.2094
      36 -89.0231      37 -89.0419      38 -88.9369      39 -89.3889      40 -88.8386
      41 -89.0786      42 -89.1855      43 -88.8678      44 -89.0452      45 -89.3512
      46 -89.3558      47 -89.2897      48 -89.1327      49 -89.3522      50 -89.2539
      51 -89.1370      52 -89.3169      53 -89.0561      54 -89.0250      55 -89.1973
      56 -89.2921      57 -89.1681      58 -89.2992      59 -89.2166      60 -89.0294
      61 -89.1949



 E-fermi :   3.0131     XC(G=0):  -7.9027     alpha+bet : -8.7931

 WARNING: Could not determine fundamental gap because eigenvalues are not
     sorted.

 Fermi energy:         3.0131321310

 k-point     1 :       0.0000    0.0000    0.0000
  band No.  band energies     occupation 
      1      -9.5069      2.00000
      2      -9.2223      2.00000
      3      -8.9075      2.00000
      4      -8.7005      2.00000
      5      -8.5430      2.00000
      6      -8.1466      2.00000
      7      -7.7410      2.00000
      8      -7.5081      2.00000
      9      -7.3741      2.00000
     10      -7.3269      2.00000
     11      -7.3101      2.00000
     12      -7.0884      2.00000
     13      -7.0157      2.00000
     14      -6.9859      2.00000
     15      -6.8135      2.00000
     16      -6.7751      2.00000
     17      -6.6662      2.00000
     18      -6.5287      2.00000
     19      -6.5031      2.00000
     20      -6.2347      2.00000
     21      -6.1850      2.00000
     22      -6.1586      2.00000
     23      -5.9277      2.00000
     24      -5.7984      2.00000
     25      -5.5948      2.00000
     26      -5.4943      2.00000
     27      -5.3754      2.00000
     28      -5.3315      2.00000
     29      -5.2599      2.00000
     30      -5.0857      2.00000
     31      -4.8142      2.00000
     32      -4.6938      2.00000
     33      -4.6284      2.00000
     34      -4.4952      2.00000
     35      -4.3982      2.00000
     36      -4.3195      2.00000
     37      -4.1899      2.00000
     38      -3.9989      2.00000
     39      -3.8763      2.00000
     40      -3.6525      2.00000
     41      -3.6465      2.00000
     42      -3.5215      2.00000
     43      -3.4003      2.00000
     44      -3.1754      2.00000
     45      -3.1129      2.00000
     46      -2.8859      2.00000
     47      -2.8570      2.00000
     48      -2.6898      2.00000
     49      -2.5567      2.00000
     50      -2.4379      2.00000
     51      -2.4019      2.00000
     52      -2.1316      2.00000
[...]
  Local   -1858.44013  -253.88661 -8867.18016   -22.77198   -86.70078    40.74769
  n-local  2132.50196  2128.36201  2137.04090     2.90945    11.00575   -10.68106
  augment  -309.84285  -309.43703  -311.19375    -0.39330    -0.62395     0.58935
  Kinetic  1618.48885  1621.44840  1639.75763     3.70111    -4.08303     5.12074
  Fock        0.00000     0.00000     0.00000     0.00000     0.00000     0.00000
  -------------------------------------------------------------------------------------
  Total     -18.56142   -18.03366    -5.32271     3.43420     4.75481    -2.58850
  in kB     -18.97420   -18.43469    -5.44107     3.51057     4.86055    -2.64607
  external pressure =      -14.28 kB  Pullay stress =        0.00 kB


 VOLUME and BASIS-vectors are now :
 -----------------------------------------------------------------------------
  energy-cutoff  :     1200.00
  volume of cell :     1567.32
      direct lattice vectors                 reciprocal lattice vectors
    14.534204238  0.000000000  0.000000000     0.068803216  0.000000000  0.000000000
     0.000000000 14.534204238  0.000000000     0.000000000  0.068803216  0.000000000
     0.000000000  0.000000000  7.419522110     0.000000000  0.000000000  0.134779570

  length of vectors
    14.534204238 14.534204238  7.419522110     0.068803216  0.068803216  0.134779570


 FORCES acting on ions
    electron-ion (+dipol)            ewald-force                    non-local-force                 convergence-correction
 -----------------------------------------------------------------------------------------------
   -.523E+02 0.219E+02 -.205E+01   0.555E+02 -.234E+02 0.230E+01   -.294E+01 0.132E+01 -.119E+00   -.504E-04 0.102E-03 0.145E-05
   0.367E+02 0.375E+02 0.192E+01   -.383E+02 -.398E+02 -.203E+01   0.160E+01 0.256E+01 -.116E+00   0.584E-04 0.796E-04 0.111E-05
   0.459E+02 0.238E+02 -.402E+01   -.487E+02 -.239E+02 0.378E+01   0.274E+01 0.202E+00 0.289E+00   -.227E-04 0.650E-04 0.378E-05
   0.309E+02 -.463E+02 -.314E+01   -.318E+02 0.493E+02 0.340E+01   0.737E+00 -.285E+01 -.818E+00   0.391E-04 -.271E-04 -.600E-06
   0.366E+01 -.281E+02 0.767E+00   -.323E+01 0.266E+02 -.158E+01   -.621E+00 0.152E+01 0.130E+01   0.984E-04 -.155E-03 0.357E-04
   -.373E+02 -.414E+02 0.910E+01   0.365E+02 0.388E+02 -.830E+01   0.787E+00 0.225E+01 -.129E+01   0.107E-03 -.254E-03 -.508E-04
   -.324E+02 0.102E+03 -.325E-01   0.328E+02 -.101E+03 -.760E+00   -.105E+01 -.397E+00 0.102E+01   -.318E-03 -.154E-03 -.740E-04
   0.327E+00 -.116E+03 0.128E+02   -.152E+01 0.115E+03 -.120E+02   0.148E+01 0.439E+00 -.175E+00   -.148E-03 -.374E-03 -.413E-04
   0.675E+02 0.570E+02 -.103E+02   -.680E+02 -.571E+02 0.102E+02   0.228E-01 -.162E+01 0.103E+00   -.898E-04 0.277E-03 0.117E-04
   -.167E+02 -.809E+01 0.268E+01   0.161E+02 0.890E+01 -.276E+01   0.446E+00 -.201E+00 -.603E+00   0.149E-03 -.149E-03 -.252E-04
   0.480E+02 -.107E+03 -.229E+02   -.481E+02 0.105E+03 0.208E+02   0.164E+01 0.217E+01 0.170E+01   0.126E-04 -.192E-03 0.273E-04
   -.510E+02 -.939E+02 0.399E+01   0.522E+02 0.925E+02 -.291E+01   -.270E+01 0.201E+01 -.173E+01   0.149E-04 -.293E-03 -.345E-05
   -.938E+02 0.119E+03 0.153E+02   0.944E+02 -.120E+03 -.162E+02   0.275E+00 0.559E+00 0.747E+00   0.904E-04 0.604E-04 -.125E-03
   0.173E+02 -.145E+03 -.134E+02   -.187E+02 0.142E+03 0.126E+02   0.138E+01 0.283E+01 0.216E+01   0.390E-04 -.269E-03 -.922E-05
   -.990E+02 -.476E+02 -.196E+02   0.958E+02 0.492E+02 0.183E+02   0.306E+01 -.106E+01 0.710E+00   0.498E-04 -.341E-03 0.519E-04
   0.525E+02 0.512E+02 0.207E+02   -.522E+02 -.484E+02 -.202E+02   0.202E+00 -.277E+01 -.558E+00   -.311E-04 0.171E-04 -.476E-05
   0.262E+01 0.404E+02 -.215E+02   -.362E+01 -.423E+02 0.184E+02   0.237E+01 0.289E+01 0.325E+01   0.902E-04 0.176E-03 0.560E-05
   -.154E+03 -.131E+01 0.543E+01   0.155E+03 0.108E+01 -.444E+01   -.400E+00 0.130E+01 -.656E+00   -.129E-03 0.258E-03 -.677E-04
   -.863E+02 0.788E+01 -.107E+02   0.865E+02 -.685E+01 0.112E+02   0.539E+00 -.166E+01 -.546E+00   -.774E-04 0.229E-03 0.247E-03
   0.195E+02 -.204E+02 0.976E+01   -.212E+02 0.194E+02 -.106E+02   0.220E+01 0.757E+00 0.114E+01   0.153E-04 -.953E-04 0.200E-04
   -.383E+02 0.492E+02 0.516E+01   0.386E+02 -.487E+02 -.300E+01   -.110E+01 -.106E+01 -.219E+01   0.256E-03 0.275E-03 0.508E-04
   0.715E+02 0.810E+02 -.153E+02   -.698E+02 -.813E+02 0.142E+02   -.220E+01 -.850E-01 0.220E+01   -.949E-04 -.424E-05 0.608E-04
   0.362E+02 -.117E+03 0.997E+01   -.355E+02 0.116E+03 -.950E+01   0.692E-02 0.978E+00 -.796E+00   -.423E-05 -.267E-03 -.964E-05
   -.116E+03 0.574E+02 -.381E+01   0.118E+03 -.591E+02 0.343E+01   -.177E+01 0.160E+01 -.266E+00   -.190E-04 0.456E-03 -.473E-05
   -.794E+02 -.653E+02 0.134E+02   0.780E+02 0.661E+02 -.130E+02   0.173E+01 -.288E+00 -.959E+00   0.297E-04 -.261E-03 -.665E-04
   -.270E+02 0.650E+01 -.334E+00   0.267E+02 -.459E+01 0.757E+00   -.121E+00 -.100E+01 -.928E+00   0.194E-03 -.228E-03 0.725E-05
   0.800E+02 -.111E+03 0.200E+02   -.801E+02 0.114E+03 -.182E+02   -.808E+00 -.177E+01 -.922E+00   0.376E-04 -.216E-03 -.299E-05
   -.680E+02 0.840E+02 -.958E+01   0.678E+02 -.809E+02 0.909E+01   -.356E-01 -.275E+01 0.159E+01   0.272E-04 -.517E-04 -.284E-04
   0.560E+02 0.643E+02 0.125E+00   -.556E+02 -.636E+02 0.202E+01   -.894E+00 -.148E+01 -.319E+01   -.633E-04 0.350E-04 -.110E-06
   0.245E+02 -.478E+02 0.106E+02   -.248E+02 0.481E+02 -.915E+01   0.638E+00 -.303E+00 -.845E+00   0.361E-04 -.190E-03 -.369E-04
   0.876E+02 0.746E+02 0.462E+01   -.865E+02 -.738E+02 -.528E+01   -.755E+00 -.460E+00 0.885E+00   -.418E-04 0.219E-03 -.140E-04
   0.103E+03 0.116E+03 0.276E+02   -.104E+03 -.116E+03 -.238E+02   0.204E+01 -.362E+00 -.356E+01   0.450E-04 0.313E-03 0.338E-04
   0.120E+02 -.281E+02 -.253E+01   -.131E+02 0.293E+02 0.330E+01   0.523E+00 -.187E+01 -.749E+00   0.348E-04 -.227E-03 0.287E-04
   0.111E+03 0.122E+03 -.489E+02   -.113E+03 -.124E+03 0.496E+02   0.254E+01 0.310E+01 -.238E+00   -.731E-04 0.222E-03 0.885E-04
   0.377E+02 0.436E+02 0.270E+02   -.382E+02 -.419E+02 -.252E+02   0.297E+00 -.312E+00 -.238E+01   -.170E-03 0.182E-03 -.436E-04
   0.236E+02 -.166E+02 -.397E+01   -.215E+02 0.170E+02 0.490E+01   -.196E+01 -.101E+01 -.278E+00   0.974E-04 -.147E-03 -.194E-04
   -.310E+01 0.759E+02 -.842E+01   0.228E+01 -.754E+02 0.744E+01   0.123E+01 0.726E-01 -.342E+00   -.170E-03 -.169E-03 0.796E-04
   0.424E+02 0.193E+02 -.222E+02   -.447E+02 -.204E+02 0.203E+02   0.309E+01 0.211E+01 0.270E+01   -.254E-04 -.664E-04 -.101E-04
   0.887E+02 0.105E+03 0.527E+02   -.873E+02 -.106E+03 -.483E+02   -.155E+01 0.101E+00 -.435E+01   -.839E-04 0.129E-03 -.306E-04
   0.396E+02 -.315E+02 0.150E+02   -.390E+02 0.300E+02 -.150E+02   -.141E+01 0.298E+01 0.449E+00   -.845E-04 -.179E-03 0.158E-04
   0.831E+02 -.706E+02 -.360E+02   -.807E+02 0.705E+02 0.338E+02   -.300E+01 -.102E+00 0.187E+01   -.207E-05 -.147E-03 0.222E-04
   -.131E+02 -.970E+02 -.623E+00   0.138E+02 0.965E+02 0.223E+01   0.141E-01 0.870E+00 -.177E+01   -.974E-04 -.332E-03 0.255E-04
   0.431E+02 -.147E+02 -.102E+02   -.417E+02 0.144E+02 0.107E+02   -.191E+01 0.726E+00 -.165E+00   -.617E-04 -.168E-03 -.474E-06
   -.153E+02 0.626E+02 -.721E+01   0.168E+02 -.633E+02 0.756E+01   -.145E+01 0.159E+00 0.403E-01   -.101E-03 -.150E-03 0.265E-04
   0.111E+02 -.123E+02 -.610E+00   -.960E+01 0.117E+02 0.165E+01   -.153E+01 0.336E+00 -.222E+01   -.781E-04 -.229E-03 -.187E-04
   0.162E+02 -.183E+03 -.249E+00   -.161E+02 0.182E+03 -.644E+00   -.436E+00 0.542E+00 0.252E+00   -.636E-04 -.337E-03 -.589E-04
   -.102E+03 -.490E+02 -.341E+02   0.100E+03 0.483E+02 0.342E+02   0.255E+01 0.148E+01 0.132E+01   -.115E-04 -.206E-03 0.942E-04
   0.199E+02 0.520E+02 0.487E+01   -.190E+02 -.529E+02 -.649E+01   -.765E+00 0.386E+00 0.129E+01   0.507E-04 0.171E-03 -.211E-05
   -.974E+02 0.524E+02 -.145E+01   0.966E+02 -.507E+02 0.171E+01   0.138E+00 -.243E+01 0.222E+00   0.106E-03 0.541E-03 -.115E-03
   -.715E+01 0.113E+03 0.887E+01   0.604E+01 -.110E+03 -.797E+01   0.109E+01 -.301E+01 -.114E+01   -.139E-03 -.707E-04 -.882E-04
   -.113E+03 -.455E+02 0.278E+02   0.109E+03 0.446E+02 -.269E+02   0.366E+01 -.114E+00 -.184E+01   -.170E-04 -.382E-03 -.879E-04
   -.999E+02 0.932E+02 0.275E+01   0.980E+02 -.919E+02 -.326E+01   0.202E+01 -.115E+01 0.128E+01   0.209E-03 0.385E-03 -.273E-03
   0.644E+02 -.692E+02 0.323E+02   -.630E+02 0.679E+02 -.311E+02   -.242E+00 0.172E+01 -.141E+01   -.996E-05 -.217E-03 -.484E-05
   -.259E+02 0.514E+02 0.101E+02   0.260E+02 -.510E+02 -.811E+01   -.186E+01 -.624E+00 -.209E+01   0.254E-03 0.135E-03 -.562E-04
   0.714E+02 -.297E+02 -.295E+02   -.700E+02 0.302E+02 0.293E+02   -.224E+01 -.175E+01 0.260E+00   -.101E-03 -.725E-04 0.756E-04
   -.628E+02 -.606E+02 -.631E+01   0.623E+02 0.580E+02 0.574E+01   0.143E+01 0.124E+01 0.325E+00   0.792E-04 -.320E-03 0.388E-04
   0.466E+01 -.101E+03 -.881E+01   -.626E+01 0.996E+02 0.762E+01   0.138E+01 0.579E+00 0.136E+01   -.836E-04 -.315E-03 0.576E-04
   -.254E+02 -.259E+02 0.278E+01   0.261E+02 0.277E+02 -.329E+01   -.946E+00 -.165E+01 0.113E+01   0.535E-04 -.377E-03 -.553E-04
   0.614E+02 -.334E+02 0.284E+02   -.591E+02 0.324E+02 -.280E+02   -.279E+01 -.261E+00 -.566E+00   -.189E-03 -.495E-04 0.820E-05
   0.707E+02 0.261E+02 -.195E+02   -.715E+02 -.260E+02 0.179E+02   0.105E+01 0.927E-01 0.171E+01   -.824E-04 0.149E-03 0.266E-04
   -.764E+02 0.454E+02 0.324E+00   0.747E+02 -.472E+02 -.622E+00   0.202E+01 0.231E+01 -.376E+00   0.293E-03 -.813E-04 0.261E-03
 -----------------------------------------------------------------------------------------------
   -.945E+01 -.781E+01 0.890E+01   0.568E-13 0.156E-12 0.321E-13   0.945E+01 0.781E+01 -.889E+01   -.166E-03 -.329E-02 -.227E-04


 POSITION                                       TOTAL-FORCE (eV/Angst)
 -----------------------------------------------------------------------------------
      2.74513     11.30480      0.84065         0.282489     -0.177726      0.127539
      8.23640     11.46310      1.74856         0.014079      0.279415     -0.234950
     10.39920     12.17490      4.84897        -0.064697      0.095286      0.049694
      9.02800      7.97759      4.49361        -0.142193      0.165552     -0.557550
     13.10880      3.43369      2.09168        -0.261730      0.087093      0.535203
      1.68675      3.36796      0.54961         0.036706     -0.334186     -0.552966
      4.47552      1.49668      5.58428        -0.760490      0.155332      0.242020
      4.98950      4.80371      5.80784         0.403512     -0.002241      0.584921
     11.89810     12.20860      5.04414        -0.531108     -1.848892      0.013036
     14.00030      2.64665      0.11443        -0.034088      0.585739     -0.709797
      9.31144      5.73974      6.39144         1.642135      0.100944     -0.282190
      2.15713      4.95366      2.33929        -1.686431      0.689928     -0.774190
      2.65946      0.00850      5.10441         0.789633      0.053129      0.037824
      7.60217      5.67434      0.50566         0.020040      0.258510      1.475006
      0.42541      6.46803      5.57365        -0.008740      0.521312     -0.680876
     10.48800      1.02846      0.74599         0.543923     -0.158061     -0.109041
     12.69200     14.26820      5.07349         1.498759      1.150935      0.279781
      1.07021     10.32520      4.47763        -0.391297      1.103995      0.277577
      0.11301     10.60700      6.69906         0.821992     -0.764829     -0.058522
     11.02000      2.41846      2.48772         0.528609     -0.309845      0.401706
     14.06800     14.17110      3.20390        -0.908953     -0.717211     -0.128456
      7.85172      1.21565      2.94730        -0.593406     -0.355984      1.263249
      7.92996      5.31699      2.84757         0.730575     -0.733934     -0.364984
      1.40575     11.90800      0.76899         0.016929      0.049759     -0.679275
      0.35920      6.81533      1.95025         0.366463      0.567919     -0.579062
     14.40110      2.84212      4.08291        -0.445222      0.925780     -0.582495
      9.39848      6.57121      4.15941        -0.959598      0.778374      0.913264
      2.41963      1.24229      1.23925        -0.289592      0.222155      1.203573
     10.76090      0.70784      4.21256        -0.450979     -0.858660     -1.150556
     12.66400      5.78975      1.71079         0.340029     -0.031519      0.571933
     11.40480     12.01770      1.45911         0.424093      0.350807      0.235567
      9.04403     12.73420      1.72233         0.377252     -0.779154      0.013446
     12.76180      5.72479      5.46882        -0.547544     -0.770619     -0.015156
      8.84381     13.63410      3.86949         0.620037      1.752735      0.193706
     12.68430     10.89990      3.24775        -0.143834      1.401136     -0.608018
     12.70070      3.36210      5.66327         0.113760     -0.699627      0.644329
      5.73828      2.08439      3.76684         0.441903      0.629476     -1.384208
     10.59760      1.95986      6.03925         0.967549      1.133813      0.884419
      8.21134      0.27106      0.87980        -0.138527     -0.152185     -0.034915
      9.03982      3.17565      3.24131        -0.856493      1.634087      0.540345
     11.53730      6.63535      7.20720        -0.685622     -0.300282     -0.296978
      4.37194      4.61961      1.90022         0.684360      0.391248     -0.234724
      8.98969      3.51806      5.61111        -0.571297      0.484961      0.362404
      4.53736      2.21577      1.70191        -0.060115     -0.497213      0.370546
      7.00653      3.66303      7.02926        -0.120025     -0.259423     -1.368269
      5.32976      6.11298      0.30366        -0.183474     -0.490509     -0.649742
      0.16054      8.05089      7.21853         0.347187      0.784021      1.436432
     12.49990     14.20430      1.31984         0.101221     -0.568786     -0.262661
      0.36838     11.99840      2.86446        -0.781426     -0.895722      0.461134
      6.01599      1.63881      0.02591        -0.020837     -0.596622     -0.296149
      0.36777      8.17415      3.95228         0.041488     -1.059181     -0.995386
      1.65513     14.04950      7.13410         0.216491      0.196867      0.849822
     11.62700      6.62449      3.65382         1.163435      0.557182     -0.275644
     14.05880      0.34934      7.04555        -1.852960     -0.305201     -0.188958
     12.53520      8.76010      6.60041        -0.864066     -1.303369      0.054614
      1.36847      4.61513      4.54617         1.012342     -1.256230     -0.245402
      5.87769      4.57226      3.68228        -0.166915     -0.581129      0.226817
      3.04934      3.51897      5.85259        -0.275370      0.116247      0.702154
     12.69770      8.80534      4.21567        -0.553092     -1.221508     -0.153211
     12.24600     10.98450      6.96854         0.457773      0.240237      0.173244
      1.31098      1.00858      3.47713         0.345356      0.565874     -0.670974
 -----------------------------------------------------------------------------------
    total drift:                                0.000329     -0.006717      0.011467


--------------------------------------------------------------------------------------------------------



  FREE ENERGIE OF THE ION-ELECTRON SYSTEM (eV)
  ---------------------------------------------------
  free  energy   TOTEN  =      -562.04332883 eV

  energy  without entropy=     -561.99055872  energy(sigma->0) =     -562.01694377



--------------------------------------------------------------------------------------------------------


    POTLOK:  cpu time      1.3665: real time      1.3674


--------------------------------------------------------------------------------------------------------


     LOOP+:  cpu time   1231.3955: real time   1232.7658
    4ORBIT:  cpu time      0.0000: real time      0.0000



 total charge

# of ion       s       p       d       tot
------------------------------------------
    1        0.575   0.016   0.000   0.591
    2        0.562   0.014   0.000   0.577
    3        0.559   0.016   0.000   0.576
    4        0.568   0.015   0.000   0.583
    5        0.751   0.921   0.000   1.672
    6        0.756   0.895   0.000   1.652
    7        0.757   0.894   0.000   1.651
    8        0.770   0.893   0.000   1.663
    9        0.756   1.004   0.000   1.760
   10        0.750   0.950   0.000   1.699
   11        0.751   0.913   0.000   1.664
   12        0.751   0.894   0.000   1.645
   13        0.783   0.864   0.000   1.647
   14        0.758   0.955   0.000   1.712
   15        0.748   0.973   0.000   1.720
   16        0.755   0.926   0.000   1.680
   17        0.753   0.984   0.000   1.737
   18        0.798   0.811   0.000   1.609
   19        0.763   0.859   0.000   1.622
   20        0.757   0.961   0.000   1.717
   21        0.758   0.950   0.000   1.708
   22        0.759   0.915   0.000   1.674
   23        0.746   0.929   0.000   1.675
   24        0.742   0.965   0.000   1.707
   25        0.758   0.836   0.000   1.594
   26        0.761   0.896   0.000   1.656
   27        0.739   0.979   0.000   1.718
   28        0.753   0.898   0.000   1.651
   29        0.767   0.922   0.000   1.690
   30        0.747   0.899   0.000   1.646
   31        0.757   0.881   0.000   1.639
   32        0.750   0.912   0.000   1.662
   33        0.754   0.969   0.000   1.723
   34        0.836   0.772   0.000   1.608
   35        0.758   0.901   0.000   1.659
   36        0.759   0.891   0.000   1.649
   37        0.759   0.913   0.000   1.672
   38        0.763   0.948   0.000   1.711
   39        0.785   0.847   0.000   1.632
   40        0.758   0.947   0.000   1.706
   41        0.760   0.900   0.000   1.660
   42        0.761   0.935   0.000   1.696
   43        0.762   0.932   0.000   1.694
   44        0.759   0.922   0.000   1.681
   45        0.777   0.888   0.000   1.665
   46        0.816   0.832   0.000   1.648
   47        0.758   0.882   0.000   1.641
   48        0.755   0.872   0.000   1.627
   49        0.753   0.903   0.000   1.657
   50        0.783   0.876   0.000   1.659
   51        0.754   0.947   0.000   1.701
   52        0.745   0.940   0.000   1.684
   53        0.752   0.947   0.000   1.699
   54        0.754   0.928   0.000   1.682
   55        0.761   0.922   0.000   1.683
   56        0.754   0.923   0.000   1.677
   57        0.752   0.935   0.000   1.687
   58        0.757   0.882   0.000   1.639
   59        0.759   0.921   0.000   1.680
   60        0.757   0.956   0.000   1.713
   61        0.751   0.923   0.000   1.673
--------------------------------------------------
tot         45.610  52.093   0.000  97.703


 total amount of memory used by VASP MPI-rank0   137966. kBytes
=======================================================================

   base                                    :      30000. kBytes
   nonl-proj                               :      23230. kBytes
   fftplans                                :      28731. kBytes
   grid                                    :      22140. kBytes
   one-center                              :         12. kBytes
   wavefun                                 :      33853. kBytes

  
  
 General timing and accounting informations for this job:
 ========================================================
  
                  Total CPU time used (sec):     1276.909
                            User time (sec):     1271.449
                          System time (sec):        5.460
                         Elapsed time (sec):     1278.261
  
                   Maximum memory used (kb):      299072.
                   Average memory used (kb):          N/A
  
                          Minor page faults:       242531
                          Major page faults:         1136
                 Voluntary context switches:         2569
