ITEM: TIMESTEP
361789
ITEM: NUMBER OF ATOMS
13000
ITEM: BOX BOUNDS pp pp pp
-1.2982263498612114e+00 5.9219409956037268e+01
-1.2982263498612114e+00 5.9219409956037268e+01
-1.2982263498612114e+00 7.4110562595124506e+01
ITEM: ATOMS id type xs ys zs
1 2 0.391497 0.0249479 0.691513
2 2 0.0947751 0.103535 0.31582
3 2 0.23204 0.918983 0.0910774
4 2 0.0979682 0.0066863 0.256738
5 2 0.1067 0.0951429 0.0515223
6 2 0.397018 0.389014 0.171759
7 2 0.399349 0.239363 0.290381
8 2 0.661201 0.882206 0.158392
9 2 0.192676 0.993784 0.874167
10 2 0.524104 0.236562 0.354614
11 2 0.465733 0.125887 0.461206
12 2 0.856727 0.441861 0.326017
13 2 0.0619075 0.283208 0.224449
14 2 0.240854 0.248616 0.20911
15 2 0.126042 0.486276 0.846159
16 2 0.260031 0.402606 0.359368
17 2 0.158236 0.275329 0.991696
18 2 0.410424 0.237105 0.16053
19 2 0.395494 0.457868 0.452302
20 2 0.82399 0.417801 0.836967
21 2 0.954789 0.284086 0.162999
22 2 0.113698 0.165242 0.0600374
23 2 0.717281 0.449141 0.00409317
24 2 0.0862117 0.282228 0.328153
25 2 0.402857 0.242535 0.0432691
26 2 0.627286 0.394193 0.510607
27 2 0.295035 0.120561 0.990323
28 2 0.392026 0.108542 0.377793
29 2 0.00453307 0.185224 0.0111214
30 2 0.282341 0.14486 0.409208
31 2 0.187921 0.0688486 0.203191
32 2 0.0410842 0.474172 0.257288
33 2 0.353006 0.19868 0.0838991
34 2 0.741985 0.613108 0.105126
35 2 0.278775 0.181076 0.312161
36 2 0.340357 0.194183 0.296268
37 2 0.125966 0.0105396 0.362399
38 2 0.923749 0.62374 0.263432
39 2 0.246752 0.455614 0.134568
40 2 0.870562 0.829212 0.311602
41 2 0.802517 0.198401 0.322521
42 2 0.421075 0.398853 0.243976
43 2 0.295436 0.362094 0.829706
44 2 0.744943 0.23617 0.727831
45 2 0.181681 0.939348 0.452191
46 2 0.429542 0.528153 0.442764
47 2 0.0392023 0.401507 0.00762915
48 2 0.329445 0.286927 0.357233
49 2 0.137385 0.905456 0.0217353
50 2 0.213549 0.158726 0.330623
51 2 0.818191 0.337377 0.382698
52 2 0.384288 0.215347 0.269231
53 2 0.224912 0.22326 0.307496
54 2 0.309922 0.514399 0.985202
55 2 0.011712 0.424779 0.909548
56 2 0.671338 0.284676 0.106214
57 2 0.498744 0.443203 0.0310976
58 2 0.353928 0.474107 0.162668
59 2 0.944479 0.0799898 0.909724
60 2 0.755019 0.350869 0.268764
61 2 0.392394 0.259138 0.0904707
62 2 0.185676 0.425331 0.220565
63 2 0.0594392 0.293489 0.105159
64 2 0.728539 0.117284 0.139232
65 2 0.191778 0.481302 0.272719
66 2 0.361373 0.504829 0.145176
67 2 0.345517 0.424034 0.472203
68 2 0.301297 0.485644 0.339274
69 2 0.706679 0.555844 0.557757
70 2 0.146059 0.451543 0.0883612
71 2 0.802675 0.373056 0.381344
72 2 0.152286 0.371604 0.289106
73 2 0.312792 0.0199612 0.0514677
74 2 0.157991 0.271454 0.0235374
75 2 0.21188 0.388911 0.566399
76 2 0.690413 0.333586 0.532308
77 2 0.00603475 0.310744 0.246562
78 2 0.0536522 0.117191 0.398998
79 2 0.109949 0.653387 0.192306
80 2 0.582862 0.933219 0.140398
81 2 0.228358 0.151655 0.216665
82 2 0.203025 0.425893 0.9917
83 2 0.465851 0.328871 0.0556429
84 2 0.157514 0.450767 0.23104
85 2 0.354222 0.239557 0.203947
86 2 0.297093 0.134414 0.106723
87 2 0.264117 0.118821 0.323716
88 2 0.302399 0.126935 0.266304
89 2 0.282557 0.292921 0.420723
90 2 0.0195308 0.196217 0.127858
91 2 0.0505901 0.241345 0.358581
92 2 0.275784 0.568509 0.500316
93 2 0.299753 0.24884 0.317763
94 2 0.452732 0.18683 0.720758
95 2 0.365333 0.0175423 0.215421
96 2 0.279088 0.0623644 0.321179
97 2 0.662069 0.153181 0.313035
98 2 0.539564 0.392268 0.0082139
99 2 0.992082 0.428264 0.465982
100 2 0.145907 0.200206 0.017057
101 2 0.337197 0.182643 0.190238
102 2 0.616107 0.0617744 0.325251
103 2 0.666421 0.0898461 0.148393
104 2 0.698549 0.956008 0.333233
105 2 0.393138 0.155004 0.287469
106 2 0.301312 0.613899 0.47335
107 2 0.145475 0.141979 0.0634806
108 2 0.25496 0.516967 0.253505
109 2 0.303548 0.371594 0.105099
110 2 0.316976 0.412187 0.13939
111 2 0.965583 0.168748 0.890749
112 2 0.155308 0.223907 0.361561
113 2 0.425935 0.46941 0.46874
114 2 0.374914 0.984988 0.229835
115 2 0.195441 0.371387 0.0913419
116 2 0.298969 0.506104 0.438704
117 2 0.782857 0.426421 0.201732
118 2 0.138433 0.438652 0.283971
119 2 0.291548 0.822847 0.400267
120 2 0.700059 0.140392 0.196975
121 2 0.828627 0.858593 0.874211
122 2 0.137542 0.957545 0.245125
123 2 0.967628 0.237078 0.115378
124 2 0.355578 0.349624 0.255712
125 2 0.315499 0.0418786 0.36144
126 2 0.462813 0.499726 0.567884
127 2 0.147737 0.606127 0.0665223
128 2 0.110138 0.123758 0.200864
129 2 0.264259 0.374605 0.454331
130 2 0.173913 0.277931 0.0749165
131 2 0.429585 0.919122 0.332675
132 2 0.26553 0.071677 0.378558
133 2 0.176106 0.10921 0.829226
134 2 0.442722 0.461478 0.358882
135 2 0.336627 0.0730034 0.160793
136 2 0.38187 0.461932 0.258273
137 2 0.777783 0.173417 0.0324521
138 2 0.577251 0.460774 0.272015
139 2 0.191668 0.215332 0.292065
140 2 0.422021 0.0499888 0.902651
141 2 0.248095 0.0140333 0.128217
142 2 0.37375 0.967043 0.497512
143 2 0.0485971 0.253476 0.142014
144 2 0.696815 0.235886 0.0166806
145 2 0.496348 0.547692 0.257135
146 2 0.295742 0.148159 0.877839
147 2 0.46117 0.0137242 0.231747
148 2 0.124435 0.225619 0.00138731
149 2 0.0555404 0.190546 0.0825806
150 2 0.547211 0.0963054 0.215472
151 2 0.560985 0.419154 0.0221531
152 2 0.528601 0.13408 0.11412
153 2 0.166657 0.411727 0.325523
154 2 0.317749 0.262183 0.236322
155 2 0.856935 0.337359 0.187052
156 2 0.0748918 0.142299 0.276845
157 2 0.0653972 0.331557 0.261178
158 2 0.371428 0.782121 0.717722
159 2 0.334236 0.180587 0.25036
160 2 0.744675 0.364487 0.00421076
161 2 0.393763 0.843592 0.127577
162 2 0.176447 0.266059 0.228654
163 2 0.057854 0.38555 0.289199
164 2 0.353203 0.149715 0.464183
165 2 0.784885 0.321337 0.141514
166 2 0.319442 0.156015 0.418571
167 2 0.130045 0.622778 0.352983
168 2 0.609216 0.943835 0.684882
169 2 0.230165 0.512601 0.329138
170 2 0.644986 0.585482 0.230142
171 2 0.0501593 0.159141 0.984614
172 2 0.970497 0.168464 0.0134855
173 2 0.512618 0.235316 0.800772
174 2 0.240706 0.499009 0.356872
175 2 0.305281 0.0525965 0.908015
176 2 0.144387 0.33201 0.0987826
177 2 0.486386 0.36717 0.230524
178 2 0.313221 0.250762 0.74381
179 2 0.289856 0.39061 0.376505
180 2 0.301969 0.941876 0.0447697
181 2 0.401718 0.869294 0.323418
182 2 0.32118 0.494341 0.394663
183 2 0.328109 0.36429 0.207876
184 2 0.300058 0.435614 0.243601
185 2 0.158586 0.234379 0.169698
186 2 0.454765 0.398335 0.138024
187 2 0.313922 0.401653 0.306792
188 2 0.290228 0.21394 0.974896
189 2 0.916169 0.529793 0.0517043
190 2 0.316789 0.0325491 0.251699
191 2 0.247317 0.782993 0.344692
192 2 0.801674 0.146585 0.0196359
193 2 0.128931 0.592604 0.21874
194 2 0.53702 0.183663 0.720799
195 2 0.19274 0.409551 0.0898087
196 2 0.487928 0.402656 0.121387
197 2 0.0952245 0.272936 0.971784
198 2 0.387513 0.140217 0.0931899
199 2 0.542833 0.340717 0.223423
200 2 0.153596 0.2324 0.101003
201 2 0.460481 0.0730292 0.166835
202 2 0.739218 0.48084 0.99633
203 2 0.466033 0.747763 0.359636
204 2 0.224954 0.00923881 0.370861
205 2 0.354451 0.365615 0.284124
206 2 0.259586 0.0427466 0.274282
207 2 0.621044 0.141245 0.0896115
208 2 0.223277 0.224115 0.173081
209 2 0.197735 0.364745 0.0609994
210 2 0.453981 0.14215 0.113088
211 2 0.100155 0.384782 0.257336
212 2 0.302323 0.942315 0.949053
213 2 0.829276 0.171461 0.612282
214 2 0.16141 0.218234 0.0729256
215 2 0.254317 0.446653 0.95593
216 2 0.430239 0.412765 0.117036
217 2 0.172466 0.344765 0.304958
218 2 0.092804 0.999345 0.375599
219 2 0.379246 0.825225 0.0440563
220 2 0.114108 0.961494 0.335615
221 2 0.274171 0.0675621 0.444511
222 2 0.101375 0.210657 0.350364
223 2 0.199064 0.35861 0.918819
224 2 0.111737 0.867021 0.161637
225 2 0.60994 0.0198929 0.239475
226 2 0.963324 0.226609 0.147009
227 2 0.490667 0.170833 0.79784
228 2 0.0724694 0.791449 0.0868682
229 2 0.982174 0.165892 0.224637
230 2 0.499675 0.0373853 0.818322
231 2 0.507043 0.342084 0.21222
232 2 0.466393 0.0312554 0.314043
233 2 0.980119 0.51589 0.245763
234 2 0.0771874 0.972705 0.328568
235 2 0.501672 0.0912012 0.0280098
236 2 0.597207 0.178005 0.915951
237 2 0.331201 0.429686 0.263391
238 2 0.823717 0.974482 0.656842
239 2 0.0645562 0.812404 0.133736
240 2 0.627463 0.424498 0.277265
241 2 0.258216 0.383517 0.332593
242 2 0.43987 0.922947 0.0751309
243 2 0.568972 0.335819 0.00701511
244 2 0.0202368 0.242208 0.0866702
245 2 0.719523 0.223906 0.0605214
246 2 0.954034 0.140681 0.0561992
247 2 0.685444 0.193293 0.351778
248 2 0.108526 0.715605 0.368831
249 2 0.513432 0.114409 0.252894
250 2 0.249958 0.919514 0.873783
251 2 0.431825 0.472374 0.249356
252 2 0.444799 0.287761 0.110639
253 2 0.202244 0.130968 0.265019
254 2 0.993032 0.0823051 0.419164
255 2 0.815919 0.645946 0.378486
256 2 0.00629384 0.359739 0.274888
257 2 0.38419 0.016005 0.159772
258 2 0.643003 0.262883 0.202708
259 2 0.332078 0.381762 0.124876
260 2 0.165355 0.0179163 0.444617
261 2 0.979017 0.21705 0.960922
262 2 0.431633 0.0293329 0.396204
263 2 0.0707788 0.641413 0.12158
264 2 0.942411 0.214778 0.31026
265 2 0.107692 0.859408 0.993645
266 2 0.215434 0.374795 0.164901
267 2 0.294448 0.10118 0.192942
268 2 0.375292 0.508203 0.489747
269 2 0.273911 0.372422 0.282279
270 2 0.156703 0.314126 0.124175
271 2 0.2866 0.812212 0.244062
272 2 0.0558091 0.178828 0.034924
273 2 0.207082 0.0141958 0.15759
274 2 0.311857 0.0221566 0.983598
275 2 0.43826 0.370892 0.541865
276 2 0.317045 0.40957 0.844155
277 2 0.306678 0.11383 0.867004
278 2 0.0577332 0.192177 0.323273
279 2 0.701548 0.106904 0.294759
280 2 0.252922 0.40417 0.278473
281 2 0.188921 0.224101 0.18673
282 2 0.517378 0.295555 0.284401
283 2 0.558654 0.727249 0.717177
284 2 0.122001 0.0767764 0.282708
285 2 0.321373 0.155268 0.172818
286 2 0.234794 0.522321 0.104237
287 2 0.0567546 0.229857 0.0795497
288 2 0.819878 0.249766 0.0741384
289 2 0.0174658 0.109936 0.137548
290 2 0.0826485 0.278051 0.281897
291 2 0.509688 0.210117 0.33445
292 2 0.221995 0.389608 0.238206
293 2 0.676491 0.108671 0.342942
294 2 0.105641 0.326606 0.16201
295 2 0.0899105 0.896005 0.506591
296 2 0.868755 0.381048 0.239911
297 2 0.415923 0.287926 0.244904
298 2 0.752202 0.175863 0.953562
299 2 0.0907482 0.642339 0.89517
300 2 0.351691 0.209684 0.985935
301 2 0.979656 0.255188 0.621242
302 2 0.41649 0.132175 0.268696
303 2 0.286568 0.868504 0.356632
304 2 0.895886 0.0698999 0.193635
305 2 0.540505 0.0886121 0.244503
306 2 0.484559 0.51278 0.167342
307 2 0.247163 0.499118 0.484914
308 2 0.961743 0.424947 0.0119009
309 2 0.869932 0.279986 0.474914
310 2 0.585981 0.703889 0.339045
311 2 0.297692 0.254348 0.182182
312 2 0.134875 0.237982 0.433152
313 2 0.418228 0.268832 0.346138
314 2 0.393037 0.339253 0.257244
315 2 0.423124 0.839831 0.288914
316 2 0.367555 0.282003 0.424944
317 2 0.140537 0.951251 0.930456
318 2 0.0608934 0.0761987 0.113429
319 2 0.356611 0.0595888 0.0626095
320 2 0.257521 0.33424 0.925733
321 2 0.632977 0.368 0.246475
322 2 0.234681 0.0697272 0.358895
323 2 0.494916 0.0577807 0.267258
324 2 0.412761 0.149854 0.313713
325 2 0.065496 0.513717 0.183403
326 2 0.211056 0.193364 0.248317
327 2 0.35599 0.105749 0.962729
328 2 0.599545 0.423222 0.85901
329 2 0.0782059 0.318453 0.317256
330 2 0.544216 0.299222 0.042551
331 2 0.132192 0.257582 0.184055
332 2 0.482506 0.566704 0.458381
333 2 0.447044 0.360399 0.138413
334 2 0.565529 0.27255 0.390108
335 2 0.229962 0.197547 0.15228
336 2 0.106479 0.11429 0.00534621
337 2 0.246442 0.225793 0.945796
338 2 0.997596 0.133407 0.118451
339 2 0.457166 0.11868 0.863469
340 2 0.457871 0.94018 0.243466
341 2 0.269339 0.305772 0.225525
342 2 0.668816 0.0234626 0.263492
343 2 0.198017 0.668455 0.245243
344 2 0.465365 0.90043 0.243977
345 2 0.727004 0.087276 0.233728
346 2 0.493145 0.0744968 0.40207
347 2 0.305192 0.0346637 0.315572
348 2 0.162871 0.0863024 0.376275
349 2 0.45871 0.490227 0.342836
350 2 0.404451 0.382592 0.505083
351 2 0.375096 0.86212 0.261087
352 2 0.0209283 0.453697 0.184087
353 2 0.708579 0.26275 0.222803
354 2 0.245586 0.182916 0.383242
355 2 0.127685 0.14057 0.176265
356 2 0.291255 0.094792 0.335968
357 2 0.537047 0.894374 0.162104
358 2 0.443172 0.0465977 0.126684
359 2 0.257052 0.159859 0.0106503
360 2 0.515078 0.439015 0.237627
361 2 0.301188 0.43815 0.30513
362 2 0.0244761 0.282201 0.0942204
363 2 0.726639 0.150675 0.0976284
364 2 0.539703 0.214568 0.220741
365 2 0.0116991 0.38138 0.529481
366 2 0.239993 0.452641 0.248874
367 2 0.262457 0.728153 0.99981
368 2 0.522468 0.787057 0.0654649
369 2 0.00759492 0.487058 0.301959
370 2 0.342876 0.12997 0.0386997
371 2 0.229741 0.991415 0.985317
372 2 0.767759 0.588994 0.933406
373 2 0.130728 0.988188 0.420305
374 2 0.39404 0.416513 0.343669
375 2 0.398956 0.029711 0.036855
376 2 0.274619 0.429079 0.179519
377 2 0.70362 0.161979 0.222966
378 2 0.506196 0.421089 0.166486
379 2 0.392239 0.127113 0.242682
380 2 0.624098 0.244992 0.251857
381 2 0.34548 0.378178 0.938101
382 2 0.501801 0.358601 0.156975
383 2 0.994675 0.602835 0.0855014
384 2 0.0725074 0.100449 0.996874
385 2 0.0950828 0.611703 0.127167
386 2 0.690026 0.141644 0.088281
387 2 0.561839 0.283941 0.103094
388 2 0.111782 0.199811 0.24948
389 2 0.418794 0.360643 0.240627
390 2 0.570117 0.183094 0.401713
391 2 0.350872 0.00628815 0.902899
392 2 0.525328 0.990977 0.228518
393 2 0.209418 0.894389 0.249917
394 2 0.985105 0.279699 0.237964
395 2 0.279234 0.983051 0.517266
396 2 0.415812 0.344438 0.847689
397 2 0.373086 0.36035 0.497556
398 2 0.474006 0.666093 0.249371
399 2 0.462656 0.160157 0.086171
400 2 0.736431 0.333894 0.429714
401 2 0.0315572 0.845677 0.0385475
402 2 0.969215 0.485988 0.918949
403 2 0.763855 0.0577591 0.692408
404 2 0.410563 0.327962 0.283386
405 2 0.399454 0.231223 0.946677
406 2 0.708461 0.348733 0.293008
407 2 0.199545 0.856946 0.251391
408 2 0.154804 0.169044 0.933699
409 2 0.346582 0.151524 0.36088
410 2 0.0940772 0.166129 0.136438
411 2 0.383381 0.144467 0.932446
412 2 0.162195 0.990645 0.400847
413 2 0.619809 0.207861 0.364396
414 2 0.423481 0.11573 0.328262
415 2 0.154886 0.521244 0.15218
416 2 0.530639 0.0655549 0.899183
417 2 0.157705 0.162363 0.239407
418 2 0.432117 0.0739623 0.251689
419 2 0.144623 0.277735 0.126288
420 2 0.284701 0.161295 0.126926
421 2 0.577587 0.803503 0.147727
422 2 0.0614904 0.0143025 0.0991453
423 2 0.470295 0.0717262 0.245458
424 2 0.165609 0.337984 0.359443
425 2 0.280351 0.374176 0.165865
426 2 0.337947 0.385129 0.0364259
427 2 0.10156 0.0668635 0.109298
428 2 0.815719 0.666241 0.305358
429 2 0.321538 0.0310318 0.0987278
430 2 0.608 0.308128 0.0430948
431 2 0.243461 0.0689098 0.221428
432 2 0.943742 0.765781 0.541102
433 2 0.453795 0.487349 0.403787
434 2 0.131575 0.123478 0.12441
435 2 0.866831 0.00266132 0.220746
436 2 0.125078 0.619187 0.089433
437 2 0.485339 0.874756 0.355305
438 2 0.146566 0.313211 0.304038
439 2 0.117412 0.365862 0.300194
440 2 0.198037 0.491679 0.218031
441 2 0.341878 0.739589 0.368091
442 2 0.422939 0.172547 0.216291
443 2 0.782856 0.407454 0.295253
444 2 0.469054 0.271074 0.895037
445 2 0.650422 0.241844 0.309238
446 2 0.169219 0.405624 0.19641
447 2 0.067993 0.162682 0.225423
448 2 0.221809 0.43682 0.207061
449 2 0.181314 0.109552 0.35533
450 2 0.261272 0.330702 0.0434796
451 2 0.334858 0.430348 0.205487
452 2 0.103159 0.376701 0.189413
453 2 0.306811 0.241332 0.421171
454 2 0.880324 0.414427 0.275596
455 2 0.833555 0.448332 0.215375
456 2 0.398912 0.148327 0.0641198
457 2 0.71803 0.690819 0.0589769
458 2 0.106903 0.333664 0.0962919
459 2 0.092666 0.858005 0.511404
460 2 0.50747 0.927813 0.219824
461 2 0.688597 0.318426 0.116038
462 2 0.534262 0.328196 0.816665
463 2 0.858108 0.622398 0.346339
464 2 0.925198 0.389269 0.457083
465 2 0.590725 0.00420937 0.146084
466 2 0.101232 0.95615 0.49055
467 2 0.193883 0.158721 0.180753
468 2 0.45204 0.229902 0.264346
469 2 0.345727 0.963245 0.31279
470 2 0.093419 0.921954 0.0625167
471 2 0.287381 0.208212 0.0869176
472 2 0.21462 0.433611 0.175943
473 2 0.770587 0.823482 0.361874
474 2 0.222994 0.0612552 0.890518
475 2 0.299359 0.301571 0.804484
476 2 0.0682361 0.256789 0.168459
477 2 0.158818 0.0777479 0.451364
478 2 0.198761 0.959201 0.19981
479 2 0.464527 0.705383 0.282746
480 2 0.719722 0.417202 0.985333
481 2 0.169937 0.425159 0.0454184
482 2 0.898072 0.175426 0.159456
483 2 0.208907 0.245706 0.556793
484 2 0.654919 0.283441 0.922074
485 2 0.404651 0.473322 0.116484
486 2 0.0619072 0.217495 0.0300004
487 2 0.353628 0.614205 0.34092
488 2 0.474793 0.889204 0.189387
489 2 0.34321 0.264636 0.283955
490 2 0.425485 0.298119 0.366387
491 2 0.3319 0.75412 0.216331
492 2 0.68167 0.772049 9.5483e-05
493 2 0.163398 0.478691 0.942782
494 2 0.206552 0.259361 0.34825
495 2 0.346493 0.209665 0.268389
496 2 0.0152807 0.0890997 0.184834
497 2 0.458871 0.752299 0.860429
498 2 0.893157 0.2033 0.20018
499 2 0.207974 0.190337 0.376647
500 2 0.524439 0.173328 0.187646
501 2 0.82389 0.351506 0.995215
502 2 0.0978427 0.268379 0.231443
503 2 0.710837 0.178603 0.018963
504 2 0.213988 0.667031 0.0896436
505 2 0.791667 0.280659 0.952753
506 2 0.103043 0.214136 0.298177
507 2 0.154863 0.95959 0.383437
508 2 0.165813 0.339765 0.501428
509 2 0.0734978 0.127984 0.191187
510 2 0.635398 0.853498 0.702429
511 2 0.96036 0.378642 0.0892384
512 2 0.0822504 0.220817 0.324104
513 2 0.272989 0.570617 0.119782
514 2 0.499407 0.414807 0.470524
515 2 0.1454 0.943189 0.294253
516 2 0.48297 0.799985 0.384703
517 2 0.293452 0.140339 0.191208
518 2 0.772556 0.0676428 0.152556
519 2 0.0415038 0.469297 0.119783
520 2 0.74961 0.920615 0.332981
521 2 0.443425 0.340898 0.982798
522 2 0.314305 0.101506 0.149608
523 2 0.189066 0.271275 0.973567
524 2 0.459856 0.0800116 0.198334
525 2 0.0439972 0.373146 0.376717
526 2 0.255401 0.528089 0.398261
527 2 0.322383 0.220337 0.0942352
528 2 0.533805 0.186411 0.996617
529 2 0.354622 0.122547 0.380872
530 2 0.270819 0.439713 0.35678
531 2 0.814878 0.075372 0.194023
532 2 0.772528 0.037603 0.959495
533 2 0.485857 0.170678 0.50015
534 2 0.280884 0.957658 0.152121
535 2 0.443093 0.863913 0.962282
536 2 0.992532 0.238214 0.277571
537 2 0.119215 0.0209307 0.183063
538 2 0.109138 0.54358 0.335165
539 2 0.0811097 0.769769 0.339081
540 2 0.0121333 0.635483 0.0946213
541 2 0.348854 0.0779507 0.21244
542 2 0.369207 0.832359 0.748704
543 2 0.389198 0.877027 0.717291
544 2 0.0456914 0.35428 0.114248
545 2 0.602177 0.363116 0.394117
546 2 0.900762 0.302613 0.05628
547 2 0.0446704 0.30361 0.247373
548 2 0.0417499 0.617645 0.109678
549 2 0.180257 0.699136 0.296351
550 2 0.778634 0.412147 0.94339
551 2 0.123621 0.178727 0.180699
552 2 0.0527758 0.392338 0.11716
553 2 0.247057 0.0473263 0.335076
554 2 0.180307 0.322174 0.824704
555 2 0.174186 0.479861 0.0834733
556 2 0.324228 0.269939 0.131851
557 2 0.535296 0.315023 0.0146734
558 2 0.230075 0.144491 0.18668
559 2 0.843352 0.551033 0.124873
560 2 0.453943 0.170848 0.234837
561 2 0.00611609 0.506529 0.152718
562 2 0.07646 0.115396 0.373496
563 2 0.301842 0.187723 0.232782
564 2 0.0816932 0.273451 0.568215
565 2 0.514306 0.313382 0.423685
566 2 0.927126 0.118724 0.0420299
567 2 0.43061 0.329141 0.0687219
568 2 0.388834 0.414956 0.150415
569 2 0.325682 0.0215862 0.222052
570 2 0.154178 0.162062 0.50814
571 2 0.27562 0.478638 0.0911558
572 2 0.270362 0.07437 0.291982
573 2 0.661709 0.358749 0.813752
574 2 0.081822 0.112129 0.498677
575 2 0.460667 0.572329 0.0787884
576 2 0.152629 0.0715937 0.323293
577 2 0.31347 0.172963 0.145393
578 2 0.27294 0.10833 0.506812
579 2 0.374356 0.965086 0.401827
580 2 0.521126 0.181227 0.421187
581 2 0.0583536 0.404162 0.169587
582 2 0.238522 0.20499 0.0436335
583 2 0.447223 0.946363 0.349582
584 2 0.928637 0.198003 0.0786497
585 2 0.216237 0.0941601 0.208827
586 2 0.186115 0.176803 0.290397
587 2 0.527129 0.153229 0.0707879
588 2 0.507573 0.556211 0.142164
589 2 0.150109 0.289999 0.329649
590 2 0.135952 0.453299 0.799519
591 2 0.161463 0.561656 0.859179
592 2 0.0767995 0.451176 0.298441
593 2 0.362425 0.774393 0.766017
594 2 0.0849522 0.354617 0.24261
595 2 0.0500994 0.215084 0.2706
596 2 0.849609 0.131084 0.107788
597 2 0.996638 0.333223 0.11972
598 2 0.365055 0.000267885 0.278468
599 2 0.418251 0.133552 0.722486
600 2 0.350489 0.100164 0.0188245
601 2 0.290105 0.900895 0.0885731
602 2 0.0184079 0.127037 0.0191191
603 2 0.479712 0.289764 0.236553
604 2 0.984171 0.0120922 0.989077
605 2 0.187673 0.482321 0.492666
606 2 0.305086 0.966305 0.813776
607 2 0.41178 0.268689 0.117108
608 2 0.550186 0.0706677 0.666992
609 2 0.859413 0.467352 0.231952
610 2 0.375329 0.220409 0.720508
611 2 0.307855 0.453239 0.21638
612 2 0.0886584 0.402022 0.0446612
613 2 0.467095 0.397818 0.534918
614 2 0.283485 0.28966 0.27528
615 2 0.918543 0.291263 0.0829642
616 2 0.487167 0.868699 0.125215
617 2 0.291231 0.506231 0.52435
618 2 0.318961 0.279378 0.824206
619 2 0.324443 0.134975 0.219191
620 2 0.95535 0.576183 0.345271
621 2 0.709076 0.346232 0.384879
622 2 0.833577 0.318551 0.899338
623 2 0.189821 0.283077 0.18626
624 2 0.302102 0.637999 0.233746
625 2 0.207122 0.489115 0.553765
626 2 0.0893265 0.212617 0.411784
627 2 0.0261744 0.243824 0.260942
628 2 0.169605 0.40617 0.141938
629 2 0.550452 0.366904 0.292572
630 2 0.195973 0.119054 0.426965
631 2 0.220171 0.2993 0.404347
632 2 0.291273 0.152813 0.221177
633 2 0.624294 0.0685825 0.259345
634 2 0.857551 0.174871 0.337868
635 2 0.401476 0.0512603 0.160289
636 2 0.0626213 0.516467 0.283842
637 2 0.515694 0.598921 0.994638
638 2 0.338206 0.56751 0.28856
639 2 0.498057 0.227698 0.860366
640 2 0.447154 0.310316 0.418766
641 2 0.236696 0.401234 0.926125
642 2 0.881086 0.980781 0.196561
643 2 0.298131 0.445572 0.335647
644 2 0.196752 0.317144 0.0408292
645 2 0.200926 0.278117 0.157137
646 2 0.890711 0.355317 0.186202
647 2 0.194103 0.343157 0.156828
648 2 0.338171 0.104143 0.232681
649 2 0.890694 0.193817 0.0827961
650 2 0.852751 0.942323 0.0757332
651 2 0.599712 0.621057 0.845529
652 2 0.0353213 0.875121 0.993793
653 2 0.499153 0.431365 0.443873
654 2 0.755185 0.246809 0.988552
655 2 0.174862 0.156539 0.867076
656 2 0.33594 0.146966 0.267106
657 2 0.217014 0.0414038 0.430326
658 2 0.389869 0.353987 0.161994
659 2 0.349382 0.209913 0.347746
660 2 0.584039 0.529836 0.29499
661 2 0.299289 0.691314 0.425553
662 2 0.570251 0.0950581 0.991848
663 2 0.460234 0.0934852 0.815109
664 2 0.218875 0.64602 0.265973
665 2 0.250825 0.333153 0.0920627
666 2 0.589531 0.20146 0.143301
667 2 0.27943 0.188861 0.342263
668 2 0.863116 0.438829 0.356827
669 2 0.175692 0.698262 0.253172
670 2 0.028285 0.500792 0.277408
671 2 0.452982 0.523405 0.12709
672 2 0.351846 0.156733 0.29477
673 2 0.17889 0.523109 0.434998
674 2 0.14906 0.389305 0.590215
675 2 0.119107 0.301482 0.231125
676 2 0.764353 0.191655 0.648457
677 2 0.990905 0.233662 0.169459
678 2 0.977676 0.318012 0.0740906
679 2 0.330842 0.395746 0.279438
680 2 0.538166 0.398559 0.893492
681 2 0.327497 0.249444 0.948489
682 2 0.94674 0.399983 0.898907
683 2 0.522094 0.795601 0.273462
684 2 0.150926 0.034784 0.168864
685 2 0.360389 0.446549 0.943226
686 2 0.918485 0.199127 0.177627
687 2 0.186015 0.65979 0.110907
688 2 0.144637 0.328104 0.0574213
689 2 0.389178 0.418331 0.066093
690 2 0.286388 0.222716 0.167138
691 2 0.694153 0.379673 0.373936
692 2 0.404686 0.18276 0.267004
693 2 0.0722915 0.289578 0.013556
694 2 0.291945 0.0987871 0.368092
695 2 0.190822 0.019613 0.327232
696 2 0.0378901 0.493402 0.00745842
697 2 0.218546 0.994241 0.52411
698 2 0.13519 0.355308 0.19471
699 2 0.969384 0.198465 0.239835
700 2 0.166369 0.971543 0.0893999
701 2 0.0892137 0.0557897 0.287203
702 2 0.0954592 0.391464 0.286897
703 2 0.436055 0.786911 0.00120098
704 2 0.416827 0.265117 0.0665616
705 2 0.15612 0.560218 0.146714
706 2 0.0970268 0.396554 0.162978
707 2 0.146234 0.586917 0.246511
708 2 0.0417356 0.358111 0.965436
709 2 0.234355 0.0815015 0.932797
710 2 0.403434 0.645126 0.156985
711 2 0.241794 0.358486 0.409265
712 2 0.0780011 0.518411 0.255307
713 2 0.330892 0.992021 0.18382
714 2 0.511827 0.278582 0.0504768
715 2 0.702739 0.778339 0.749523
716 2 0.232819 0.0442857 0.198749
717 2 0.0315199 0.46445 0.370026
718 2 0.266405 0.470511 0.0433132
719 2 0.91215 0.314491 0.394154
720 2 0.779861 0.851963 0.342391
721 2 0.449638 0.163089 0.311864
722 2 0.192703 0.650187 0.94123
723 2 0.112101 0.146615 0.278208
724 2 0.419144 0.484956 0.83419
725 2 0.0862115 0.937303 0.114529
726 2 0.48128 0.455111 0.272279
727 2 0.180514 0.445844 0.368894
728 2 0.41655 0.155429 0.1131
729 2 0.838138 0.812653 0.353278
730 2 0.388325 0.403606 0.260044
731 2 0.00571141 0.139747 0.422117
732 2 0.414765 0.420618 0.288075
733 2 0.469807 0.305173 0.160143
734 2 0.260789 0.267562 0.186055
735 2 0.875788 0.49829 0.216456
736 2 0.577423 0.0521926 0.320116
737 2 0.717713 0.274527 0.17546
738 2 0.281316 0.461942 0.119148
739 2 0.147757 0.328453 0.912029
740 2 0.215861 0.442714 0.963946
741 2 0.209679 0.540809 0.507716
742 2 0.302718 0.313488 0.000840362
743 2 0.953384 0.364932 0.00987191
744 2 0.996378 0.23424 0.0617842
745 2 0.419321 0.137053 0.38078
746 2 0.27962 0.133923 0.378929
747 2 0.0475729 0.010727 0.0446566
748 2 0.786426 0.0553374 0.238048
749 2 0.42395 0.239742 0.218007
750 2 0.367422 0.239461 0.767009
751 2 0.033171 0.263182 0.209933
752 2 0.408453 0.359481 0.0599507
753 2 0.268215 0.234649 0.452332
754 2 0.439019 0.103173 0.445688
755 2 0.384281 0.566489 0.318771
756 2 0.42849 0.175794 0.163749
757 2 0.426328 0.625303 0.461971
758 2 0.828342 0.9921 0.167884
759 2 0.060906 0.580101 0.279152
760 2 0.476294 0.157306 0.13633
761 2 0.0608875 0.253736 0.898011
762 2 0.951355 0.376677 0.292718
763 2 0.368257 0.428882 0.987433
764 2 0.446579 0.605636 0.248471
765 2 0.181497 0.409754 0.412366
766 2 0.0246186 0.911542 0.0527284
767 2 0.974515 0.639809 0.969666
768 2 0.00664405 0.476288 0.134025
769 2 0.351884 0.291821 0.116586
770 2 0.157377 0.341269 0.147241
771 2 0.243881 0.101312 0.299852
772 2 0.243084 0.213505 0.12654
773 2 0.962262 0.0644886 0.500516
774 2 0.143038 0.211003 0.540454
775 2 0.286346 0.945974 0.399482
776 2 0.218419 0.246098 0.930918
777 2 0.00467376 0.967546 0.0622742
778 2 0.349588 0.548661 0.244342
779 2 0.0541279 0.0372555 0.175005
780 2 0.381693 0.326031 0.0198443
781 2 0.587513 0.381469 0.419354
782 2 0.0459347 0.361301 0.204808
783 2 0.958679 0.440878 0.111227
784 2 0.259131 0.121483 0.0667453
785 2 0.108774 0.381308 0.135514
786 2 0.40816 0.325015 0.176535
787 2 0.307282 0.983756 0.860039
788 2 0.483434 0.398282 0.406374
789 2 0.15848 0.377772 0.239472
790 2 0.273686 0.678831 0.329842
791 2 0.230323 0.136171 0.106091
792 2 0.278136 0.288834 0.390112
793 2 0.0431942 0.0756347 0.936781
794 2 0.458605 0.962944 0.270406
795 2 0.0426314 0.333198 0.0622037
796 2 0.341018 0.292792 0.404135
797 2 0.37564 0.616532 0.15507
798 2 0.157883 0.784708 0.0292662
799 2 0.202051 0.125002 0.223717
800 2 0.720914 0.881588 0.290921
801 2 0.468756 0.980925 0.0905221
802 2 0.552349 0.33557 0.175643
803 2 0.274745 0.523706 0.194348
804 2 0.0724048 0.213905 0.370325
805 2 0.220096 0.10672 0.358277
806 2 0.331875 0.268012 0.0730075
807 2 0.14323 0.434941 0.141933
808 2 0.335158 0.412186 0.514885
809 2 0.0319575 0.177184 0.0595228
810 2 0.240429 0.357553 0.240943
811 2 0.392462 0.330831 0.406897
812 2 0.313734 0.0542941 0.122658
813 2 0.0425911 0.109535 0.501546
814 2 0.359635 0.381536 0.412629
815 2 0.25702 0.0196186 0.355558
816 2 0.0255185 0.450935 0.0945888
817 2 0.200474 0.310867 0.798595
818 2 0.111182 0.496784 0.0791791
819 2 0.192581 0.841686 0.459481
820 2 0.0850955 0.246096 0.0958898
821 2 0.678918 0.26686 0.969712
822 2 0.502411 0.149987 0.410302
823 2 0.999572 0.21696 0.106392
824 2 0.505372 0.272929 0.761765
825 2 0.390053 0.0652732 0.832939
826 2 0.79011 0.437253 0.124598
827 2 0.136544 0.554861 0.993368
828 2 0.473194 0.624906 0.292158
829 2 0.174566 0.0499609 0.37058
830 2 0.0877813 0.402611 0.437833
831 2 0.0261269 0.179067 0.187901
832 2 0.302571 0.194404 0.290819
833 2 0.949275 0.172851 0.0955291
834 2 0.70667 0.795807 0.322761
835 2 0.723274 0.204978 0.952391
836 2 0.388907 0.389516 0.290046
837 2 0.108823 0.175154 0.299622
838 2 0.58277 0.493804 0.0907384
839 2 0.327731 0.894748 0.976794
840 2 0.490589 0.319483 0.118363
841 2 0.627414 0.46087 0.444703
842 2 0.96227 0.25264 0.0679399
843 2 0.205615 0.64466 0.187135
844 2 0.535122 0.156512 0.23365
845 2 0.909191 0.206532 0.325824
846 2 0.511441 0.840817 0.29731
847 2 0.111118 0.988538 0.0110301
848 2 0.152693 0.173006 0.400786
849 2 0.463124 0.372384 0.422998
850 2 0.819775 0.209044 0.872585
851 2 0.395523 0.0791726 0.399751
852 2 0.548844 0.332429 0.253301
853 2 0.0507756 0.230791 0.522882
854 2 0.132699 0.428199 0.544419
855 2 0.351326 0.136058 0.410291
856 2 0.421065 0.212351 0.0828152
857 2 0.994255 0.317615 0.0253412
858 2 0.31685 0.379301 0.975045
859 2 0.183469 0.352844 0.384556
860 2 0.603436 0.0370108 0.100763
861 2 0.252507 0.0516361 0.509345
862 2 0.117876 0.417214 0.87494
863 2 0.391483 0.724191 0.913237
864 2 0.108056 0.339247 0.0519562
865 2 0.776507 0.279364 0.277772
866 2 0.265542 0.344955 0.261165
867 2 0.435881 0.529787 0.308158
868 2 0.918534 0.123686 0.875843
869 2 0.514705 0.503034 0.407226
870 2 0.184039 0.236502 0.120042
871 2 0.941298 0.382021 0.156423
872 2 0.96972 0.187401 0.842617
873 2 0.498894 0.326851 0.450248
874 2 0.92529 0.135289 0.261209
875 2 0.460469 0.189539 0.148191
876 2 0.264156 0.313103 0.118106
877 2 0.228173 0.304133 0.226179
878 2 0.13443 0.300504 0.534775
879 2 0.96947 0.276449 0.113268
880 2 0.278385 0.218063 0.875557
881 2 0.190791 0.843072 0.501992
882 2 0.199627 0.25326 0.205188
883 2 0.145339 0.38736 0.977505
884 2 0.228866 0.111338 0.444765
885 2 0.932511 0.444356 0.358584
886 2 0.224319 0.371771 0.0172247
887 2 0.00450387 0.28351 0.193418
888 2 0.983737 0.300717 0.290693
889 2 0.903076 0.196571 0.133222
890 2 0.574052 0.206802 0.234315
891 2 0.0713432 0.905553 0.363535
892 2 0.246578 0.428673 0.15829
893 2 0.986392 0.140695 0.26256
894 2 0.922304 0.967987 0.364501
895 2 0.73404 0.333322 0.945058
896 2 0.144403 0.501238 0.368959
897 2 0.0790246 0.346662 0.195917
898 2 0.199167 0.125344 0.08924
899 2 0.218427 0.189195 0.217551
900 2 0.282046 0.275512 0.244181
901 2 0.151853 0.291662 0.18761