ITEM: TIMESTEP
139768
ITEM: NUMBER OF ATOMS
13000
ITEM: BOX BOUNDS pp pp pp
-1.2982263498612114e+00 5.9219409956037268e+01
-1.2982263498612114e+00 5.9219409956037268e+01
-1.2982263498612114e+00 6.1689055579682297e+01
ITEM: ATOMS id type xs ys zs
1 2 0.373832 0.0312359 0.58438
2 2 0.0960302 0.102717 0.358784
3 2 0.232354 0.918902 0.0798928
4 2 0.100155 0.00655851 0.286598
5 2 0.107973 0.0956343 0.0307659
6 2 0.396526 0.388599 0.18144
7 2 0.399519 0.240678 0.328837
8 2 0.660883 0.881815 0.166011
9 2 0.191484 0.993294 0.808359
10 2 0.523802 0.239932 0.408741
11 2 0.456239 0.113126 0.557468
12 2 0.856912 0.442065 0.375318
13 2 0.0618286 0.284476 0.251602
14 2 0.241826 0.248344 0.228503
15 2 0.124857 0.484352 0.773844
16 2 0.260829 0.403874 0.416551
17 2 0.158249 0.275031 0.959113
18 2 0.41049 0.236816 0.166598
19 2 0.396274 0.457479 0.531635
20 2 0.824223 0.419631 0.764258
21 2 0.954769 0.284435 0.171767
22 2 0.113734 0.165525 0.0427326
23 2 0.71692 0.447581 0.9745
24 2 0.0905511 0.275186 0.36378
25 2 0.402993 0.241934 0.0208747
26 2 0.623574 0.39389 0.608656
27 2 0.293976 0.121548 0.954057
28 2 0.391971 0.112281 0.436088
29 2 0.00406433 0.185096 0.983336
30 2 0.284712 0.144968 0.476295
31 2 0.190241 0.0677889 0.221727
32 2 0.0413334 0.4742 0.288221
33 2 0.351826 0.196909 0.0715883
34 2 0.741554 0.612552 0.0995392
35 2 0.279867 0.183223 0.358246
36 2 0.34166 0.19537 0.338037
37 2 0.126434 0.0105711 0.417635
38 2 0.923684 0.623504 0.296498
39 2 0.24681 0.455914 0.136243
40 2 0.872672 0.827471 0.351859
41 2 0.802115 0.196269 0.370383
42 2 0.421999 0.399852 0.268796
43 2 0.290219 0.36192 0.748689
44 2 0.73944 0.234037 0.628333
45 2 0.180093 0.941265 0.531003
46 2 0.431736 0.529552 0.519939
47 2 0.0383915 0.401303 0.979291
48 2 0.32995 0.287613 0.413583
49 2 0.137515 0.905745 0.993581
50 2 0.215175 0.160242 0.379809
51 2 0.820381 0.338615 0.446263
52 2 0.385774 0.216044 0.30311
53 2 0.226434 0.22373 0.352378
54 2 0.309678 0.513676 0.948254
55 2 0.0101426 0.422688 0.856738
56 2 0.669898 0.283377 0.100776
57 2 0.499396 0.442125 0.00619719
58 2 0.353552 0.474401 0.169286
59 2 0.94301 0.0797356 0.85344
60 2 0.75455 0.349401 0.302299
61 2 0.393204 0.259974 0.0791184
62 2 0.185663 0.42499 0.243382
63 2 0.0595369 0.294267 0.100652
64 2 0.728843 0.116829 0.141559
65 2 0.191442 0.48199 0.306689
66 2 0.361237 0.505137 0.147947
67 2 0.347426 0.424021 0.556816
68 2 0.300447 0.48706 0.391988
69 2 0.712387 0.55607 0.660734
70 2 0.145531 0.451191 0.0783098
71 2 0.803889 0.374166 0.444139
72 2 0.152319 0.371245 0.332241
73 2 0.312573 0.0197819 0.0308488
74 2 0.157908 0.271969 0.9981
75 2 0.224782 0.392678 0.681936
76 2 0.683616 0.330584 0.632961
77 2 0.00549278 0.309788 0.278538
78 2 0.0566317 0.118321 0.462827
79 2 0.110331 0.652541 0.205826
80 2 0.582385 0.933539 0.142824
81 2 0.230132 0.15149 0.237386
82 2 0.202454 0.425972 0.957027
83 2 0.465604 0.328621 0.0364726
84 2 0.157433 0.450519 0.256339
85 2 0.355252 0.239554 0.22198
86 2 0.297019 0.133986 0.100421
87 2 0.263692 0.120029 0.371876
88 2 0.304822 0.128396 0.300725
89 2 0.283974 0.292966 0.493379
90 2 0.0204133 0.196244 0.127503
91 2 0.0528035 0.240391 0.412102
92 2 0.275167 0.572125 0.59122
93 2 0.300248 0.251089 0.363579
94 2 0.458748 0.193286 0.61925
95 2 0.3663 0.0177318 0.235615
96 2 0.277227 0.0641447 0.368038
97 2 0.661427 0.151685 0.361402
98 2 0.539351 0.393253 0.977783
99 2 0.993803 0.429839 0.548952
100 2 0.145548 0.200148 0.988677
101 2 0.338122 0.182564 0.205094
102 2 0.620143 0.0590672 0.375224
103 2 0.666261 0.0894164 0.152885
104 2 0.701785 0.954555 0.380342
105 2 0.417645 0.160997 0.32672
106 2 0.301113 0.616331 0.556976
107 2 0.146144 0.142137 0.0457087
108 2 0.255142 0.51862 0.285304
109 2 0.303744 0.371618 0.098558
110 2 0.316488 0.412138 0.141853
111 2 0.964303 0.168499 0.831658
112 2 0.156172 0.223601 0.418539
113 2 0.426376 0.469966 0.55208
114 2 0.375876 0.985459 0.253834
115 2 0.195533 0.371266 0.0815232
116 2 0.300304 0.5066 0.517222
117 2 0.782944 0.42623 0.219157
118 2 0.137823 0.438265 0.32301
119 2 0.290948 0.82527 0.4644
120 2 0.700651 0.14012 0.21437
121 2 0.827573 0.859214 0.811457
122 2 0.139499 0.957475 0.272509
123 2 0.967735 0.236558 0.112345
124 2 0.356317 0.35008 0.286034
125 2 0.317971 0.0359725 0.417912
126 2 0.462074 0.494728 0.682847
127 2 0.147374 0.607 0.0477944
128 2 0.11084 0.12652 0.216116
129 2 0.265512 0.375537 0.534843
130 2 0.174339 0.278177 0.0620738
131 2 0.430056 0.917064 0.377921
132 2 0.266353 0.0722858 0.439031
133 2 0.176348 0.108066 0.754394
134 2 0.443561 0.463273 0.414171
135 2 0.336581 0.0732176 0.167753
136 2 0.379484 0.460652 0.288133
137 2 0.77625 0.172948 0.00794379
138 2 0.577982 0.462243 0.307219
139 2 0.194179 0.215322 0.331529
140 2 0.419205 0.0486201 0.844605
141 2 0.248798 0.013884 0.125678
142 2 0.366741 0.993875 0.572258
143 2 0.0493484 0.253701 0.145785
144 2 0.694877 0.234201 0.988501
145 2 0.49661 0.547652 0.287584
146 2 0.292591 0.150865 0.81226
147 2 0.462721 0.0142477 0.257752
148 2 0.124264 0.22617 0.970256
149 2 0.0561162 0.19051 0.0713328
150 2 0.548392 0.096744 0.237844
151 2 0.567068 0.414439 0.998948
152 2 0.528913 0.133159 0.110515
153 2 0.169106 0.41345 0.373812
154 2 0.31865 0.262026 0.26281
155 2 0.855983 0.337229 0.200169
156 2 0.0762546 0.14198 0.311675
157 2 0.0651332 0.331805 0.298744
158 2 0.364704 0.786852 0.606845
159 2 0.336274 0.179895 0.280851
160 2 0.746047 0.364694 0.97761
161 2 0.392691 0.842716 0.125706
162 2 0.176934 0.266087 0.252824
163 2 0.0574342 0.385892 0.330574
164 2 0.355896 0.151433 0.545366
165 2 0.784585 0.320888 0.143651
166 2 0.321662 0.157699 0.489361
167 2 0.129619 0.622952 0.408027
168 2 0.606393 0.942531 0.579406
169 2 0.232244 0.513637 0.37853
170 2 0.645628 0.585862 0.257139
171 2 0.0503896 0.159295 0.949819
172 2 0.96963 0.168493 0.985038
173 2 0.509251 0.23411 0.718375
174 2 0.241566 0.500641 0.413105
175 2 0.30489 0.0525685 0.85232
176 2 0.14314 0.332188 0.0931548
177 2 0.48715 0.368193 0.253911
178 2 0.290002 0.253782 0.646924
179 2 0.290006 0.391117 0.437825
180 2 0.30302 0.941663 0.0227878
181 2 0.40234 0.868404 0.36628
182 2 0.322096 0.495682 0.46097
183 2 0.328688 0.364765 0.226827
184 2 0.299466 0.43613 0.273307
185 2 0.15936 0.235284 0.179674
186 2 0.45475 0.398183 0.138879
187 2 0.314549 0.402757 0.351764
188 2 0.289779 0.21365 0.93547
189 2 0.915856 0.529959 0.0323289
190 2 0.316897 0.0325184 0.282019
191 2 0.248089 0.782583 0.396877
192 2 0.800402 0.146171 0.991757
193 2 0.129172 0.591923 0.239612
194 2 0.534559 0.180988 0.618477
195 2 0.19249 0.409578 0.0803541
196 2 0.487928 0.402409 0.118897
197 2 0.0942262 0.273106 0.935054
198 2 0.387793 0.139452 0.0826421
199 2 0.543495 0.341389 0.245368
200 2 0.154096 0.232805 0.0943177
201 2 0.460896 0.0728401 0.175707
202 2 0.737983 0.480478 0.965005
203 2 0.46669 0.748936 0.413541
204 2 0.22414 0.0115818 0.429687
205 2 0.356027 0.366913 0.320331
206 2 0.259913 0.0426002 0.311117
207 2 0.620767 0.140038 0.0797755
208 2 0.223842 0.223744 0.184042
209 2 0.197415 0.36533 0.0444289
210 2 0.454205 0.142024 0.108739
211 2 0.100592 0.383408 0.293623
212 2 0.301841 0.941954 0.903115
213 2 0.816688 0.193238 0.510212
214 2 0.161785 0.218739 0.0599735
215 2 0.253427 0.446335 0.911352
216 2 0.430182 0.412417 0.113386
217 2 0.175263 0.345146 0.34995
218 2 0.0935299 0.999183 0.43452
219 2 0.378713 0.82468 0.0212878
220 2 0.116138 0.960354 0.383636
221 2 0.276641 0.0689226 0.521429
222 2 0.102304 0.209048 0.40238
223 2 0.198153 0.358867 0.867202
224 2 0.112985 0.867614 0.1676
225 2 0.609667 0.0200631 0.265985
226 2 0.963873 0.227021 0.151969
227 2 0.487211 0.169586 0.714509
228 2 0.072855 0.790931 0.0745126
229 2 0.981404 0.166856 0.246456
230 2 0.496848 0.036682 0.740248
231 2 0.507719 0.342839 0.231166
232 2 0.453663 0.0297148 0.363909
233 2 0.98015 0.515631 0.274614
234 2 0.0794195 0.97204 0.374471
235 2 0.501187 0.0892865 0.00139162
236 2 0.595535 0.176459 0.863229
237 2 0.330465 0.429771 0.298053
238 2 0.822333 0.975868 0.539948
239 2 0.0650457 0.812105 0.133087
240 2 0.628494 0.426036 0.31301
241 2 0.259093 0.385157 0.383313
242 2 0.439704 0.921959 0.0613939
243 2 0.567891 0.336171 0.976134
244 2 0.0203215 0.242403 0.076894
245 2 0.718156 0.222238 0.0433124
246 2 0.954429 0.140269 0.0383674
247 2 0.685155 0.193635 0.405422
248 2 0.11005 0.713057 0.427121
249 2 0.515159 0.114148 0.284128
250 2 0.248729 0.919357 0.808813
251 2 0.430838 0.47179 0.277237
252 2 0.444811 0.28784 0.104832
253 2 0.203953 0.131274 0.29785
254 2 0.972829 0.0732628 0.472111
255 2 0.817523 0.646775 0.438668
256 2 0.00546209 0.359995 0.311551
257 2 0.384401 0.0160557 0.165681
258 2 0.643742 0.26241 0.220597
259 2 0.331837 0.381885 0.12319
260 2 0.165473 0.0179188 0.517287
261 2 0.979351 0.215948 0.921711
262 2 0.43488 0.034314 0.451938
263 2 0.0707261 0.641234 0.117995
264 2 0.942622 0.215332 0.354757
265 2 0.107736 0.859866 0.958493
266 2 0.216253 0.37491 0.173837
267 2 0.295145 0.101277 0.206549
268 2 0.374961 0.507984 0.579895
269 2 0.274005 0.373129 0.321116
270 2 0.157815 0.314498 0.123137
271 2 0.287509 0.81166 0.269613
272 2 0.0555483 0.178891 0.0123264
273 2 0.207667 0.0134283 0.162744
274 2 0.31103 0.0218306 0.946186
275 2 0.439847 0.382226 0.65433
276 2 0.312664 0.408888 0.769476
277 2 0.302452 0.115407 0.799725
278 2 0.0583642 0.189834 0.369112
279 2 0.70285 0.105905 0.338003
280 2 0.253575 0.405359 0.315614
281 2 0.189467 0.224619 0.200919
282 2 0.518896 0.297454 0.320739
283 2 0.549969 0.732958 0.604108
284 2 0.123963 0.0765205 0.318138
285 2 0.321788 0.155942 0.183249
286 2 0.234387 0.522187 0.0977101
287 2 0.0572622 0.230264 0.0681512
288 2 0.821515 0.247961 0.0617875
289 2 0.0185356 0.110219 0.139384
290 2 0.0844305 0.278944 0.323395
291 2 0.509625 0.213611 0.383027
292 2 0.222334 0.390542 0.266482
293 2 0.683128 0.107202 0.397672
294 2 0.104118 0.324347 0.171066
295 2 0.0864187 0.905838 0.60143
296 2 0.868408 0.38175 0.266318
297 2 0.416278 0.28877 0.27144
298 2 0.750761 0.174589 0.909669
299 2 0.0914607 0.642597 0.837787
300 2 0.351223 0.208695 0.950331
301 2 0.984968 0.247475 0.734478
302 2 0.423954 0.133805 0.30041
303 2 0.286825 0.868683 0.410354
304 2 0.896373 0.0692481 0.207835
305 2 0.542561 0.088862 0.273419
306 2 0.484224 0.513055 0.175486
307 2 0.248446 0.502086 0.576782
308 2 0.961254 0.425831 0.983658
309 2 0.874173 0.282324 0.553396
310 2 0.58662 0.70366 0.391354
311 2 0.298785 0.254266 0.195409
312 2 0.13465 0.24018 0.504997
313 2 0.418308 0.270941 0.398113
314 2 0.394441 0.340284 0.288116
315 2 0.423648 0.839409 0.324579
316 2 0.368252 0.282412 0.496228
317 2 0.140303 0.951971 0.880011
318 2 0.0617641 0.0767985 0.109974
319 2 0.356289 0.0589621 0.04501
320 2 0.256684 0.333879 0.875403
321 2 0.633705 0.369052 0.275997
322 2 0.234588 0.0716909 0.415917
323 2 0.495766 0.0574111 0.302871
324 2 0.392662 0.151267 0.354587
325 2 0.0656652 0.513365 0.19562
326 2 0.212426 0.193439 0.276961
327 2 0.354887 0.105681 0.921393
328 2 0.593848 0.427761 0.782421
329 2 0.0613048 0.326508 0.38175
330 2 0.543279 0.299228 0.0204843
331 2 0.1324 0.258129 0.19769
332 2 0.48473 0.56963 0.542065
333 2 0.447431 0.359951 0.139341
334 2 0.56615 0.274464 0.453982
335 2 0.228706 0.197352 0.158016
336 2 0.106963 0.114409 0.973563
337 2 0.246291 0.226042 0.899819
338 2 0.998545 0.133595 0.115699
339 2 0.453886 0.117648 0.796524
340 2 0.458875 0.941473 0.27124
341 2 0.269742 0.306227 0.249149
342 2 0.669517 0.0230486 0.296694
343 2 0.198535 0.667627 0.27191
344 2 0.466749 0.901439 0.271544
345 2 0.728542 0.086751 0.258704
346 2 0.49679 0.0794299 0.455548
347 2 0.303638 0.0367533 0.365085
348 2 0.162678 0.0873122 0.434917
349 2 0.459623 0.491539 0.394095
350 2 0.407523 0.381034 0.597902
351 2 0.376865 0.86177 0.289266
352 2 0.0211197 0.453749 0.198255
353 2 0.708455 0.262067 0.24702
354 2 0.247305 0.184192 0.446237
355 2 0.130739 0.141735 0.186497
356 2 0.290669 0.0955875 0.38658
357 2 0.536411 0.893923 0.17023
358 2 0.443507 0.0460237 0.12492
359 2 0.256955 0.160691 0.979625
360 2 0.515828 0.438543 0.259822
361 2 0.30111 0.439352 0.349445
362 2 0.0243886 0.28283 0.0871475
363 2 0.726626 0.150234 0.089921
364 2 0.541286 0.214643 0.243335
365 2 0.0170109 0.382317 0.628471
366 2 0.240002 0.453313 0.278965
367 2 0.262257 0.727397 0.967064
368 2 0.522257 0.786014 0.0490802
369 2 0.00803027 0.489178 0.343443
370 2 0.342532 0.129588 0.0152393
371 2 0.230123 0.991938 0.947926
372 2 0.767255 0.589415 0.886616
373 2 0.129195 0.989082 0.489284
374 2 0.394635 0.418853 0.399397
375 2 0.398696 0.0289307 0.0134803
376 2 0.27549 0.428928 0.193035
377 2 0.703779 0.160961 0.246729
378 2 0.50608 0.420568 0.175031
379 2 0.394872 0.12827 0.272361
380 2 0.624998 0.245625 0.281981
381 2 0.34447 0.37764 0.890349
382 2 0.502308 0.358319 0.162908
383 2 0.993939 0.602223 0.0740961
384 2 0.0725737 0.100749 0.963884
385 2 0.0951549 0.611288 0.124745
386 2 0.689971 0.140735 0.0780446
387 2 0.561725 0.283925 0.0960996
388 2 0.111955 0.200131 0.277968
389 2 0.419569 0.361148 0.266022
390 2 0.572534 0.195263 0.449158
391 2 0.349918 0.00488483 0.84609
392 2 0.526098 0.991012 0.252234
393 2 0.210657 0.89419 0.279333
394 2 0.984622 0.279325 0.265589
395 2 0.276337 0.971114 0.605012
396 2 0.413951 0.344877 0.779252
397 2 0.374995 0.359499 0.590019
398 2 0.474148 0.665873 0.277675
399 2 0.462114 0.159308 0.0751563
400 2 0.737414 0.337799 0.505035
401 2 0.0321604 0.845482 0.0139832
402 2 0.969039 0.486136 0.867914
403 2 0.757123 0.0568554 0.579308
404 2 0.411988 0.327564 0.31972
405 2 0.398627 0.231373 0.900898
406 2 0.70914 0.349494 0.334084
407 2 0.200259 0.856516 0.279927
408 2 0.153244 0.169264 0.880705
409 2 0.345569 0.154314 0.418409
410 2 0.0948191 0.16675 0.1376
411 2 0.381933 0.14384 0.883638
412 2 0.161592 0.99212 0.466212
413 2 0.630221 0.210186 0.425018
414 2 0.415588 0.120258 0.371096
415 2 0.155001 0.520831 0.157443
416 2 0.529222 0.0643567 0.841373
417 2 0.159076 0.162878 0.265845
418 2 0.433293 0.0743897 0.279778
419 2 0.145169 0.278088 0.125308
420 2 0.285193 0.160832 0.125907
421 2 0.577127 0.802569 0.152099
422 2 0.0631265 0.0143921 0.0933303
423 2 0.472163 0.0713419 0.274167
424 2 0.168967 0.338351 0.416674
425 2 0.28174 0.374859 0.175637
426 2 0.337805 0.385104 0.0144131
427 2 0.102941 0.067455 0.105791
428 2 0.816973 0.665998 0.348418
429 2 0.321126 0.0303261 0.0899834
430 2 0.606327 0.307952 0.0204476
431 2 0.245145 0.0680849 0.243874
432 2 0.934082 0.779648 0.624327
433 2 0.454899 0.48961 0.469545
434 2 0.132731 0.123834 0.122072
435 2 0.867801 0.00206169 0.241547
436 2 0.125158 0.618709 0.077469
437 2 0.487046 0.871232 0.405622
438 2 0.150415 0.312428 0.347619
439 2 0.118684 0.365243 0.350691
440 2 0.198095 0.491536 0.239006
441 2 0.342117 0.739698 0.425345
442 2 0.423788 0.17276 0.236211
443 2 0.782565 0.407161 0.335382
444 2 0.467988 0.270245 0.835974
445 2 0.650891 0.242405 0.354539
446 2 0.169509 0.404976 0.213702
447 2 0.0684628 0.163153 0.247801
448 2 0.221938 0.437247 0.225996
449 2 0.18174 0.110246 0.409479
450 2 0.261437 0.330809 0.0220554
451 2 0.340335 0.428942 0.236022
452 2 0.102224 0.3756 0.205238
453 2 0.306611 0.244117 0.494643
454 2 0.880133 0.414628 0.312271
455 2 0.833457 0.447996 0.236808
456 2 0.398321 0.147546 0.0469079
457 2 0.71739 0.690039 0.0422546
458 2 0.10503 0.331696 0.0951489
459 2 0.0871707 0.865329 0.60598
460 2 0.508033 0.928624 0.242025
461 2 0.685874 0.318075 0.112431
462 2 0.535718 0.321719 0.742518
463 2 0.859581 0.622696 0.399782
464 2 0.927661 0.389801 0.536872
465 2 0.590872 0.00348458 0.150232
466 2 0.108579 0.959151 0.568391
467 2 0.194701 0.158795 0.192838
468 2 0.452745 0.231681 0.295781
469 2 0.348243 0.965634 0.356967
470 2 0.0936169 0.921864 0.0439082
471 2 0.287409 0.208398 0.0766623
472 2 0.214997 0.433696 0.187969
473 2 0.770047 0.820669 0.412985
474 2 0.227103 0.063206 0.826779
475 2 0.297691 0.304058 0.722464
476 2 0.0693759 0.257188 0.177396
477 2 0.159356 0.0783376 0.526978
478 2 0.201388 0.958468 0.217521
479 2 0.465461 0.706256 0.318642
480 2 0.719408 0.41654 0.95029
481 2 0.169329 0.425548 0.025038
482 2 0.898107 0.175361 0.166443
483 2 0.21509 0.248987 0.649653
484 2 0.653661 0.283128 0.871772
485 2 0.404414 0.472878 0.112177
486 2 0.0616501 0.218169 0.00718014
487 2 0.354167 0.614637 0.392133
488 2 0.47453 0.889538 0.205341
489 2 0.343699 0.265065 0.32164
490 2 0.426288 0.300626 0.42235
491 2 0.332557 0.753834 0.235821
492 2 0.681255 0.771348 0.967113
493 2 0.162244 0.478234 0.894752
494 2 0.207036 0.259521 0.405069
495 2 0.347969 0.209017 0.303252
496 2 0.0153306 0.0892155 0.19742
497 2 0.45859 0.749207 0.788048
498 2 0.894333 0.203064 0.217335
499 2 0.209492 0.191428 0.437611
500 2 0.525947 0.173395 0.201833
501 2 0.82305 0.351015 0.963698
502 2 0.0981552 0.269322 0.259815
503 2 0.709247 0.177979 0.990721
504 2 0.213829 0.666294 0.0772623
505 2 0.790979 0.279564 0.909425
506 2 0.10462 0.212767 0.338913
507 2 0.156097 0.960808 0.444955
508 2 0.167767 0.340269 0.592699
509 2 0.0741081 0.129802 0.204521
510 2 0.63419 0.854839 0.59783
511 2 0.96059 0.378785 0.080282
512 2 0.0831553 0.218359 0.370479
513 2 0.272889 0.570659 0.11589
514 2 0.500619 0.418752 0.55338
515 2 0.148138 0.943041 0.332969
516 2 0.484659 0.799475 0.44804
517 2 0.294034 0.140704 0.205868
518 2 0.7729 0.0668641 0.157434
519 2 0.0411857 0.468515 0.118121
520 2 0.753194 0.919937 0.381825
521 2 0.442481 0.340468 0.945722
522 2 0.314765 0.101645 0.152691
523 2 0.188443 0.27163 0.936084
524 2 0.460631 0.0798574 0.214943
525 2 0.0489607 0.377976 0.437079
526 2 0.256071 0.528903 0.465061
527 2 0.322556 0.220328 0.0857576
528 2 0.533007 0.184128 0.963899
529 2 0.354685 0.125306 0.442672
530 2 0.272275 0.441223 0.414185
531 2 0.815432 0.0747211 0.208631
532 2 0.771987 0.0365782 0.917167
533 2 0.463832 0.177316 0.562749
534 2 0.281753 0.957109 0.156089
535 2 0.442649 0.862312 0.918535
536 2 0.991986 0.238842 0.314879
537 2 0.121111 0.0204307 0.195994
538 2 0.109692 0.544391 0.385339
539 2 0.0810058 0.767088 0.390651
540 2 0.0114735 0.635074 0.0849973
541 2 0.350393 0.0800649 0.231799
542 2 0.366245 0.830252 0.656906
543 2 0.386392 0.876042 0.622355
544 2 0.04524 0.353797 0.111022
545 2 0.602462 0.366259 0.457136
546 2 0.900954 0.302371 0.0397493
547 2 0.0448673 0.303154 0.281114
548 2 0.0415406 0.617381 0.10321
549 2 0.180541 0.698722 0.335407
550 2 0.777536 0.4111 0.898251
551 2 0.125157 0.180003 0.192819
552 2 0.0521321 0.391729 0.114874
553 2 0.245704 0.050006 0.386243
554 2 0.152226 0.310304 0.75425
555 2 0.173886 0.479769 0.0723896
556 2 0.324225 0.269744 0.131791
557 2 0.534424 0.315137 0.986479
558 2 0.231199 0.144604 0.200768
559 2 0.842947 0.550941 0.124253
560 2 0.45565 0.171766 0.257797
561 2 0.00588867 0.506174 0.158603
562 2 0.0782334 0.115394 0.431283
563 2 0.303532 0.187564 0.258228
564 2 0.0856509 0.271245 0.669011
565 2 0.516105 0.315992 0.492372
566 2 0.926533 0.119084 0.0209363
567 2 0.430463 0.32884 0.0531711
568 2 0.38877 0.41451 0.155133
569 2 0.326457 0.0221382 0.245016
570 2 0.155549 0.162587 0.59761
571 2 0.275066 0.478427 0.0814489
572 2 0.27078 0.075418 0.331654
573 2 0.662621 0.358046 0.743649
574 2 0.0856114 0.113585 0.587116
575 2 0.461 0.571819 0.0661012
576 2 0.154152 0.0711934 0.369096
577 2 0.313923 0.172772 0.148882
578 2 0.277165 0.10801 0.602688
579 2 0.379293 0.968772 0.459039
580 2 0.524179 0.183027 0.488732
581 2 0.0584482 0.403797 0.179511
582 2 0.237845 0.205174 0.0207439
583 2 0.450046 0.941544 0.398752
584 2 0.929026 0.197768 0.0656027
585 2 0.218322 0.0937878 0.22766
586 2 0.187825 0.176782 0.329259
587 2 0.527502 0.152503 0.0574182
588 2 0.507124 0.557122 0.145036
589 2 0.151993 0.289084 0.378735
590 2 0.137878 0.457117 0.703525
591 2 0.159553 0.561987 0.788989
592 2 0.0764536 0.451287 0.339538
593 2 0.359166 0.769586 0.66976
594 2 0.0837462 0.354458 0.274028
595 2 0.0508414 0.215871 0.305703
596 2 0.849705 0.130069 0.102823
597 2 0.995669 0.333198 0.118913
598 2 0.364753 0.000259949 0.313894
599 2 0.418872 0.140171 0.601231
600 2 0.350244 0.0998738 0.990431
601 2 0.290194 0.900477 0.0773947
602 2 0.0186523 0.126741 0.992152
603 2 0.480813 0.290592 0.260906
604 2 0.983902 0.0122533 0.954193
605 2 0.191466 0.484528 0.585654
606 2 0.301647 0.962449 0.73164
607 2 0.411655 0.268488 0.112363
608 2 0.546457 0.0832629 0.539083
609 2 0.858969 0.466826 0.257837
610 2 0.355792 0.212922 0.61942
611 2 0.310132 0.452827 0.2405
612 2 0.0883474 0.401417 0.0251708
613 2 0.466806 0.403488 0.63314
614 2 0.284215 0.290664 0.310953
615 2 0.918261 0.291184 0.072755
616 2 0.485903 0.867174 0.124903
617 2 0.294027 0.504374 0.626514
618 2 0.316161 0.280666 0.747294
619 2 0.326894 0.13567 0.242636
620 2 0.957027 0.577817 0.399314
621 2 0.709922 0.347168 0.448169
622 2 0.830406 0.318534 0.843251
623 2 0.190098 0.284084 0.200705
624 2 0.302863 0.6383 0.25839
625 2 0.206803 0.4909 0.664452
626 2 0.0908646 0.21308 0.479177
627 2 0.0260867 0.244951 0.294836
628 2 0.17011 0.406105 0.145131
629 2 0.550527 0.368215 0.331119
630 2 0.19784 0.120385 0.50025
631 2 0.226434 0.303284 0.481072
632 2 0.293078 0.152622 0.242659
633 2 0.625106 0.0675071 0.292551
634 2 0.857319 0.175789 0.38845
635 2 0.401877 0.0514628 0.16679
636 2 0.0634868 0.516633 0.320466
637 2 0.515699 0.598226 0.960648
638 2 0.338138 0.567836 0.327337
639 2 0.495481 0.22585 0.793097
640 2 0.44801 0.31274 0.486778
641 2 0.235414 0.400467 0.876164
642 2 0.881657 0.980322 0.210829
643 2 0.298726 0.446954 0.387114
644 2 0.196741 0.317549 0.0197417
645 2 0.201221 0.278456 0.165055
646 2 0.890521 0.354558 0.199868
647 2 0.194646 0.343063 0.163561
648 2 0.341133 0.104998 0.258909
649 2 0.891151 0.193391 0.071679
650 2 0.852839 0.943691 0.0626613
651 2 0.599105 0.620147 0.779373
652 2 0.0346544 0.875515 0.958473
653 2 0.500903 0.435321 0.521041
654 2 0.753954 0.245893 0.952636
655 2 0.171362 0.159208 0.793312
656 2 0.339433 0.14732 0.304089
657 2 0.216111 0.0437108 0.504839
658 2 0.390624 0.353337 0.168781
659 2 0.348767 0.212849 0.40029
660 2 0.584212 0.530666 0.336718
661 2 0.299151 0.692374 0.495433
662 2 0.568755 0.0940903 0.956444
663 2 0.457709 0.0927274 0.735483
664 2 0.219135 0.645491 0.297964
665 2 0.251374 0.333332 0.0825517
666 2 0.589853 0.201339 0.146994
667 2 0.280352 0.190967 0.394926
668 2 0.863726 0.439462 0.412836
669 2 0.176519 0.697687 0.28168
670 2 0.0287649 0.50125 0.312747
671 2 0.453038 0.523225 0.125869
672 2 0.352449 0.157098 0.341015
673 2 0.181698 0.525358 0.512482
674 2 0.15315 0.39388 0.698748
675 2 0.1195 0.302746 0.259554
676 2 0.751195 0.214067 0.524498
677 2 0.99085 0.234493 0.180412
678 2 0.977529 0.318128 0.0619705
679 2 0.331523 0.396813 0.318582
680 2 0.537325 0.397424 0.833835
681 2 0.327227 0.249527 0.903612
682 2 0.944727 0.399246 0.844251
683 2 0.52315 0.794007 0.303083
684 2 0.15303 0.0339092 0.178449
685 2 0.359097 0.445641 0.896434
686 2 0.918439 0.199197 0.188733
687 2 0.1863 0.659521 0.104048
688 2 0.14403 0.328224 0.0412975
689 2 0.389012 0.418237 0.0484781
690 2 0.287871 0.222483 0.177024
691 2 0.6953 0.381036 0.433322
692 2 0.409005 0.185314 0.298395
693 2 0.0718104 0.289663 0.986877
694 2 0.292433 0.0994711 0.42592
695 2 0.191454 0.0197521 0.375349
696 2 0.0369278 0.492123 0.975922
697 2 0.21959 0.99746 0.618153
698 2 0.134496 0.354529 0.212115
699 2 0.969466 0.199304 0.266832
700 2 0.167032 0.971415 0.0773991
701 2 0.0908492 0.0555825 0.323374
702 2 0.0961151 0.38861 0.330604
703 2 0.435823 0.786537 0.96952
704 2 0.417002 0.264815 0.0492529
705 2 0.156268 0.560034 0.149595
706 2 0.0974248 0.395691 0.172619
707 2 0.146238 0.586453 0.273793
708 2 0.0443898 0.35964 0.930099
709 2 0.233299 0.0825471 0.881862
710 2 0.40346 0.644354 0.162413
711 2 0.242042 0.359963 0.480275
712 2 0.0784812 0.518276 0.285572
713 2 0.332069 0.992723 0.196991
714 2 0.511477 0.277813 0.0307831
715 2 0.703866 0.780461 0.653494
716 2 0.235248 0.0436374 0.215981
717 2 0.0323482 0.466396 0.429355
718 2 0.264951 0.469202 0.0220658
719 2 0.917649 0.315284 0.451753
720 2 0.78117 0.849727 0.390035
721 2 0.449308 0.16763 0.348552
722 2 0.196088 0.648655 0.894261
723 2 0.11353 0.146627 0.312997
724 2 0.419044 0.483899 0.760847
725 2 0.0865093 0.936893 0.107983
726 2 0.481201 0.455863 0.306392
727 2 0.182246 0.447614 0.428293
728 2 0.41642 0.154805 0.108776
729 2 0.841217 0.811636 0.402302
730 2 0.38765 0.403003 0.285082
731 2 0.00668192 0.138119 0.493405
732 2 0.412212 0.419337 0.326028
733 2 0.469852 0.304575 0.166331
734 2 0.261549 0.267399 0.200057
735 2 0.875526 0.497726 0.23847
736 2 0.580597 0.0510679 0.370406
737 2 0.717051 0.273573 0.18478
738 2 0.281025 0.462253 0.116013
739 2 0.146207 0.328773 0.859857
740 2 0.214832 0.44258 0.921818
741 2 0.212033 0.54336 0.605467
742 2 0.302405 0.313524 0.968641
743 2 0.952242 0.364401 0.982101
744 2 0.9965 0.234402 0.0464264
745 2 0.420073 0.140816 0.438524
746 2 0.280092 0.134355 0.439618
747 2 0.0479206 0.0111534 0.021934
748 2 0.787338 0.0547037 0.263687
749 2 0.424803 0.240183 0.238458
750 2 0.360341 0.235318 0.678978
751 2 0.0340516 0.26456 0.231176
752 2 0.408315 0.359339 0.0419836
753 2 0.267247 0.234943 0.533954
754 2 0.44047 0.103217 0.522328
755 2 0.384372 0.566434 0.364836
756 2 0.428827 0.175809 0.171529
757 2 0.42314 0.627996 0.540189
758 2 0.828775 0.991173 0.176401
759 2 0.0616573 0.579742 0.314605
760 2 0.476638 0.157139 0.137427
761 2 0.0584715 0.253299 0.8435
762 2 0.950253 0.377722 0.333351
763 2 0.36781 0.428605 0.951157
764 2 0.446852 0.60496 0.277048
765 2 0.182639 0.412315 0.482992
766 2 0.0253 0.91165 0.0328937
767 2 0.971771 0.638572 0.931775
768 2 0.00615573 0.475859 0.135858
769 2 0.351673 0.291621 0.111696
770 2 0.157611 0.341006 0.152019
771 2 0.244437 0.102495 0.341824
772 2 0.242828 0.212817 0.126631
773 2 0.869306 0.114472 0.496711
774 2 0.146914 0.210828 0.639506
775 2 0.285486 0.948657 0.461132
776 2 0.217698 0.246266 0.882375
777 2 0.00520354 0.967735 0.0442241
778 2 0.350189 0.549583 0.272356
779 2 0.0544182 0.0364122 0.185526
780 2 0.382023 0.325251 0.992584
781 2 0.588396 0.384683 0.488393
782 2 0.04533 0.36244 0.225498
783 2 0.958128 0.440975 0.106972
784 2 0.259281 0.121766 0.0508396
785 2 0.108863 0.381581 0.138321
786 2 0.409727 0.325924 0.187715
787 2 0.304577 0.982312 0.790966
788 2 0.484599 0.401199 0.473691
789 2 0.158211 0.377543 0.268502
790 2 0.274441 0.678353 0.377522
791 2 0.230624 0.135886 0.0997777
792 2 0.277885 0.28757 0.45656
793 2 0.0428888 0.076073 0.888451
794 2 0.46058 0.963853 0.305005
795 2 0.0428643 0.333646 0.0472509
796 2 0.34253 0.294701 0.470645
797 2 0.375508 0.615513 0.160323
798 2 0.157361 0.78402 0.00203074
799 2 0.204413 0.12443 0.246909
800 2 0.722895 0.881079 0.327255
801 2 0.468471 0.97997 0.0802709
802 2 0.552685 0.335577 0.186601
803 2 0.274863 0.523425 0.20885
804 2 0.0747056 0.213637 0.42779
805 2 0.220497 0.108678 0.41543
806 2 0.331679 0.268387 0.0588027
807 2 0.142951 0.434565 0.144988
808 2 0.331742 0.41314 0.608758
809 2 0.0325713 0.177049 0.0430687
810 2 0.240483 0.358268 0.269855
811 2 0.393211 0.331921 0.473229
812 2 0.314167 0.0538097 0.119477
813 2 0.0475155 0.107808 0.593361
814 2 0.360528 0.382357 0.481394
815 2 0.255959 0.0226195 0.411015
816 2 0.0254697 0.450913 0.0867001
817 2 0.19007 0.317534 0.752198
818 2 0.111005 0.496934 0.0671848
819 2 0.193065 0.843183 0.538964
820 2 0.0851145 0.246658 0.0889492
821 2 0.676692 0.265998 0.930577
822 2 0.503686 0.153271 0.474712
823 2 2.51053e-05 0.216652 0.101017
824 2 0.498641 0.269014 0.666299
825 2 0.388594 0.0650695 0.759088
826 2 0.789837 0.43669 0.12347
827 2 0.136032 0.554113 0.958525
828 2 0.473349 0.625132 0.330841
829 2 0.17433 0.0510071 0.428189
830 2 0.0904524 0.405021 0.512937
831 2 0.0261634 0.180223 0.202268
832 2 0.303607 0.195588 0.33151
833 2 0.949493 0.173074 0.087144
834 2 0.708097 0.795411 0.367455
835 2 0.721848 0.204007 0.908259
836 2 0.392549 0.385494 0.318913
837 2 0.110434 0.173747 0.340429
838 2 0.582439 0.493524 0.0805652
839 2 0.327418 0.893697 0.93713
840 2 0.490893 0.319278 0.11463
841 2 0.628641 0.462019 0.523068
842 2 0.961941 0.252813 0.0537414
843 2 0.206369 0.645018 0.199275
844 2 0.53659 0.156502 0.259052
845 2 0.908629 0.205461 0.37224
846 2 0.512038 0.839334 0.336418
847 2 0.111478 0.988929 0.97954
848 2 0.154328 0.17404 0.467192
849 2 0.464515 0.374619 0.493373
850 2 0.816193 0.206926 0.809227
851 2 0.397294 0.0826426 0.462855
852 2 0.549432 0.333598 0.282055
853 2 0.0533517 0.231798 0.615442
854 2 0.134924 0.431675 0.645833
855 2 0.354178 0.138607 0.478867
856 2 0.420856 0.211727 0.0710451
857 2 0.993867 0.317014 0.00205799
858 2 0.315951 0.378522 0.935309
859 2 0.185466 0.353854 0.447443
860 2 0.603451 0.036239 0.093062
861 2 0.253245 0.0543263 0.602375
862 2 0.115562 0.416178 0.812768
863 2 0.391993 0.718779 0.862372
864 2 0.107618 0.339609 0.0331275
865 2 0.776311 0.278795 0.315457
866 2 0.266289 0.346398 0.293951
867 2 0.435862 0.529485 0.350884
868 2 0.918058 0.123266 0.811611
869 2 0.515616 0.505042 0.475164
870 2 0.184217 0.236567 0.118069
871 2 0.941459 0.381812 0.163672
872 2 0.964864 0.192166 0.769181
873 2 0.499967 0.33014 0.523747
874 2 0.924941 0.136129 0.292362
875 2 0.460751 0.189592 0.151867
876 2 0.263781 0.313171 0.115165
877 2 0.228165 0.305225 0.250228
878 2 0.138036 0.298976 0.632857
879 2 0.969147 0.276281 0.109982
880 2 0.276902 0.219825 0.810892
881 2 0.19001 0.84653 0.592053
882 2 0.200009 0.253919 0.223527
883 2 0.143526 0.387215 0.940894
884 2 0.230788 0.111507 0.522044
885 2 0.933182 0.444939 0.415048
886 2 0.224415 0.372512 0.989665
887 2 0.00473811 0.284615 0.210496
888 2 0.981258 0.300977 0.332955
889 2 0.903216 0.196328 0.134247
890 2 0.575788 0.207243 0.260224
891 2 0.0747007 0.904617 0.416714
892 2 0.24741 0.42923 0.166414
893 2 0.987232 0.140359 0.294428
894 2 0.928281 0.966488 0.416785
895 2 0.733121 0.332093 0.900929
896 2 0.146119 0.502282 0.427956
897 2 0.0778088 0.345599 0.214683
898 2 0.199627 0.125372 0.0785202
899 2 0.219257 0.189075 0.239015
900 2 0.282635 0.275906 0.27226
901 2 0.151692 0.292284 0.203632
902 2 0.282184 0.410339 0.468906
903 2 0.391745 0.200582 0.459955