ITEM: TIMESTEP
184253
ITEM: NUMBER OF ATOMS
13000
ITEM: BOX BOUNDS pp pp pp
-1.2982263498612114e+00 5.9219409956037268e+01
-1.2982263498612114e+00 5.9219409956037268e+01
-1.2982263498612114e+00 6.4918317051425532e+01
ITEM: ATOMS id type xs ys zs
1 2 0.373542 0.0312446 0.585254
2 2 0.0954129 0.102593 0.357839
3 2 0.231502 0.918796 0.0804221
4 2 0.100412 0.0065389 0.287105
5 2 0.107054 0.0957153 0.0301949
6 2 0.396825 0.387064 0.180216
7 2 0.399137 0.239152 0.327779
8 2 0.660425 0.881306 0.164716
9 2 0.191787 0.992939 0.810279
10 2 0.524432 0.239106 0.407575
11 2 0.456378 0.113079 0.558662
12 2 0.857112 0.441572 0.377126
13 2 0.0611563 0.283943 0.252392
14 2 0.241839 0.247763 0.228199
15 2 0.12561 0.484504 0.773075
16 2 0.260877 0.403766 0.414808
17 2 0.156976 0.276634 0.959
18 2 0.410549 0.237304 0.167006
19 2 0.395857 0.458943 0.529457
20 2 0.823788 0.420263 0.764739
21 2 0.953862 0.284544 0.171838
22 2 0.113035 0.166492 0.0431222
23 2 0.716368 0.448758 0.97304
24 2 0.0897509 0.274944 0.363725
25 2 0.402045 0.241615 0.0207335
26 2 0.622237 0.39355 0.60672
27 2 0.293794 0.121686 0.955243
28 2 0.392597 0.11184 0.437166
29 2 0.00360847 0.185988 0.985287
30 2 0.284893 0.144367 0.47628
31 2 0.189416 0.0683783 0.223204
32 2 0.0408948 0.474199 0.287145
33 2 0.353749 0.198093 0.0709782
34 2 0.741213 0.61135 0.0989806
35 2 0.280145 0.183984 0.358544
36 2 0.341414 0.195168 0.335544
37 2 0.126991 0.0103711 0.415275
38 2 0.920806 0.624653 0.299232
39 2 0.246127 0.456068 0.13663
40 2 0.871271 0.826575 0.350486
41 2 0.801662 0.195834 0.368667
42 2 0.42257 0.399886 0.268204
43 2 0.289181 0.360847 0.750635
44 2 0.739003 0.235076 0.629036
45 2 0.180893 0.942361 0.531861
46 2 0.432348 0.529914 0.517754
47 2 0.0385189 0.400994 0.98249
48 2 0.329327 0.287479 0.411363
49 2 0.13769 0.904951 0.994326
50 2 0.2161 0.160635 0.379795
51 2 0.820632 0.338034 0.447427
52 2 0.385883 0.215344 0.301681
53 2 0.226542 0.22377 0.352882
54 2 0.309987 0.514401 0.948277
55 2 0.0111352 0.422314 0.858203
56 2 0.670898 0.284301 0.100092
57 2 0.497837 0.443106 0.00580662
58 2 0.353633 0.474301 0.169608
59 2 0.942751 0.0808357 0.855028
60 2 0.753983 0.348503 0.302149
61 2 0.393523 0.258862 0.0787836
62 2 0.185532 0.42492 0.242483
63 2 0.0594425 0.293842 0.101954
64 2 0.729225 0.117727 0.139744
65 2 0.191075 0.481798 0.304537
66 2 0.361026 0.505244 0.148702
67 2 0.347164 0.425613 0.554133
68 2 0.301094 0.487829 0.39101
69 2 0.712491 0.555693 0.659399
70 2 0.145071 0.45084 0.0791843
71 2 0.804038 0.373886 0.445405
72 2 0.152142 0.371043 0.331925
73 2 0.311582 0.0200386 0.0314351
74 2 0.157095 0.273062 0.997122
75 2 0.225815 0.391966 0.681278
76 2 0.681424 0.331108 0.630893
77 2 0.00467722 0.309534 0.278559
78 2 0.0571729 0.118365 0.463022
79 2 0.109537 0.652166 0.205768
80 2 0.582944 0.933717 0.140593
81 2 0.229825 0.151134 0.236794
82 2 0.202567 0.426554 0.957481
83 2 0.465641 0.32866 0.0363792
84 2 0.157317 0.450541 0.25506
85 2 0.355527 0.23986 0.221755
86 2 0.296646 0.133976 0.100721
87 2 0.263721 0.12002 0.371776
88 2 0.304957 0.127403 0.298585
89 2 0.283139 0.293624 0.490458
90 2 0.020412 0.196383 0.127389
91 2 0.0514928 0.239986 0.411896
92 2 0.274464 0.572384 0.590959
93 2 0.300172 0.251712 0.360696
94 2 0.458559 0.193549 0.620328
95 2 0.366167 0.0167453 0.235508
96 2 0.278071 0.0644357 0.367924
97 2 0.660227 0.152212 0.35993
98 2 0.538101 0.392756 0.977448
99 2 0.99341 0.429994 0.54906
100 2 0.1447 0.200493 0.987696
101 2 0.337949 0.182429 0.204517
102 2 0.619127 0.058864 0.371694
103 2 0.666138 0.0900345 0.150232
104 2 0.699899 0.953686 0.372156
105 2 0.418072 0.159774 0.325132
106 2 0.299556 0.615441 0.556357
107 2 0.145806 0.143198 0.0453146
108 2 0.255519 0.519144 0.285738
109 2 0.30409 0.371241 0.0971624
110 2 0.31607 0.41154 0.140229
111 2 0.96481 0.168967 0.831992
112 2 0.155645 0.223186 0.418427
113 2 0.425992 0.471887 0.549535
114 2 0.375635 0.985096 0.254455
115 2 0.196009 0.371156 0.0809484
116 2 0.299213 0.506899 0.515682
117 2 0.783367 0.42626 0.220406
118 2 0.137604 0.438249 0.321332
119 2 0.29027 0.823992 0.464449
120 2 0.700042 0.140488 0.212582
121 2 0.827726 0.858723 0.813029
122 2 0.139641 0.957326 0.273202
123 2 0.967044 0.236229 0.112132
124 2 0.356582 0.352022 0.284394
125 2 0.31799 0.0356929 0.418107
126 2 0.461333 0.495564 0.681459
127 2 0.147102 0.605816 0.0523097
128 2 0.111241 0.124901 0.216718
129 2 0.265454 0.37647 0.531995
130 2 0.174021 0.277781 0.0630073
131 2 0.429116 0.917364 0.37815
132 2 0.266978 0.0723488 0.438877
133 2 0.176021 0.106759 0.761515
134 2 0.444954 0.46384 0.411759
135 2 0.334962 0.0730711 0.167859
136 2 0.381742 0.463277 0.29099
137 2 0.775892 0.17414 0.00756791
138 2 0.578628 0.462653 0.306669
139 2 0.194084 0.215445 0.332036
140 2 0.418738 0.0480411 0.843786
141 2 0.247595 0.0136957 0.124896
142 2 0.367465 0.993406 0.572796
143 2 0.0491103 0.253354 0.147036
144 2 0.694319 0.236137 0.990166
145 2 0.497306 0.548355 0.285667
146 2 0.293566 0.149433 0.814819
147 2 0.462504 0.0134914 0.253941
148 2 0.124039 0.226926 0.969525
149 2 0.0559742 0.190664 0.0718714
150 2 0.548766 0.097157 0.234938
151 2 0.560682 0.418893 0.995117
152 2 0.52905 0.133199 0.109877
153 2 0.168367 0.413395 0.372942
154 2 0.318818 0.261834 0.262717
155 2 0.854913 0.337477 0.199782
156 2 0.0762127 0.141918 0.312031
157 2 0.0647527 0.331688 0.298114
158 2 0.366394 0.787272 0.607232
159 2 0.336399 0.179939 0.27868
160 2 0.743425 0.36516 0.972923
161 2 0.39238 0.842689 0.125542
162 2 0.176708 0.265244 0.252286
163 2 0.057117 0.385859 0.328259
164 2 0.356434 0.152134 0.545061
165 2 0.784508 0.320717 0.1447
166 2 0.322149 0.158215 0.489531
167 2 0.131816 0.623239 0.40587
168 2 0.608766 0.940673 0.573766
169 2 0.232591 0.513557 0.377109
170 2 0.646308 0.585192 0.257518
171 2 0.0499396 0.159448 0.951471
172 2 0.96881 0.169656 0.985838
173 2 0.50952 0.233494 0.718908
174 2 0.241502 0.500739 0.410725
175 2 0.305608 0.0522994 0.854213
176 2 0.144517 0.331919 0.0930736
177 2 0.487205 0.369161 0.252384
178 2 0.290617 0.255982 0.647171
179 2 0.289822 0.391881 0.43606
180 2 0.304143 0.942981 0.0262193
181 2 0.401262 0.868231 0.366246
182 2 0.321708 0.496139 0.459327
183 2 0.328072 0.364538 0.225635
184 2 0.300771 0.436037 0.270859
185 2 0.159851 0.234246 0.179285
186 2 0.454533 0.398156 0.138387
187 2 0.31516 0.403212 0.350935
188 2 0.289603 0.213489 0.936448
189 2 0.915376 0.529728 0.0330932
190 2 0.316691 0.0318088 0.281963
191 2 0.247939 0.783166 0.396865
192 2 0.800197 0.147169 0.991402
193 2 0.12841 0.591582 0.239614
194 2 0.533956 0.180964 0.618667
195 2 0.192555 0.409554 0.0809046
196 2 0.487726 0.402449 0.119148
197 2 0.0934933 0.273729 0.935064
198 2 0.387695 0.139448 0.0816667
199 2 0.54336 0.341512 0.244175
200 2 0.154225 0.232528 0.0955469
201 2 0.460773 0.0728831 0.173654
202 2 0.738645 0.480584 0.962743
203 2 0.469332 0.749359 0.415478
204 2 0.224091 0.0111709 0.429058
205 2 0.356344 0.367297 0.318539
206 2 0.259868 0.0424203 0.312164
207 2 0.620712 0.140036 0.078834
208 2 0.224424 0.223725 0.184462
209 2 0.197856 0.365724 0.0450383
210 2 0.454578 0.142083 0.108967
211 2 0.0999405 0.382941 0.292527
212 2 0.302666 0.941525 0.904366
213 2 0.816545 0.190693 0.513143
214 2 0.161357 0.218568 0.0622894
215 2 0.253134 0.447065 0.911472
216 2 0.42991 0.412143 0.113723
217 2 0.175209 0.344954 0.349523
218 2 0.0941372 0.998616 0.431515
219 2 0.378178 0.824843 0.0218285
220 2 0.116206 0.960008 0.381727
221 2 0.277798 0.0688114 0.521499
222 2 0.101039 0.209108 0.402085
223 2 0.198209 0.359195 0.867126
224 2 0.112615 0.868145 0.16805
225 2 0.608463 0.0202863 0.261186
226 2 0.963774 0.226971 0.152731
227 2 0.487793 0.1694 0.715403
228 2 0.0717847 0.791632 0.0754754
229 2 0.980353 0.167151 0.244492
230 2 0.497542 0.0368569 0.742457
231 2 0.507696 0.343474 0.229738
232 2 0.45201 0.0294003 0.375453
233 2 0.979348 0.515277 0.276222
234 2 0.0792511 0.971788 0.372773
235 2 0.501387 0.0891239 0.00121949
236 2 0.595454 0.176883 0.865758
237 2 0.332233 0.430652 0.298148
238 2 0.825863 0.973576 0.553122
239 2 0.0646571 0.812475 0.133589
240 2 0.629526 0.426182 0.312418
241 2 0.259438 0.385657 0.381847
242 2 0.439416 0.921754 0.0605662
243 2 0.567998 0.336499 0.977138
244 2 0.0198129 0.242776 0.0775465
245 2 0.718201 0.223894 0.0434127
246 2 0.954703 0.140458 0.0392087
247 2 0.684488 0.193365 0.404288
248 2 0.110611 0.713606 0.426888
249 2 0.515218 0.114541 0.28108
250 2 0.249906 0.919247 0.810339
251 2 0.432457 0.474106 0.27734
252 2 0.444507 0.287907 0.10458
253 2 0.204465 0.13126 0.298568
254 2 0.971009 0.0757279 0.474542
255 2 0.817135 0.646256 0.439438
256 2 0.00470953 0.360039 0.31181
257 2 0.384101 0.0158536 0.164693
258 2 0.643734 0.262679 0.220031
259 2 0.331521 0.381337 0.121776
260 2 0.164995 0.0171313 0.517971
261 2 0.981074 0.215483 0.924321
262 2 0.434834 0.0339036 0.454999
263 2 0.0703938 0.641393 0.11834
264 2 0.942362 0.215441 0.353018
265 2 0.108474 0.859229 0.959771
266 2 0.215726 0.374467 0.173563
267 2 0.293789 0.100777 0.205809
268 2 0.374357 0.509255 0.578197
269 2 0.274299 0.372866 0.32058
270 2 0.156571 0.314296 0.123344
271 2 0.286877 0.811806 0.269342
272 2 0.0547835 0.179473 0.0136717
273 2 0.205566 0.0130108 0.161686
274 2 0.310919 0.0210931 0.947726
275 2 0.438612 0.377704 0.643861
276 2 0.312041 0.408684 0.769966
277 2 0.303861 0.115198 0.799635
278 2 0.0566762 0.18947 0.369431
279 2 0.701098 0.106381 0.335052
280 2 0.254126 0.405355 0.314834
281 2 0.189666 0.224477 0.200854
282 2 0.519402 0.297713 0.319335
283 2 0.549881 0.733263 0.602865
284 2 0.124162 0.0765363 0.319143
285 2 0.32114 0.156319 0.183029
286 2 0.234144 0.522169 0.0989283
287 2 0.0570229 0.230651 0.0691733
288 2 0.82095 0.248364 0.062747
289 2 0.0183666 0.110701 0.139001
290 2 0.0837772 0.278627 0.322783
291 2 0.509995 0.212731 0.382358
292 2 0.22266 0.391338 0.267078
293 2 0.681745 0.10656 0.394316
294 2 0.105391 0.325472 0.171256
295 2 0.0859755 0.907468 0.601372
296 2 0.868357 0.382759 0.266634
297 2 0.416475 0.288568 0.270598
298 2 0.750835 0.175429 0.910195
299 2 0.0898521 0.640458 0.837149
300 2 0.350638 0.208129 0.951744
301 2 0.986145 0.249459 0.734133
302 2 0.424544 0.133209 0.298211
303 2 0.287438 0.868435 0.412227
304 2 0.89707 0.0703099 0.204614
305 2 0.543335 0.0901285 0.269651
306 2 0.484048 0.51313 0.174552
307 2 0.248459 0.503194 0.576179
308 2 0.960958 0.426415 0.985062
309 2 0.874734 0.281632 0.553843
310 2 0.585985 0.704137 0.39055
311 2 0.298833 0.254076 0.195934
312 2 0.13461 0.240285 0.504747
313 2 0.417877 0.270483 0.396219
314 2 0.394784 0.341208 0.287247
315 2 0.422048 0.838889 0.325308
316 2 0.36648 0.28219 0.492281
317 2 0.141494 0.951719 0.88238
318 2 0.0610178 0.0777165 0.11034
319 2 0.355748 0.0586203 0.0453743
320 2 0.256624 0.33422 0.876326
321 2 0.634274 0.369603 0.277034
322 2 0.235322 0.0716703 0.416337
323 2 0.497611 0.0577335 0.297033
324 2 0.393332 0.150804 0.353424
325 2 0.0650376 0.513291 0.194776
326 2 0.212491 0.192817 0.276911
327 2 0.354679 0.10531 0.924381
328 2 0.592909 0.428637 0.783939
329 2 0.0606123 0.326323 0.381173
330 2 0.543083 0.299494 0.021091
331 2 0.132435 0.256818 0.197049
332 2 0.485507 0.570022 0.540873
333 2 0.447593 0.359591 0.13872
334 2 0.566919 0.27381 0.454147
335 2 0.230453 0.198895 0.158034
336 2 0.106437 0.114458 0.973921
337 2 0.246239 0.226009 0.901916
338 2 0.998629 0.134235 0.115661
339 2 0.452744 0.117051 0.796291
340 2 0.458158 0.940292 0.26873
341 2 0.269362 0.305985 0.24934
342 2 0.667477 0.0233843 0.292643
343 2 0.197889 0.667269 0.271645
344 2 0.465964 0.899708 0.268214
345 2 0.728409 0.0875668 0.255196
346 2 0.497076 0.079068 0.458182
347 2 0.304661 0.0368406 0.364557
348 2 0.159733 0.0863317 0.430525
349 2 0.460807 0.492015 0.392255
350 2 0.40735 0.382373 0.589825
351 2 0.37626 0.861891 0.289324
352 2 0.0207636 0.453622 0.19852
353 2 0.707865 0.261473 0.246464
354 2 0.247506 0.183905 0.446203
355 2 0.128053 0.141128 0.186249
356 2 0.291779 0.0961482 0.385586
357 2 0.53737 0.893747 0.167654
358 2 0.443385 0.0458899 0.123361
359 2 0.256839 0.160924 0.979879
360 2 0.516072 0.4382 0.257981
361 2 0.301327 0.439861 0.348651
362 2 0.0239341 0.283249 0.0882327
363 2 0.726621 0.151066 0.0889843
364 2 0.541885 0.214717 0.242515
365 2 0.0177655 0.382657 0.628979
366 2 0.240352 0.452903 0.27931
367 2 0.262416 0.727096 0.970217
368 2 0.522175 0.785366 0.0492808
369 2 0.00867771 0.48867 0.342576
370 2 0.342098 0.129144 0.0159795
371 2 0.23141 0.990857 0.949294
372 2 0.767065 0.589552 0.885364
373 2 0.130236 0.98909 0.487247
374 2 0.395014 0.419207 0.397811
375 2 0.398078 0.027711 0.0140144
376 2 0.273981 0.42815 0.191651
377 2 0.700939 0.160709 0.244464
378 2 0.505987 0.4202 0.174989
379 2 0.394752 0.127991 0.270364
380 2 0.625134 0.246236 0.28103
381 2 0.344478 0.377681 0.891534
382 2 0.50252 0.358139 0.16238
383 2 0.994432 0.601511 0.0748609
384 2 0.0718036 0.10096 0.964359
385 2 0.0947252 0.61112 0.125217
386 2 0.690052 0.141107 0.0767911
387 2 0.562089 0.284089 0.0957966
388 2 0.110994 0.199788 0.2775
389 2 0.419384 0.361348 0.264457
390 2 0.572943 0.196109 0.451258
391 2 0.350647 0.00424748 0.84703
392 2 0.525272 0.990323 0.24777
393 2 0.210413 0.893985 0.279728
394 2 0.983941 0.279465 0.264357
395 2 0.277156 0.972314 0.606207
396 2 0.41391 0.343804 0.782115
397 2 0.37427 0.362763 0.580474
398 2 0.473241 0.666512 0.277412
399 2 0.462193 0.158635 0.0759173
400 2 0.737649 0.33718 0.505029
401 2 0.0326413 0.844857 0.0137895
402 2 0.96887 0.485818 0.868132
403 2 0.757919 0.056641 0.586645
404 2 0.412229 0.327683 0.318109
405 2 0.398467 0.231639 0.902463
406 2 0.7092 0.349769 0.335177
407 2 0.199569 0.856201 0.280179
408 2 0.15264 0.168703 0.884113
409 2 0.347503 0.153873 0.422256
410 2 0.0938114 0.166211 0.137268
411 2 0.382019 0.143302 0.885598
412 2 0.162534 0.991339 0.464838
413 2 0.629229 0.209802 0.424399
414 2 0.416072 0.120116 0.371582
415 2 0.154541 0.520707 0.157872
416 2 0.528939 0.065016 0.842552
417 2 0.159224 0.163427 0.267164
418 2 0.433809 0.0745971 0.276236
419 2 0.144734 0.277488 0.125555
420 2 0.284914 0.160494 0.126325
421 2 0.577718 0.801667 0.151254
422 2 0.0653541 0.0135473 0.099621
423 2 0.47275 0.0711947 0.269678
424 2 0.168799 0.338316 0.415176
425 2 0.280011 0.373659 0.173503
426 2 0.338094 0.385225 0.0158611
427 2 0.101875 0.0673685 0.101192
428 2 0.815325 0.667495 0.35168
429 2 0.320192 0.0304692 0.0899545
430 2 0.606845 0.308525 0.0208131
431 2 0.244692 0.0675163 0.243994
432 2 0.935418 0.781031 0.630359
433 2 0.455565 0.490207 0.466336
434 2 0.131323 0.122469 0.122088
435 2 0.867512 0.00325824 0.237944
436 2 0.125305 0.618517 0.0805038
437 2 0.487972 0.872129 0.402765
438 2 0.150088 0.311909 0.347049
439 2 0.118115 0.365537 0.349564
440 2 0.197294 0.49169 0.237614
441 2 0.342133 0.739437 0.425831
442 2 0.423491 0.172686 0.234986
443 2 0.782034 0.406262 0.335357
444 2 0.468287 0.270113 0.836778
445 2 0.650315 0.242811 0.354391
446 2 0.169264 0.404888 0.2136
447 2 0.0688526 0.162567 0.24695
448 2 0.221569 0.437978 0.224571
449 2 0.181327 0.109768 0.408137
450 2 0.261615 0.330658 0.0217716
451 2 0.332857 0.431013 0.221133
452 2 0.10294 0.376227 0.205548
453 2 0.308648 0.244651 0.492299
454 2 0.8803 0.414461 0.313816
455 2 0.833747 0.447784 0.237797
456 2 0.397656 0.146943 0.0466978
457 2 0.716976 0.688917 0.0407421
458 2 0.106559 0.33334 0.0912846
459 2 0.0867446 0.866733 0.606212
460 2 0.506339 0.927145 0.238695
461 2 0.68755 0.319108 0.111185
462 2 0.530722 0.325744 0.74355
463 2 0.859084 0.622939 0.400955
464 2 0.92733 0.389384 0.536504
465 2 0.59084 0.00323227 0.148363
466 2 0.0990192 0.961449 0.571725
467 2 0.194656 0.159701 0.191934
468 2 0.452286 0.23085 0.295073
469 2 0.348146 0.966713 0.358428
470 2 0.0934432 0.921881 0.0433604
471 2 0.287865 0.20868 0.0767351
472 2 0.214122 0.433711 0.1876
473 2 0.765726 0.819778 0.408031
474 2 0.224991 0.0604953 0.833937
475 2 0.29548 0.30296 0.725992
476 2 0.0694654 0.256288 0.177439
477 2 0.158716 0.0775036 0.527582
478 2 0.202348 0.957758 0.218918
479 2 0.465156 0.70654 0.317756
480 2 0.718476 0.417706 0.948987
481 2 0.169357 0.42543 0.0264413
482 2 0.897673 0.175816 0.165767
483 2 0.215488 0.249076 0.648003
484 2 0.653147 0.284103 0.872569
485 2 0.40423 0.472714 0.112684
486 2 0.0615691 0.219326 0.00955376
487 2 0.354673 0.614959 0.391903
488 2 0.475723 0.886872 0.200326
489 2 0.343973 0.264081 0.321264
490 2 0.426349 0.300335 0.419745
491 2 0.3322 0.75384 0.235988
492 2 0.682046 0.770014 0.965631
493 2 0.162047 0.478284 0.893452
494 2 0.206646 0.259477 0.404927
495 2 0.347763 0.208429 0.301776
496 2 0.0175002 0.0900027 0.196509
497 2 0.458901 0.748994 0.785178
498 2 0.895336 0.203192 0.216694
499 2 0.209553 0.191003 0.436905
500 2 0.526366 0.174348 0.201008
501 2 0.823223 0.351808 0.962863
502 2 0.0978183 0.268794 0.260622
503 2 0.708973 0.179503 0.990939
504 2 0.213915 0.666477 0.0788887
505 2 0.791479 0.280587 0.909289
506 2 0.103633 0.212789 0.339515
507 2 0.157434 0.958686 0.445423
508 2 0.168875 0.341339 0.592713
509 2 0.0748269 0.128362 0.204318
510 2 0.632939 0.854174 0.598397
511 2 0.960129 0.37893 0.0811907
512 2 0.0819429 0.218017 0.370974
513 2 0.272733 0.570609 0.115967
514 2 0.500022 0.419507 0.549879
515 2 0.148375 0.943254 0.331512
516 2 0.484993 0.80051 0.448714
517 2 0.293484 0.140527 0.205249
518 2 0.772698 0.0677087 0.155306
519 2 0.0409216 0.467542 0.119407
520 2 0.750864 0.918676 0.371077
521 2 0.442311 0.340419 0.945891
522 2 0.314054 0.101606 0.151785
523 2 0.187581 0.272744 0.936967
524 2 0.46046 0.0799537 0.212587
525 2 0.0492672 0.3788 0.43821
526 2 0.255982 0.529155 0.462173
527 2 0.323436 0.220165 0.0858442
528 2 0.532737 0.184256 0.965176
529 2 0.355845 0.125265 0.445491
530 2 0.272261 0.441492 0.412665
531 2 0.815375 0.0750975 0.205857
532 2 0.771993 0.0370378 0.91809
533 2 0.46406 0.177373 0.562546
534 2 0.281294 0.956799 0.155797
535 2 0.44264 0.861313 0.917931
536 2 0.991903 0.238597 0.314358
537 2 0.121618 0.020694 0.199274
538 2 0.109575 0.544688 0.38414
539 2 0.0815195 0.76727 0.390509
540 2 0.0114703 0.634827 0.0852728
541 2 0.35018 0.0805313 0.230094
542 2 0.366789 0.830678 0.656579
543 2 0.387665 0.876328 0.623117
544 2 0.0454795 0.353035 0.11126
545 2 0.60332 0.365612 0.456518
546 2 0.90057 0.30255 0.0412275
547 2 0.0442339 0.302698 0.281336
548 2 0.0415856 0.617422 0.103138
549 2 0.179593 0.699257 0.33406
550 2 0.777911 0.41132 0.89713
551 2 0.12488 0.179583 0.19303
552 2 0.0517111 0.391237 0.115542
553 2 0.246639 0.0503263 0.386912
554 2 0.153129 0.309584 0.752817
555 2 0.173682 0.479516 0.0744545
556 2 0.324244 0.269256 0.130064
557 2 0.534442 0.314804 0.987216
558 2 0.230421 0.144101 0.201044
559 2 0.842453 0.549939 0.123315
560 2 0.455289 0.172106 0.255866
561 2 0.00512427 0.505406 0.159013
562 2 0.0770671 0.115983 0.431121
563 2 0.30327 0.187538 0.256831
564 2 0.0856619 0.271391 0.669069
565 2 0.516263 0.315958 0.489953
566 2 0.926195 0.119664 0.0221095
567 2 0.43053 0.328458 0.0533076
568 2 0.388644 0.41352 0.15493
569 2 0.326099 0.0218376 0.244814
570 2 0.156025 0.163441 0.596472
571 2 0.274835 0.478233 0.082597
572 2 0.271388 0.0753353 0.331865
573 2 0.661704 0.358924 0.744398
574 2 0.0864716 0.113843 0.587413
575 2 0.460778 0.571567 0.0667002
576 2 0.154587 0.0706427 0.368406
577 2 0.313648 0.172865 0.148925
578 2 0.278737 0.108396 0.601526
579 2 0.379616 0.968546 0.460577
580 2 0.524565 0.183388 0.489381
581 2 0.0585798 0.403467 0.179005
582 2 0.236702 0.205171 0.0196304
583 2 0.448707 0.942061 0.398461
584 2 0.928862 0.198194 0.0655296
585 2 0.218412 0.0939068 0.227903
586 2 0.188161 0.176695 0.329751
587 2 0.527894 0.15267 0.0577236
588 2 0.506631 0.557933 0.144666
589 2 0.151032 0.289139 0.378426
590 2 0.138614 0.457332 0.703677
591 2 0.160281 0.561577 0.789043
592 2 0.0753641 0.451389 0.337598
593 2 0.36014 0.769648 0.669534
594 2 0.0827787 0.354134 0.273065
595 2 0.0506313 0.215881 0.306682
596 2 0.849792 0.129713 0.103302
597 2 0.995007 0.333378 0.119541
598 2 0.365641 0.000451496 0.314107
599 2 0.419792 0.140585 0.601826
600 2 0.350393 0.0994661 0.991431
601 2 0.289403 0.899797 0.0787946
602 2 0.0182645 0.126665 0.993328
603 2 0.481024 0.290851 0.25892
604 2 0.983795 0.0115225 0.955822
605 2 0.191402 0.48422 0.585898
606 2 0.301942 0.962534 0.73252
607 2 0.411294 0.268176 0.111582
608 2 0.54781 0.0830009 0.540335
609 2 0.858599 0.466047 0.259387
610 2 0.356794 0.215292 0.621356
611 2 0.305908 0.452582 0.236667
612 2 0.0882645 0.401904 0.0270632
613 2 0.467397 0.40182 0.62789
614 2 0.284669 0.291147 0.309978
615 2 0.917552 0.291805 0.0739793
616 2 0.486764 0.868532 0.121836
617 2 0.293889 0.504324 0.624745
618 2 0.314674 0.279201 0.750124
619 2 0.327484 0.136185 0.242254
620 2 0.957128 0.576985 0.399099
621 2 0.710171 0.347001 0.448413
622 2 0.829593 0.319199 0.843365
623 2 0.189999 0.284485 0.201128
624 2 0.303103 0.63854 0.258223
625 2 0.207279 0.491073 0.663651
626 2 0.0912246 0.2131 0.479215
627 2 0.025729 0.244715 0.294688
628 2 0.169981 0.406003 0.144556
629 2 0.549837 0.36768 0.328411
630 2 0.199686 0.120244 0.500614
631 2 0.224661 0.304827 0.478628
632 2 0.293081 0.152339 0.241303
633 2 0.624357 0.0674456 0.288534
634 2 0.857588 0.174266 0.386756
635 2 0.401776 0.0514732 0.165746
636 2 0.0632601 0.516696 0.319311
637 2 0.515214 0.598563 0.959945
638 2 0.337903 0.56798 0.326432
639 2 0.495663 0.226303 0.794305
640 2 0.448311 0.313216 0.482213
641 2 0.235241 0.400359 0.877193
642 2 0.881774 0.981506 0.208354
643 2 0.298535 0.447382 0.38584
644 2 0.196551 0.317851 0.0206579
645 2 0.201629 0.278519 0.165926
646 2 0.890232 0.354103 0.199623
647 2 0.195331 0.342134 0.162609
648 2 0.341211 0.104745 0.257249
649 2 0.891069 0.194047 0.0725498
650 2 0.852143 0.941781 0.0663189
651 2 0.597756 0.619077 0.783591
652 2 0.0346851 0.874648 0.959134
653 2 0.500415 0.436693 0.518992
654 2 0.754156 0.247347 0.952615
655 2 0.174357 0.157837 0.803842
656 2 0.339359 0.147076 0.300764
657 2 0.217033 0.0433388 0.504846
658 2 0.391442 0.351319 0.167887
659 2 0.348571 0.210567 0.398013
660 2 0.584076 0.531095 0.33666
661 2 0.300771 0.691783 0.496333
662 2 0.568642 0.0947032 0.956563
663 2 0.457892 0.0920158 0.736279
664 2 0.218755 0.645393 0.29699
665 2 0.25167 0.333554 0.0797296
666 2 0.590306 0.201982 0.146146
667 2 0.281096 0.189152 0.395178
668 2 0.86394 0.438865 0.413688
669 2 0.176123 0.697584 0.281172
670 2 0.0285112 0.500754 0.311899
671 2 0.45272 0.522981 0.126526
672 2 0.352084 0.156652 0.336115
673 2 0.180859 0.52518 0.516362
674 2 0.153861 0.394759 0.696994
675 2 0.119419 0.302468 0.260005
676 2 0.750254 0.212412 0.526639
677 2 0.990211 0.234168 0.181039
678 2 0.977102 0.318556 0.063209
679 2 0.332352 0.397965 0.318696
680 2 0.537984 0.397563 0.835317
681 2 0.327203 0.249383 0.905567
682 2 0.944821 0.399483 0.843728
683 2 0.522168 0.793907 0.30109
684 2 0.15392 0.0338482 0.183374
685 2 0.358689 0.445671 0.897529
686 2 0.917922 0.199358 0.18783
687 2 0.186544 0.66019 0.105361
688 2 0.144973 0.328526 0.0433322
689 2 0.388854 0.418289 0.0473977
690 2 0.288627 0.222189 0.177789
691 2 0.695396 0.380684 0.432483
692 2 0.409095 0.184061 0.29695
693 2 0.07204 0.289652 0.988051
694 2 0.29361 0.0996601 0.426361
695 2 0.192018 0.0193213 0.375102
696 2 0.0367228 0.490209 0.976172
697 2 0.220595 0.998078 0.618929
698 2 0.134841 0.354242 0.212577
699 2 0.968894 0.199512 0.266029
700 2 0.166174 0.970639 0.0752129
701 2 0.0907386 0.0554215 0.323258
702 2 0.0959243 0.388186 0.328376
703 2 0.435416 0.787101 0.973497
704 2 0.416188 0.263767 0.0490968
705 2 0.155913 0.560155 0.150092
706 2 0.0979828 0.39547 0.17301
707 2 0.14541 0.586142 0.273104
708 2 0.0414955 0.358169 0.927662
709 2 0.233194 0.0813441 0.885303
710 2 0.403273 0.644163 0.162294
711 2 0.241624 0.361581 0.477929
712 2 0.0778376 0.518138 0.285232
713 2 0.332244 0.993273 0.197602
714 2 0.511369 0.277693 0.0315866
715 2 0.703652 0.780985 0.655925
716 2 0.234929 0.0436533 0.21655
717 2 0.0323282 0.466014 0.430161
718 2 0.264615 0.468371 0.0244546
719 2 0.917897 0.3144 0.452975
720 2 0.777525 0.84802 0.384285
721 2 0.448818 0.166924 0.34818
722 2 0.192664 0.64995 0.897414
723 2 0.113454 0.147299 0.313521
724 2 0.417371 0.485293 0.763698
725 2 0.0878889 0.937984 0.107305
726 2 0.48164 0.456943 0.305448
727 2 0.181752 0.446728 0.425935
728 2 0.416467 0.154532 0.109114
729 2 0.838713 0.811022 0.399874
730 2 0.39041 0.403623 0.287152
731 2 0.00782691 0.137285 0.494855
732 2 0.413209 0.419924 0.325626
733 2 0.468632 0.30425 0.165595
734 2 0.26144 0.26724 0.200717
735 2 0.875361 0.4969 0.240467
736 2 0.579381 0.050577 0.366872
737 2 0.716046 0.273868 0.182405
738 2 0.280557 0.462213 0.116311
739 2 0.145949 0.329053 0.859532
740 2 0.214285 0.442986 0.921301
741 2 0.211934 0.5436 0.605537
742 2 0.302258 0.31408 0.968693
743 2 0.952441 0.363239 0.982777
744 2 0.996361 0.235211 0.0475658
745 2 0.420881 0.14071 0.439179
746 2 0.280574 0.134278 0.44025
747 2 0.0476836 0.0104515 0.0205105
748 2 0.786779 0.0552933 0.259221
749 2 0.424811 0.240281 0.238195
750 2 0.361348 0.235371 0.682899
751 2 0.0336178 0.264187 0.231147
752 2 0.408499 0.359292 0.0420978
753 2 0.267914 0.235833 0.531598
754 2 0.441458 0.103507 0.523066
755 2 0.384303 0.56675 0.364288
756 2 0.42858 0.176123 0.17133
757 2 0.424178 0.627879 0.538398
758 2 0.828411 0.991667 0.17474
759 2 0.0612001 0.579504 0.313667
760 2 0.476857 0.157461 0.137041
761 2 0.0585185 0.253621 0.844106
762 2 0.949929 0.377906 0.334339
763 2 0.367902 0.429194 0.951133
764 2 0.447305 0.60463 0.27642
765 2 0.181877 0.414312 0.482621
766 2 0.0247642 0.910952 0.0345251
767 2 0.97365 0.63817 0.933399
768 2 0.00583935 0.474893 0.137001
769 2 0.351098 0.290603 0.108736
770 2 0.157926 0.340698 0.151599
771 2 0.24483 0.102661 0.341811
772 2 0.243187 0.213494 0.126791
773 2 0.860721 0.108138 0.496449
774 2 0.146928 0.212321 0.636506
775 2 0.285944 0.948407 0.462539
776 2 0.217649 0.246223 0.884436
777 2 0.00496026 0.967124 0.0444367
778 2 0.350552 0.549787 0.272313
779 2 0.0555521 0.0370276 0.186554
780 2 0.383282 0.325665 0.993551
781 2 0.589014 0.383907 0.487163
782 2 0.0462066 0.36137 0.223514
783 2 0.957054 0.440621 0.107226
784 2 0.258687 0.121908 0.0520874
785 2 0.108993 0.381647 0.13866
786 2 0.412011 0.328223 0.189567
787 2 0.304804 0.982454 0.792008
788 2 0.485016 0.402244 0.471505
789 2 0.158268 0.377575 0.268764
790 2 0.27458 0.677405 0.376393
791 2 0.230056 0.135462 0.1001
792 2 0.276751 0.288166 0.454842
793 2 0.0425224 0.0751429 0.889967
794 2 0.459901 0.962869 0.302785
795 2 0.0431992 0.333888 0.0492467
796 2 0.341122 0.295776 0.467801
797 2 0.375139 0.615117 0.160382
798 2 0.156928 0.783462 0.00255417
799 2 0.205094 0.123981 0.24824
800 2 0.721499 0.879638 0.32065
801 2 0.467893 0.979914 0.0790909
802 2 0.552749 0.335633 0.186386
803 2 0.274543 0.523992 0.207922
804 2 0.0745095 0.214073 0.427733
805 2 0.220452 0.108597 0.415994
806 2 0.332357 0.266716 0.0566163
807 2 0.14234 0.43433 0.144732
808 2 0.331347 0.413137 0.60408
809 2 0.0324848 0.177354 0.044183
810 2 0.239913 0.358527 0.270566
811 2 0.393418 0.332666 0.468887
812 2 0.313659 0.0537873 0.119131
813 2 0.0484976 0.107667 0.594433
814 2 0.360093 0.383599 0.477374
815 2 0.256316 0.0227279 0.41139
816 2 0.025834 0.450927 0.088008
817 2 0.191124 0.317777 0.752559
818 2 0.110502 0.496786 0.0693393
819 2 0.193045 0.84364 0.539716
820 2 0.0843669 0.24629 0.0906267
821 2 0.675695 0.266569 0.931382
822 2 0.504267 0.153502 0.475692
823 2 0.999848 0.216709 0.101183
824 2 0.497967 0.269791 0.666213
825 2 0.389249 0.0644959 0.759542
826 2 0.787957 0.436892 0.125032
827 2 0.135859 0.55473 0.96048
828 2 0.473055 0.625543 0.329443
829 2 0.174615 0.0505146 0.426334
830 2 0.090361 0.405924 0.513571
831 2 0.0261281 0.179743 0.202304
832 2 0.302898 0.195669 0.331036
833 2 0.949117 0.173704 0.0871178
834 2 0.710855 0.795483 0.35714
835 2 0.722064 0.205211 0.908909
836 2 0.393376 0.385666 0.319124
837 2 0.109906 0.173584 0.341199
838 2 0.582251 0.493101 0.0795877
839 2 0.328281 0.892492 0.936641
840 2 0.491073 0.319207 0.114279
841 2 0.629204 0.462783 0.521436
842 2 0.961309 0.253645 0.054485
843 2 0.206283 0.645674 0.199494
844 2 0.53701 0.156538 0.25644
845 2 0.90836 0.205998 0.371096
846 2 0.512084 0.839228 0.334568
847 2 0.111819 0.988224 0.978828
848 2 0.153737 0.173627 0.465943
849 2 0.464967 0.374931 0.489663
850 2 0.81599 0.208184 0.811836
851 2 0.397465 0.0823968 0.464307
852 2 0.549257 0.333419 0.280243
853 2 0.0537528 0.232296 0.615773
854 2 0.135858 0.431845 0.645655
855 2 0.355073 0.138878 0.480146
856 2 0.421644 0.210278 0.0722859
857 2 0.993516 0.316906 0.00410324
858 2 0.315705 0.378501 0.935266
859 2 0.184894 0.35386 0.445484
860 2 0.603685 0.0362019 0.0912508
861 2 0.254058 0.0545986 0.602573
862 2 0.114562 0.416138 0.812457
863 2 0.39256 0.719205 0.864223
864 2 0.108091 0.339393 0.0360354
865 2 0.776004 0.278981 0.316507
866 2 0.266609 0.347147 0.293032
867 2 0.436008 0.529935 0.349806
868 2 0.919166 0.12423 0.813479
869 2 0.516105 0.505322 0.473498
870 2 0.184331 0.236655 0.118675
871 2 0.941289 0.381544 0.164097
872 2 0.964916 0.193814 0.771137
873 2 0.500741 0.330508 0.520411
874 2 0.924714 0.137209 0.291213
875 2 0.460813 0.189837 0.151712
876 2 0.265362 0.312982 0.109651
877 2 0.226944 0.305037 0.251762
878 2 0.138496 0.300068 0.631123
879 2 0.968404 0.27645 0.110377
880 2 0.276875 0.218198 0.816955
881 2 0.190709 0.847044 0.59249
882 2 0.199799 0.253929 0.223005
883 2 0.144509 0.387034 0.941873
884 2 0.232732 0.111209 0.5217
885 2 0.933714 0.444085 0.416015
886 2 0.224638 0.373456 0.990464
887 2 0.00327962 0.283839 0.210269
888 2 0.980709 0.301066 0.332486
889 2 0.902923 0.196715 0.134242
890 2 0.576639 0.207023 0.258701
891 2 0.0739601 0.904517 0.414819
892 2 0.24601 0.42871 0.16593
893 2 0.988057 0.139967 0.293251
894 2 0.926917 0.965123 0.41083
895 2 0.732825 0.332328 0.900779
896 2 0.146625 0.501934 0.426352
897 2 0.0794732 0.345689 0.214242
898 2 0.199218 0.124843 0.0786851
899 2 0.218892 0.188802 0.238773
900 2 0.282441 0.275727 0.271614
901 2 0.151044 0.291469 0.20418
902 2 0.281712 0.410763 0.466437