ITEM: TIMESTEP
405968
ITEM: NUMBER OF ATOMS
13000
ITEM: BOX BOUNDS pp pp pp
-1.2982263498612114e+00 5.9219409956037268e+01
-1.2982263498612114e+00 5.9219409956037268e+01
-1.2982263498612114e+00 7.7187896690940875e+01
ITEM: ATOMS id type xs ys zs
1 2 0.390712 0.0245634 0.708989
2 2 0.0952337 0.103717 0.308293
3 2 0.231998 0.918924 0.0927542
4 2 0.0982027 0.00676944 0.25179
5 2 0.106569 0.0950245 0.0547984
6 2 0.397165 0.389086 0.170189
7 2 0.399771 0.239558 0.284068
8 2 0.661243 0.882196 0.157474
9 2 0.192302 0.993523 0.884418
10 2 0.524518 0.23677 0.345875
11 2 0.466247 0.126163 0.44825
12 2 0.856988 0.442282 0.318136
13 2 0.0621968 0.283432 0.220615
14 2 0.241092 0.248755 0.205971
15 2 0.12569 0.486047 0.857378
16 2 0.26067 0.403003 0.35021
17 2 0.158031 0.275196 0.997206
18 2 0.410497 0.237153 0.159426
19 2 0.396151 0.458255 0.439666
20 2 0.823526 0.417494 0.848792
21 2 0.954895 0.284191 0.161737
22 2 0.113637 0.165177 0.0628829
23 2 0.717084 0.449042 0.00925715
24 2 0.0869006 0.282642 0.319794
25 2 0.402707 0.242483 0.0468239
26 2 0.627913 0.394447 0.49573
27 2 0.294802 0.120425 0.995967
28 2 0.39253 0.108747 0.368071
29 2 0.00438976 0.185091 0.0159868
30 2 0.282997 0.145092 0.398117
31 2 0.188101 0.0689026 0.200331
32 2 0.0413478 0.474481 0.252235
33 2 0.352974 0.198648 0.085823
34 2 0.741934 0.613104 0.10625
35 2 0.279235 0.181236 0.304932
36 2 0.340773 0.194381 0.289724
37 2 0.126399 0.0107619 0.353187
38 2 0.923952 0.624046 0.258203
39 2 0.246807 0.455671 0.134393
40 2 0.870794 0.829445 0.304639
41 2 0.802848 0.198639 0.314961
42 2 0.421368 0.39902 0.239555
43 2 0.295033 0.361902 0.841622
44 2 0.743257 0.235198 0.745389
45 2 0.182139 0.939693 0.439549
46 2 0.430061 0.528492 0.430577
47 2 0.0390583 0.401416 0.0125104
48 2 0.33006 0.287255 0.348218
49 2 0.137271 0.905309 0.0261931
50 2 0.214173 0.158948 0.322614
51 2 0.818461 0.337833 0.37245
52 2 0.384636 0.215532 0.263785
53 2 0.225505 0.223527 0.300284
54 2 0.309758 0.51426 0.990981
55 2 0.0114231 0.424563 0.918308
56 2 0.671267 0.284665 0.107369
57 2 0.498588 0.443139 0.0351443
58 2 0.354026 0.4742 0.161472
59 2 0.944155 0.0795834 0.918912
60 2 0.755227 0.351073 0.263335
61 2 0.392323 0.259107 0.0921565
62 2 0.18592 0.425541 0.216945
63 2 0.0594596 0.293533 0.10616
64 2 0.728502 0.117261 0.13913
65 2 0.192151 0.481601 0.267075
66 2 0.361432 0.504909 0.144657
67 2 0.346246 0.424497 0.458737
68 2 0.30175 0.485987 0.331042
69 2 0.707302 0.556011 0.541049
70 2 0.146041 0.451561 0.09001
71 2 0.80302 0.373518 0.371292
72 2 0.152798 0.371999 0.282652
73 2 0.31267 0.0198393 0.0547249
74 2 0.157843 0.271363 0.0277914
75 2 0.212749 0.389398 0.549136
76 2 0.691042 0.333795 0.516451
77 2 0.00636147 0.311031 0.241839
78 2 0.0545738 0.117505 0.38786
79 2 0.110055 0.653511 0.189929
80 2 0.582853 0.933179 0.140225
81 2 0.228621 0.151748 0.213233
82 2 0.202835 0.425796 0.997203
83 2 0.465746 0.32881 0.0587163
84 2 0.157774 0.450985 0.227027
85 2 0.354451 0.23965 0.201083
86 2 0.297091 0.134379 0.107733
87 2 0.264623 0.118972 0.316007
88 2 0.302716 0.127076 0.260973
89 2 0.283385 0.293308 0.40911
90 2 0.0195773 0.196264 0.128037
91 2 0.0513863 0.241785 0.349061
92 2 0.276374 0.568973 0.485782
93 2 0.300308 0.249053 0.310314
94 2 0.45194 0.186394 0.737236
95 2 0.365495 0.0175989 0.212187
96 2 0.279511 0.0624977 0.313633
97 2 0.662363 0.153341 0.306015
98 2 0.53933 0.392186 0.0131994
99 2 0.992892 0.429127 0.452159
100 2 0.145744 0.20009 0.0215974
101 2 0.337351 0.182704 0.18791
102 2 0.616375 0.0619187 0.317795
103 2 0.666411 0.0898115 0.147923
104 2 0.698792 0.956171 0.325464
105 2 0.393486 0.155181 0.281356
106 2 0.301873 0.614332 0.459911
107 2 0.145398 0.14191 0.0662142
108 2 0.255261 0.517175 0.248648
109 2 0.303537 0.371623 0.106152
110 2 0.317055 0.412258 0.139032
111 2 0.965179 0.168396 0.900632
112 2 0.156157 0.224344 0.352023
113 2 0.426565 0.469768 0.4555
114 2 0.375082 0.985055 0.226045
115 2 0.19542 0.37142 0.0928977
116 2 0.299606 0.506541 0.426569
117 2 0.78295 0.426611 0.198965
118 2 0.138817 0.438998 0.277841
119 2 0.291914 0.823097 0.389756
120 2 0.700128 0.140428 0.194545
121 2 0.828153 0.857978 0.884811
122 2 0.137749 0.957619 0.240653
123 2 0.967652 0.237121 0.11606
124 2 0.355902 0.349818 0.250765
125 2 0.31602 0.0420555 0.352308
126 2 0.463406 0.500005 0.550812
127 2 0.147682 0.606088 0.0690941
128 2 0.110275 0.123798 0.198039
129 2 0.265106 0.375093 0.441411
130 2 0.173877 0.277902 0.0771091
131 2 0.429894 0.91927 0.324819
132 2 0.266085 0.0718184 0.368669
133 2 0.175623 0.108928 0.841209
134 2 0.443153 0.461729 0.34996
135 2 0.336715 0.0730195 0.159669
136 2 0.382236 0.462145 0.253284
137 2 0.77763 0.173283 0.0367011
138 2 0.577514 0.46096 0.266543
139 2 0.192252 0.215541 0.28547
140 2 0.421464 0.0496748 0.911817
141 2 0.248125 0.0140185 0.128392
142 2 0.37424 0.967341 0.483156
143 2 0.0486838 0.253578 0.141559
144 2 0.696628 0.235744 0.021437
145 2 0.49658 0.547842 0.252265
146 2 0.295303 0.147941 0.887924
147 2 0.461316 0.013785 0.227911
148 2 0.124247 0.22549 0.00655288
149 2 0.0555089 0.190521 0.0845512
150 2 0.547316 0.0963772 0.212321
151 2 0.560786 0.419045 0.0265956
152 2 0.528558 0.134025 0.114975
153 2 0.16725 0.412141 0.317667
154 2 0.318071 0.262341 0.232121
155 2 0.857052 0.337488 0.184864
156 2 0.075311 0.142471 0.270816
157 2 0.0657257 0.331837 0.255944
158 2 0.370979 0.781746 0.734076
159 2 0.334503 0.180745 0.24566
160 2 0.744454 0.364373 0.00942892
161 2 0.393755 0.843561 0.127833
162 2 0.176738 0.266306 0.224675
163 2 0.0582031 0.385887 0.282806
164 2 0.353841 0.149987 0.450998
165 2 0.784901 0.321396 0.141199
166 2 0.320077 0.156277 0.407142
167 2 0.130437 0.623173 0.344242
168 2 0.608417 0.94325 0.702721
169 2 0.23062 0.512963 0.321266
170 2 0.645122 0.585616 0.226315
171 2 0.0499602 0.158983 0.990513
172 2 0.970359 0.168341 0.0183211
173 2 0.51188 0.234973 0.814076
174 2 0.241245 0.499418 0.347899
175 2 0.304897 0.0523691 0.916924
176 2 0.144401 0.332035 0.100028
177 2 0.486608 0.367299 0.226685
178 2 0.312678 0.250508 0.759143
179 2 0.290453 0.390981 0.36671
180 2 0.301872 0.941769 0.0482973
181 2 0.402004 0.869433 0.315946
182 2 0.321762 0.494737 0.384264
183 2 0.328362 0.364414 0.204821
184 2 0.300384 0.435818 0.239118
185 2 0.158752 0.234472 0.168135
186 2 0.454776 0.398368 0.137834
187 2 0.314389 0.401955 0.299814
188 2 0.289961 0.213802 0.981129
189 2 0.916088 0.529745 0.0548962
190 2 0.317037 0.0326526 0.246965
191 2 0.24764 0.783255 0.336361
192 2 0.801478 0.146418 0.024419
193 2 0.129139 0.592809 0.21527
194 2 0.536143 0.183215 0.737258
195 2 0.192712 0.409577 0.0914151
196 2 0.487921 0.402668 0.121856
197 2 0.0950009 0.272781 0.978107
198 2 0.387476 0.14019 0.0947761
199 2 0.543011 0.340831 0.219874
200 2 0.153615 0.232409 0.102187
201 2 0.460525 0.0730056 0.165563
202 2 0.739044 0.480721 0.00182405
203 2 0.466343 0.747947 0.350762
204 2 0.225405 0.00941593 0.361349
205 2 0.354853 0.365846 0.278049
206 2 0.259888 0.0428495 0.268609
207 2 0.620956 0.141174 0.0914461
208 2 0.223465 0.224218 0.17137
209 2 0.197656 0.364696 0.0637608
210 2 0.453968 0.142111 0.113935
211 2 0.10044 0.385086 0.252204
212 2 0.302034 0.942105 0.956353
213 2 0.837511 0.166903 0.644465
214 2 0.16136 0.218186 0.0752245
215 2 0.25405 0.446512 0.962846
216 2 0.430243 0.412797 0.117673
217 2 0.172991 0.345185 0.297882
218 2 0.0932517 0.999536 0.365873
219 2 0.379116 0.825108 0.0476189
220 2 0.114433 0.961688 0.327565
221 2 0.274834 0.0677803 0.432087
222 2 0.102227 0.211042 0.341185
223 2 0.198747 0.358433 0.927204
224 2 0.11181 0.867033 0.16054
225 2 0.610091 0.0199518 0.235377
226 2 0.96339 0.22667 0.146421
227 2 0.489924 0.170447 0.811237
228 2 0.0724211 0.791356 0.0887468
229 2 0.982469 0.166087 0.220951
230 2 0.499011 0.0369876 0.830899
231 2 0.507225 0.342189 0.209114
232 2 0.466689 0.0313679 0.30694
233 2 0.980349 0.516207 0.241156
234 2 0.0775072 0.972888 0.320796
235 2 0.501461 0.0910669 0.0322837
236 2 0.596625 0.177713 0.924778
237 2 0.331556 0.429959 0.258122
238 2 0.822565 0.973394 0.676498
239 2 0.0645678 0.812372 0.133755
240 2 0.627706 0.424682 0.271569
241 2 0.258738 0.383867 0.324507
242 2 0.439727 0.922849 0.0775059
243 2 0.568723 0.335737 0.0121042
244 2 0.0202195 0.2422 0.0884748
245 2 0.71939 0.223823 0.0635326
246 2 0.95395 0.140605 0.0593238
247 2 0.685805 0.193512 0.343189
248 2 0.108859 0.715964 0.359534
249 2 0.513628 0.114479 0.248246
250 2 0.249605 0.919257 0.884036
251 2 0.432156 0.472584 0.24476
252 2 0.444801 0.287759 0.111537
253 2 0.202631 0.131091 0.259627
254 2 0.993943 0.082776 0.407446
255 2 0.816227 0.646287 0.368814
256 2 0.00658827 0.360084 0.269026
257 2 0.384227 0.0160129 0.158736
258 2 0.643124 0.26297 0.200004
259 2 0.332104 0.381797 0.125119
260 2 0.165943 0.01806 0.432164
261 2 0.978751 0.216881 0.967816
262 2 0.432087 0.0295156 0.385813
263 2 0.070775 0.641428 0.12202
264 2 0.942765 0.214883 0.302895
265 2 0.107529 0.859208 0.999237
266 2 0.215544 0.374891 0.163524
267 2 0.294587 0.101233 0.190533
268 2 0.375926 0.5086 0.475655
269 2 0.274362 0.372672 0.276203
270 2 0.156771 0.314188 0.124413
271 2 0.286782 0.812327 0.239704
272 2 0.0557133 0.178735 0.0387959
273 2 0.207155 0.0142199 0.15659
274 2 0.311643 0.0219928 0.989525
275 2 0.438849 0.371195 0.525758
276 2 0.316673 0.40937 0.855484
277 2 0.306161 0.113581 0.877537
278 2 0.0584304 0.192502 0.315244
279 2 0.701782 0.10704 0.288461
280 2 0.253395 0.404444 0.272539
281 2 0.18912 0.224225 0.184475
282 2 0.517682 0.295713 0.278446
283 2 0.558179 0.726792 0.733627
284 2 0.122387 0.0768653 0.276601
285 2 0.321505 0.155306 0.171204
286 2 0.234821 0.522317 0.105296
287 2 0.0567215 0.229827 0.0816357
288 2 0.819795 0.249728 0.0766038
289 2 0.0175057 0.109943 0.137376
290 2 0.0830738 0.278357 0.275809
291 2 0.510098 0.210304 0.32652
292 2 0.222333 0.389829 0.233912
293 2 0.676806 0.108869 0.334764
294 2 0.105765 0.326739 0.160732
295 2 0.0903495 0.896475 0.491852
296 2 0.868915 0.381237 0.235555
297 2 0.416253 0.288075 0.240445
298 2 0.751724 0.175643 0.961081
299 2 0.0904642 0.642096 0.904481
300 2 0.351451 0.209558 0.991727
301 2 0.980856 0.256606 0.598663
302 2 0.416731 0.132278 0.263331
303 2 0.286882 0.868704 0.347825
304 2 0.895969 0.0699505 0.19129
305 2 0.540689 0.0886655 0.240211
306 2 0.484639 0.512834 0.165987
307 2 0.24784 0.4996 0.470923
308 2 0.96161 0.424832 0.0166568
309 2 0.870803 0.280674 0.460528
310 2 0.586266 0.704063 0.330977
311 2 0.297864 0.254436 0.180152
312 2 0.13607 0.238679 0.420517
313 2 0.41874 0.269064 0.337662
314 2 0.393341 0.339417 0.252278
315 2 0.423381 0.839951 0.28279
316 2 0.368286 0.282305 0.413276
317 2 0.140268 0.951006 0.93853
318 2 0.0609094 0.0761736 0.114209
319 2 0.356496 0.0595013 0.0654156
320 2 0.257207 0.334104 0.933859
321 2 0.633173 0.368141 0.241987
322 2 0.235221 0.0698887 0.349793
323 2 0.495133 0.0578678 0.262029
324 2 0.413157 0.150028 0.306545
325 2 0.0656408 0.513848 0.181307
326 2 0.211408 0.193509 0.243555
327 2 0.355707 0.105575 0.96948
328 2 0.599095 0.422978 0.869901
329 2 0.0786185 0.318969 0.309662
330 2 0.544056 0.299161 0.046225
331 2 0.132387 0.257742 0.18187
332 2 0.483034 0.566992 0.445611
333 2 0.447055 0.360434 0.138203
334 2 0.565995 0.272767 0.379994
335 2 0.230093 0.19758 0.151434
336 2 0.106313 0.114143 0.0104282
337 2 0.246137 0.225643 0.953174
338 2 0.997596 0.133396 0.11905
339 2 0.456638 0.118407 0.874214
340 2 0.458042 0.940241 0.239175
341 2 0.269648 0.305946 0.221713
342 2 0.669008 0.0235596 0.258458
343 2 0.198203 0.668662 0.240776
344 2 0.465522 0.9005 0.239681
345 2 0.727121 0.087346 0.229873
346 2 0.49362 0.0746502 0.391485
347 2 0.305572 0.0347692 0.308271
348 2 0.16346 0.0865498 0.366365
349 2 0.459125 0.490479 0.33455
350 2 0.405099 0.382954 0.490382
351 2 0.375299 0.862214 0.256066
352 2 0.0210659 0.453885 0.181938
353 2 0.708716 0.262839 0.219266
354 2 0.246354 0.183228 0.373106
355 2 0.127825 0.140642 0.174453
356 2 0.291722 0.0949327 0.327815
357 2 0.537069 0.894363 0.16106
358 2 0.443114 0.0465441 0.127001
359 2 0.256865 0.159741 0.0154953
360 2 0.515303 0.439139 0.233451
361 2 0.301614 0.438436 0.298196
362 2 0.0244881 0.282206 0.0956847
363 2 0.726549 0.150612 0.099195
364 2 0.539884 0.214627 0.217332
365 2 0.0132488 0.382702 0.512826
366 2 0.240352 0.452884 0.244145
367 2 0.262302 0.728015 0.0050572
368 2 0.522349 0.786964 0.0682204
369 2 0.00782605 0.487493 0.295099
370 2 0.342726 0.129876 0.0424331
371 2 0.229532 0.991258 0.991184
372 2 0.767469 0.588716 0.941339
373 2 0.131268 0.98841 0.408814
374 2 0.394509 0.416771 0.335274
375 2 0.398782 0.0295867 0.0407129
376 2 0.274787 0.429203 0.17753
377 2 0.703743 0.16206 0.219484
378 2 0.506273 0.421152 0.165151
379 2 0.392486 0.127244 0.238319
380 2 0.624298 0.245115 0.247212
381 2 0.345163 0.378039 0.945754
382 2 0.501849 0.358652 0.156055
383 2 0.994661 0.602815 0.0873396
384 2 0.072341 0.10029 0.00230592
385 2 0.0951027 0.611739 0.127365
386 2 0.689934 0.14159 0.0902209
387 2 0.561765 0.283907 0.104343
388 2 0.112141 0.199988 0.244615
389 2 0.419067 0.360814 0.236323
390 2 0.570577 0.183303 0.391153
391 2 0.350487 0.00604632 0.912045
392 2 0.525439 0.991024 0.224849
393 2 0.209624 0.894482 0.24527
394 2 0.985385 0.279973 0.233649
395 2 0.279803 0.983353 0.502075
396 2 0.41539 0.344248 0.858969
397 2 0.373761 0.360729 0.483096
398 2 0.474201 0.666243 0.244827
399 2 0.462586 0.160101 0.0880728
400 2 0.736965 0.334222 0.41788
401 2 0.0314423 0.845529 0.0423854
402 2 0.968952 0.485765 0.927354
403 2 0.762553 0.0567945 0.710648
404 2 0.41093 0.328191 0.277381
405 2 0.399092 0.231024 0.954085
406 2 0.708705 0.348921 0.286627
407 2 0.199748 0.85705 0.246709
408 2 0.154502 0.168846 0.941554
409 2 0.347039 0.151723 0.351763
410 2 0.0941622 0.166165 0.136234
411 2 0.383014 0.144256 0.940416
412 2 0.162725 0.990863 0.390136
413 2 0.620167 0.208069 0.355328
414 2 0.423875 0.115899 0.320515
415 2 0.154987 0.521333 0.151342
416 2 0.530056 0.0652223 0.908616
417 2 0.158058 0.162497 0.234999
418 2 0.432324 0.0740642 0.247034
419 2 0.144704 0.277798 0.126447
420 2 0.284751 0.161299 0.127116
421 2 0.577589 0.803524 0.14723
422 2 0.0614653 0.0142871 0.100483
423 2 0.470499 0.0718057 0.241092
424 2 0.166473 0.33844 0.350135
425 2 0.280464 0.374246 0.16446
426 2 0.337804 0.385043 0.0401925
427 2 0.101569 0.0668099 0.110245
428 2 0.815942 0.6665 0.298577
429 2 0.321477 0.0309734 0.100101
430 2 0.607819 0.308054 0.0467729
431 2 0.243662 0.068974 0.217856
432 2 0.944141 0.766203 0.52509
433 2 0.45424 0.487613 0.393143
434 2 0.131621 0.123483 0.1247
435 2 0.866953 0.00273373 0.217358
436 2 0.125053 0.619176 0.0911098
437 2 0.485614 0.874905 0.346635
438 2 0.147114 0.313634 0.296948
439 2 0.117922 0.366256 0.293252
440 2 0.198264 0.491842 0.214566
441 2 0.342216 0.739832 0.358852
442 2 0.423151 0.172651 0.212997
443 2 0.78306 0.407748 0.288726
444 2 0.468587 0.270872 0.904565
445 2 0.650727 0.242015 0.302307
446 2 0.169405 0.405827 0.193766
447 2 0.0682592 0.162796 0.221602
448 2 0.222038 0.436971 0.204006
449 2 0.181953 0.109725 0.346243
450 2 0.261164 0.330655 0.0469481
451 2 0.334979 0.430458 0.202494
452 2 0.103349 0.376892 0.187042
453 2 0.307599 0.241633 0.409582
454 2 0.880483 0.414804 0.269696
455 2 0.833673 0.44853 0.212051
456 2 0.398815 0.148271 0.066832
457 2 0.717906 0.690735 0.0619466
458 2 0.106919 0.33368 0.0976214
459 2 0.0930898 0.858473 0.496498
460 2 0.507603 0.927856 0.216478
461 2 0.688559 0.318416 0.116777
462 2 0.533677 0.327913 0.829286
463 2 0.858382 0.622769 0.337899
464 2 0.92589 0.389937 0.443515
465 2 0.590715 0.00418955 0.145686
466 2 0.101769 0.956578 0.476342
467 2 0.194039 0.158753 0.17878
468 2 0.452383 0.230029 0.259098
469 2 0.346028 0.963353 0.30569
470 2 0.0933556 0.921841 0.0653694
471 2 0.287365 0.208174 0.0886771
472 2 0.214786 0.433721 0.174127
473 2 0.770861 0.823735 0.352973
474 2 0.222644 0.0610155 0.900095
475 2 0.298901 0.301383 0.817418
476 2 0.0683845 0.256923 0.166933
477 2 0.159911 0.0778704 0.438261
478 2 0.198861 0.95925 0.197137
479 2 0.464743 0.705519 0.276884
480 2 0.719495 0.417073 0.991273
481 2 0.169849 0.425107 0.0487813
482 2 0.898161 0.175468 0.158449
483 2 0.210131 0.246206 0.539761
484 2 0.654449 0.2832 0.930697
485 2 0.404676 0.473351 0.117152
486 2 0.0618003 0.2174 0.0340553
487 2 0.354016 0.61448 0.332704
488 2 0.474845 0.889206 0.187257
489 2 0.343619 0.264847 0.277867
490 2 0.425972 0.298338 0.357141
491 2 0.332053 0.754205 0.213049
492 2 0.681434 0.771833 0.00546939
493 2 0.163133 0.478527 0.950207
494 2 0.207323 0.259728 0.339375
495 2 0.34684 0.209855 0.26293
496 2 0.0153533 0.089119 0.182762
497 2 0.458453 0.751944 0.871264
498 2 0.893209 0.203387 0.197487
499 2 0.208787 0.19071 0.366691
500 2 0.524545 0.173358 0.185542
501 2 0.823684 0.351377 0.000768658
502 2 0.0981381 0.268627 0.227334
503 2 0.710582 0.178397 0.0237353
504 2 0.213955 0.666985 0.091337
505 2 0.791319 0.280452 0.960137
506 2 0.103654 0.214375 0.291208
507 2 0.155294 0.959791 0.373462
508 2 0.166976 0.34042 0.486363
509 2 0.0736261 0.128069 0.188792
510 2 0.634662 0.85293 0.719572
511 2 0.960322 0.378649 0.0909188
512 2 0.0829043 0.221166 0.316048
513 2 0.272986 0.570622 0.120271
514 2 0.49999 0.415067 0.457261
515 2 0.145658 0.943324 0.28785
516 2 0.483284 0.800177 0.374856
517 2 0.29359 0.140397 0.188848
518 2 0.772559 0.0676332 0.151918
519 2 0.0415419 0.469385 0.120193
520 2 0.74987 0.920812 0.325239
521 2 0.443154 0.340766 0.988752
522 2 0.314403 0.10153 0.14893
523 2 0.188854 0.271128 0.979798
524 2 0.459975 0.0800363 0.195815
525 2 0.044743 0.373923 0.366526
526 2 0.255946 0.528506 0.387685
527 2 0.322353 0.22032 0.0957199
528 2 0.533534 0.186258 0.00215701
529 2 0.355146 0.122762 0.370968
530 2 0.271442 0.440113 0.347782
531 2 0.814941 0.0753997 0.191704
532 2 0.772105 0.0371381 0.966739
533 2 0.486369 0.170956 0.485704
534 2 0.280915 0.957643 0.151372
535 2 0.442786 0.863674 0.969124
536 2 0.992892 0.23852 0.271547
537 2 0.119304 0.0209603 0.181029
538 2 0.10959 0.544001 0.32703
539 2 0.0814039 0.770086 0.330965
540 2 0.0121241 0.635451 0.0961221
541 2 0.348973 0.0779756 0.209292
542 2 0.368728 0.831956 0.763841
543 2 0.388678 0.876613 0.733702
544 2 0.0457338 0.354346 0.114898
545 2 0.602613 0.363343 0.383838
546 2 0.900669 0.302559 0.0593288
547 2 0.0450185 0.303942 0.242595
548 2 0.0417521 0.617638 0.110581
549 2 0.180497 0.699408 0.289874
550 2 0.778369 0.411985 0.951012
551 2 0.123781 0.178804 0.178695
552 2 0.0528385 0.392403 0.117684
553 2 0.247499 0.0474272 0.326946
554 2 0.179873 0.321906 0.836805
555 2 0.174173 0.479862 0.0853446
556 2 0.324274 0.269961 0.13184
557 2 0.535071 0.314936 0.0194502
558 2 0.230235 0.144533 0.184442
559 2 0.84335 0.551074 0.125174
560 2 0.454162 0.170918 0.23081
561 2 0.00621268 0.506654 0.15184
562 2 0.077322 0.115541 0.363381
563 2 0.302122 0.18785 0.228749
564 2 0.0833185 0.274294 0.550079
565 2 0.514807 0.313614 0.41222
566 2 0.927059 0.118592 0.0457519
567 2 0.430514 0.329098 0.0712601
568 2 0.388889 0.415017 0.149704
569 2 0.325847 0.0216358 0.2185
570 2 0.155608 0.162775 0.492675
571 2 0.275622 0.47864 0.0927148
572 2 0.270714 0.0744695 0.2856
573 2 0.66118 0.358392 0.826645
574 2 0.0838399 0.1129 0.483041
575 2 0.460593 0.572285 0.0809399
576 2 0.153037 0.0717841 0.3156
577 2 0.313527 0.172972 0.144862
578 2 0.273887 0.10864 0.49188
579 2 0.374776 0.965296 0.391207
580 2 0.521608 0.181455 0.409837
581 2 0.0584891 0.404325 0.168036
582 2 0.238372 0.204926 0.0471214
583 2 0.447559 0.946519 0.341048
584 2 0.928588 0.197965 0.0809002
585 2 0.216429 0.0942032 0.205749
586 2 0.186643 0.177008 0.283933
587 2 0.527005 0.153145 0.0733977
588 2 0.507618 0.556252 0.141838
589 2 0.150865 0.290346 0.321425
590 2 0.135595 0.453055 0.812575
591 2 0.161157 0.561443 0.869888
592 2 0.0771989 0.45158 0.291669
593 2 0.361984 0.77402 0.780474
594 2 0.0852494 0.354893 0.238101
595 2 0.0504884 0.215365 0.264765
596 2 0.849583 0.131064 0.108884
597 2 0.996692 0.333292 0.120162
598 2 0.365306 0.000391916 0.272736
599 2 0.417502 0.133149 0.738814
600 2 0.350285 0.100035 0.0233662
601 2 0.29004 0.900848 0.0903554
602 2 0.018267 0.126911 0.0236832
603 2 0.479968 0.289891 0.232475
604 2 0.983987 0.0118827 0.994938
605 2 0.188439 0.482941 0.478243
606 2 0.304594 0.96601 0.826395
607 2 0.411777 0.268686 0.117716
608 2 0.549354 0.0701584 0.685513
609 2 0.859555 0.467588 0.227923
610 2 0.374758 0.220145 0.736773
611 2 0.30804 0.453425 0.212945
612 2 0.0885625 0.401981 0.0480515
613 2 0.467708 0.398094 0.519117
614 2 0.283925 0.289889 0.269461
615 2 0.91852 0.291247 0.0849373
616 2 0.487138 0.868661 0.125614
617 2 0.291876 0.506713 0.508849
618 2 0.318502 0.279189 0.836368
619 2 0.324667 0.13509 0.21573
620 2 0.955642 0.576618 0.336792
621 2 0.709473 0.346508 0.374872
622 2 0.833215 0.31827 0.908837
623 2 0.190041 0.283213 0.183988
624 2 0.302293 0.638131 0.229771
625 2 0.207806 0.489642 0.537047
626 2 0.0904676 0.213114 0.399959
627 2 0.0265559 0.244161 0.25561
628 2 0.169676 0.406238 0.141479
629 2 0.550752 0.36708 0.286279
630 2 0.196905 0.119263 0.414989
631 2 0.221095 0.299761 0.393297
632 2 0.291515 0.15294 0.21761
633 2 0.624486 0.0686503 0.254483
634 2 0.857904 0.175104 0.329598
635 2 0.401509 0.0512626 0.159248
636 2 0.0628985 0.516816 0.277788
637 2 0.515452 0.598745 0.000137084
638 2 0.338537 0.567746 0.282372
639 2 0.497466 0.22742 0.871259
640 2 0.447687 0.310563 0.407463
641 2 0.236395 0.401079 0.93421
642 2 0.88117 0.980821 0.194142
643 2 0.298741 0.445929 0.327494
644 2 0.196654 0.317091 0.0443951
645 2 0.201088 0.278203 0.156011
646 2 0.890812 0.355469 0.184023
647 2 0.194214 0.34325 0.155755
648 2 0.33837 0.104253 0.228684
649 2 0.890647 0.193768 0.0848828
650 2 0.85269 0.942244 0.0781039
651 2 0.599347 0.620683 0.856923
652 2 0.0351703 0.874904 0.999421
653 2 0.499621 0.43163 0.43166
654 2 0.75488 0.246625 0.99457
655 2 0.174431 0.156302 0.877557
656 2 0.336252 0.147123 0.261733
657 2 0.217537 0.0417173 0.418492
658 2 0.389952 0.354061 0.160838
659 2 0.349954 0.210146 0.339156
660 2 0.58432 0.530028 0.288624
661 2 0.299711 0.691643 0.414028
662 2 0.569874 0.0948659 0.997649
663 2 0.45952 0.0931061 0.827802
664 2 0.219113 0.646259 0.260677
665 2 0.25078 0.333152 0.0935934
666 2 0.589529 0.201461 0.143013
667 2 0.280033 0.189082 0.333826
668 2 0.863424 0.43931 0.347715
669 2 0.175891 0.698473 0.248396
670 2 0.028578 0.501131 0.271554
671 2 0.45304 0.523448 0.127322
672 2 0.352234 0.156919 0.288281
673 2 0.179494 0.523635 0.422895
674 2 0.150222 0.389846 0.571768
675 2 0.119396 0.301727 0.227027
676 2 0.763141 0.191328 0.668918
677 2 0.991044 0.233768 0.167909
678 2 0.977638 0.317997 0.076375
679 2 0.331293 0.396021 0.273545
680 2 0.537789 0.39835 0.903012
681 2 0.327193 0.249274 0.95576
682 2 0.946414 0.399727 0.908144
683 2 0.52229 0.795729 0.267998
684 2 0.151018 0.0348063 0.167396
685 2 0.360116 0.446383 0.950682
686 2 0.918603 0.199198 0.175873
687 2 0.185996 0.659774 0.111761
688 2 0.144564 0.328066 0.0603126
689 2 0.389107 0.418281 0.0687297
690 2 0.286509 0.222809 0.165716
691 2 0.694525 0.379941 0.364387
692 2 0.404978 0.18292 0.261681
693 2 0.0721245 0.289478 0.0182244
694 2 0.292509 0.0989222 0.35866
695 2 0.191213 0.0197396 0.319431
696 2 0.0377407 0.493316 0.0123391
697 2 0.219169 0.994645 0.508611
698 2 0.135396 0.35551 0.192107
699 2 0.969656 0.198699 0.235438
700 2 0.166333 0.971473 0.0911568
701 2 0.0895851 0.0559121 0.280949
702 2 0.0958104 0.391834 0.280596
703 2 0.435853 0.786722 0.00646554
704 2 0.416721 0.26508 0.0691822
705 2 0.156191 0.560296 0.146089
706 2 0.0971472 0.396714 0.161656
707 2 0.146474 0.587157 0.241936
708 2 0.0415195 0.357964 0.972003
709 2 0.234072 0.0813113 0.94069
710 2 0.403488 0.645164 0.156063
711 2 0.242439 0.358948 0.398228
712 2 0.0782707 0.5187 0.250376
713 2 0.331017 0.992032 0.181818
714 2 0.511688 0.278493 0.0537921
715 2 0.702171 0.777797 0.76485
716 2 0.232967 0.044319 0.196106
717 2 0.0319834 0.465089 0.360306
718 2 0.266345 0.470495 0.0467794
719 2 0.912739 0.315215 0.383016
720 2 0.78012 0.852205 0.334248
721 2 0.450031 0.163248 0.304755
722 2 0.19247 0.650004 0.948772
723 2 0.112526 0.146722 0.272167
724 2 0.418792 0.484702 0.845936
725 2 0.086207 0.937259 0.115312
726 2 0.481593 0.455253 0.266758
727 2 0.181204 0.446388 0.359323
728 2 0.416543 0.155398 0.113894
729 2 0.8384 0.812919 0.344679
730 2 0.388607 0.40376 0.254945
731 2 0.00680973 0.140417 0.409891
732 2 0.415153 0.420823 0.281942
733 2 0.469882 0.305244 0.159095
734 2 0.260979 0.267695 0.183822
735 2 0.875931 0.498517 0.213055
736 2 0.57771 0.0523138 0.312811
737 2 0.717803 0.274604 0.173854
738 2 0.281364 0.461992 0.119608
739 2 0.14743 0.328266 0.920687
740 2 0.215601 0.442581 0.970533
741 2 0.210307 0.541327 0.492833
742 2 0.302516 0.313401 0.00599983
743 2 0.953227 0.364838 0.0147104
744 2 0.996317 0.234196 0.0646012
745 2 0.419852 0.137224 0.370962
746 2 0.2802 0.134059 0.369044
747 2 0.0474768 0.0105899 0.0482428
748 2 0.786563 0.0554192 0.233999
749 2 0.424137 0.239845 0.214633
750 2 0.36685 0.239184 0.781442
751 2 0.0334232 0.26341 0.206697
752 2 0.408368 0.359437 0.0628221
753 2 0.269126 0.235028 0.439466
754 2 0.439568 0.103381 0.433352
755 2 0.384615 0.566734 0.311426
756 2 0.42856 0.175803 0.162547
757 2 0.426785 0.625608 0.449061
758 2 0.828378 0.992101 0.16662
759 2 0.0611823 0.580434 0.273303
760 2 0.476299 0.157275 0.136256
761 2 0.0605305 0.253483 0.907286
762 2 0.951594 0.37713 0.28606
763 2 0.368012 0.428769 0.993185
764 2 0.446814 0.605815 0.243928
765 2 0.182321 0.410424 0.400989
766 2 0.0245431 0.91142 0.0559985
767 2 0.974359 0.639614 0.976107
768 2 0.00670148 0.476414 0.133881
769 2 0.351899 0.291851 0.117206
770 2 0.157484 0.34136 0.146549
771 2 0.244284 0.101452 0.29313
772 2 0.243153 0.213536 0.126693
773 2 0.963376 0.0672558 0.486336
774 2 0.144262 0.211601 0.523721
775 2 0.286748 0.9462 0.388926
776 2 0.218113 0.245939 0.938869
777 2 0.00461102 0.967423 0.0651792
778 2 0.349862 0.548834 0.23992
779 2 0.0542177 0.0372921 0.17332
780 2 0.381527 0.325949 0.0242909
781 2 0.587987 0.381706 0.408089
782 2 0.0461284 0.36149 0.201838
783 2 0.958705 0.440933 0.112018
784 2 0.259053 0.121427 0.0693403
785 2 0.108843 0.381403 0.135288
786 2 0.40829 0.325105 0.174783
787 2 0.306825 0.98348 0.87084
788 2 0.483949 0.398551 0.395586
789 2 0.158815 0.378035 0.235077
790 2 0.273991 0.679085 0.322041
791 2 0.230312 0.136147 0.107111
792 2 0.278924 0.289196 0.379713
793 2 0.0429541 0.0753674 0.944692
794 2 0.458829 0.963039 0.265029
795 2 0.0425773 0.333165 0.0649331
796 2 0.341782 0.293099 0.393255
797 2 0.375711 0.616568 0.154193
798 2 0.157777 0.7846 0.0333887
799 2 0.202328 0.125099 0.220008
800 2 0.721127 0.881742 0.284815
801 2 0.468647 0.980822 0.0922935
802 2 0.552436 0.335627 0.173975
803 2 0.2749 0.523825 0.191876
804 2 0.073239 0.214347 0.360277
805 2 0.220715 0.106899 0.349141
806 2 0.331798 0.267987 0.0753491
807 2 0.143324 0.435024 0.141453
808 2 0.33587 0.412622 0.499738
809 2 0.0318843 0.17714 0.0624339
810 2 0.240818 0.357799 0.23651
811 2 0.393033 0.331165 0.396032
812 2 0.313731 0.0542595 0.123077
813 2 0.0448134 0.110212 0.485678
814 2 0.360295 0.381905 0.401487
815 2 0.257475 0.0197543 0.346647
816 2 0.0255206 0.45096 0.0960297
817 2 0.200004 0.310607 0.811706
818 2 0.11118 0.496774 0.0812138
819 2 0.192996 0.842051 0.446628
820 2 0.0850989 0.246098 0.0972769
821 2 0.678588 0.266707 0.976399
822 2 0.502896 0.150203 0.399403
823 2 0.999573 0.216974 0.107433
824 2 0.504701 0.272534 0.776546
825 2 0.389491 0.0649366 0.844852
826 2 0.790121 0.437279 0.124889
827 2 0.136382 0.554732 0.998817
828 2 0.473465 0.625081 0.285916
829 2 0.175089 0.0501655 0.361004
830 2 0.0887084 0.403386 0.42522
831 2 0.0263065 0.179172 0.185607
832 2 0.302998 0.194604 0.284449
833 2 0.949267 0.172811 0.0970736
834 2 0.706894 0.795996 0.315355
835 2 0.722803 0.204768 0.959917
836 2 0.389295 0.389754 0.283778
837 2 0.109378 0.175388 0.292613
838 2 0.582689 0.493773 0.0924542
839 2 0.32748 0.894563 0.982991
840 2 0.490571 0.319483 0.118987
841 2 0.6279 0.46112 0.432443
842 2 0.962222 0.2526 0.0705213
843 2 0.205727 0.644781 0.184974
844 2 0.535296 0.15658 0.229751
845 2 0.909558 0.206713 0.317875
846 2 0.511699 0.840958 0.29092
847 2 0.110982 0.988382 0.0159293
848 2 0.153635 0.173356 0.389584
849 2 0.463652 0.372645 0.411548
850 2 0.819104 0.208626 0.883325
851 2 0.396049 0.0793744 0.38916
852 2 0.549095 0.332558 0.248567
853 2 0.05241 0.231927 0.505936
854 2 0.133727 0.428771 0.527773
855 2 0.351932 0.136284 0.399226
856 2 0.421085 0.212392 0.0848553
857 2 0.994128 0.317543 0.0295475
858 2 0.316577 0.379179 0.981214
859 2 0.184289 0.35335 0.374256
860 2 0.603317 0.0369185 0.102197
861 2 0.253316 0.051971 0.49437
862 2 0.117538 0.416995 0.885022
863 2 0.391173 0.723931 0.921914
864 2 0.107987 0.339218 0.0550726
865 2 0.776739 0.279553 0.271956
866 2 0.265909 0.345175 0.255948
867 2 0.436218 0.530001 0.301241
868 2 0.918018 0.123216 0.886477
869 2 0.515148 0.503271 0.39645
870 2 0.184087 0.236535 0.120456
871 2 0.941375 0.382145 0.155405
872 2 0.969136 0.186898 0.85445
873 2 0.499439 0.327115 0.43774
874 2 0.925538 0.135366 0.256004
875 2 0.460528 0.189539 0.147633
876 2 0.264225 0.31316 0.11858
877 2 0.2285 0.304339 0.22229
878 2 0.13578 0.301144 0.518264
879 2 0.969508 0.276485 0.114009
880 2 0.277975 0.217852 0.88569
881 2 0.19121 0.843478 0.487467
882 2 0.199874 0.253408 0.202171
883 2 0.145132 0.387237 0.983558
884 2 0.229735 0.111633 0.432158
885 2 0.932813 0.444908 0.349287
886 2 0.22418 0.371701 0.0217248
887 2 0.0047028 0.283686 0.190863
888 2 0.98416 0.301093 0.284188
889 2 0.903126 0.196603 0.13325
890 2 0.574236 0.206879 0.230381
891 2 0.0716592 0.905825 0.354439
892 2 0.246716 0.42875 0.157165
893 2 0.986659 0.140881 0.257217
894 2 0.92264 0.968324 0.355563
895 2 0.733703 0.3332 0.952713
896 2 0.144917 0.501695 0.359458
897 2 0.0792134 0.346856 0.193279
898 2 0.199134 0.125307 0.0909456
899 2 0.21869 0.189289 0.214029
900 2 0.282383 0.275696 0.239623
901 2 0.15207 0.29181 0.185254
902 2 0.281821 0.410116 0.391308