ITEM: TIMESTEP
527503
ITEM: NUMBER OF ATOMS
15000
ITEM: BOX BOUNDS pp pp pp
-1.8952498843031058e+00 5.9816433490478516e+01
-1.8952498843031058e+00 5.9816433490478516e+01
-1.8952498843031058e+00 7.8139448594758974e+01
ITEM: ATOMS id type xs ys zs
1 2 0.839658 0.0502915 0.386824
2 2 0.640049 0.0833362 0.893527
3 2 0.630452 0.227584 0.903636
4 2 0.214272 0.181378 0.327535
5 2 0.228856 0.348913 0.323979
6 2 0.154606 0.280462 0.303652
7 2 0.503005 0.430719 0.966472
8 2 0.376696 0.223534 0.545629
9 2 0.193979 0.0688033 0.376858
10 2 0.329733 0.0862239 0.599696
11 2 0.31879 0.416875 0.983325
12 2 0.445177 0.16354 0.502689
13 2 0.533946 0.941048 0.300618
14 2 0.365409 0.961204 0.205151
15 2 0.112877 0.342722 0.427561
16 2 0.455838 0.225625 0.984888
17 2 0.406837 0.107163 0.430692
18 2 0.329555 0.280845 0.684568
19 2 0.374246 0.113413 0.470266
20 2 0.809965 0.540234 0.281801
21 2 0.669493 0.0839473 0.0845489
22 2 0.296275 0.324981 0.285196
23 2 0.112092 0.45683 0.685202
24 2 0.34741 0.297291 0.00293708
25 2 0.179011 0.474722 0.469375
26 2 0.542103 0.626998 0.510925
27 2 0.607225 0.566946 0.268148
28 2 0.174519 0.343352 0.338776
29 2 0.962908 0.147726 0.428413
30 2 0.313065 0.378214 0.350969
31 2 0.54255 0.156666 0.25106
32 2 0.707633 0.267684 0.719773
33 2 0.49338 0.142652 0.279183
34 2 0.354364 0.460793 0.331686
35 2 0.187671 0.301852 0.532857
36 2 0.00969947 0.407835 0.537418
37 2 0.10193 0.494961 0.484947
38 2 0.036867 0.272517 0.570975
39 2 0.153906 0.237327 0.348934
40 2 0.17952 0.0094562 0.394856
41 2 0.965664 0.3221 0.985052
42 2 0.930104 0.0656649 0.85305
43 2 0.611694 0.306814 0.0682882
44 2 0.297452 0.822445 0.488742
45 2 0.902501 0.423694 0.0382338
46 2 0.583377 0.0433304 0.53604
47 2 0.417354 0.890996 0.58707
48 2 0.138685 0.0958613 0.857911
49 2 0.563873 0.382958 0.45709
50 2 0.140763 0.198231 0.482001
51 2 0.631255 0.244889 0.737103
52 2 0.224523 0.0670541 0.884963
53 2 0.359618 0.140245 0.814134
54 2 0.328445 0.245665 0.447425
55 2 0.139386 0.0853423 0.492514
56 2 0.407529 0.258936 0.292431
57 2 0.968535 0.181924 0.656154
58 2 0.0224257 0.249177 0.453393
59 2 0.439242 0.455119 0.261335
60 2 0.618913 0.191563 0.903105
61 2 0.0106966 0.242828 0.528948
62 2 0.362862 0.251013 0.367867
63 2 0.262813 0.0320413 0.200256
64 2 0.572512 0.375582 0.0339235
65 2 0.301973 0.0499497 0.901677
66 2 0.20926 0.173621 0.605557
67 2 0.134296 0.486117 0.276939
68 2 0.805267 0.345896 0.379691
69 2 0.352997 0.155102 0.306434
70 2 0.618399 0.435172 0.937988
71 2 0.030908 0.734618 0.325471
72 2 0.995196 0.840135 0.645552
73 2 0.57169 0.890176 0.286988
74 2 0.279693 0.00521977 0.826206
75 2 0.988575 0.524675 0.497849
76 2 0.282804 0.296085 0.301086
77 2 0.332899 0.118576 0.352802
78 2 0.730926 0.0673883 0.388018
79 2 0.0553031 0.389707 0.564565
80 2 0.164581 0.373655 0.979387
81 2 0.024804 0.676823 0.237863
82 2 0.350307 0.347796 0.831672
83 2 0.162235 0.283276 0.820159
84 2 0.210796 0.464046 0.485537
85 2 0.675918 0.300639 0.0697175
86 2 0.416734 0.0260088 0.895683
87 2 0.527225 0.385599 0.309776
88 2 0.232904 0.472786 0.92477
89 2 0.14145 0.440348 0.382247
90 2 0.87812 0.693626 0.251364
91 2 0.783927 0.153611 0.798562
92 2 0.567587 0.115814 0.684737
93 2 0.263579 0.699454 0.382957
94 2 0.142393 0.245948 0.917492
95 2 0.311342 0.381178 0.602794
96 2 0.54282 0.289068 0.570733
97 2 0.189028 0.661744 0.537897
98 2 0.328397 0.0902488 0.234447
99 2 0.285546 0.243994 0.640112
100 2 0.419702 0.288793 0.917863
101 2 0.440923 0.0465044 0.226862
102 2 0.104103 0.126382 0.308121
103 2 0.192094 0.52695 0.428356
104 2 0.0590208 0.57522 0.167123
105 2 0.634429 0.381997 0.044074
106 2 0.356043 0.0443903 0.383274
107 2 0.439332 0.220327 0.409975
108 2 0.269611 0.423789 0.875055
109 2 0.903736 0.218826 0.664102
110 2 0.486524 0.565937 0.214455
111 2 0.366452 0.648235 0.588124
112 2 0.267064 0.227282 0.289033
113 2 0.132816 0.338682 0.606489
114 2 0.294786 0.291571 0.329246
115 2 0.612365 0.940752 0.486357
116 2 0.333539 0.207793 0.274131
117 2 0.470793 0.572632 0.395843
118 2 0.992276 0.322256 0.439901
119 2 0.0329882 0.221004 0.312347
120 2 0.388592 0.228532 0.436762
121 2 0.297634 0.110948 0.408869
122 2 0.134915 0.0837178 0.83043
123 2 0.0379265 0.141857 0.449149
124 2 0.131618 0.192562 0.567459
125 2 0.190002 0.299548 0.268918
126 2 0.321187 0.607326 0.894802
127 2 0.437455 0.244925 0.248397
128 2 0.262381 0.774793 0.456356
129 2 0.438952 0.0748613 0.495224
130 2 0.430348 0.399144 0.499941
131 2 0.131218 0.0216914 0.363274
132 2 0.165912 0.453076 0.974569
133 2 0.0920831 0.437638 0.585738
134 2 0.971466 0.254579 0.0678033
135 2 0.760258 0.17782 0.387044
136 2 0.387424 0.270215 0.915811
137 2 0.130656 0.444269 0.0163823
138 2 0.51081 0.920866 0.283296
139 2 0.353149 0.405841 0.496945
140 2 0.727099 0.233832 0.503412
141 2 0.306772 0.0332718 0.176645
142 2 0.690813 0.317551 0.977254
143 2 0.305651 0.973881 0.159881
144 2 0.940173 0.695 0.277319
145 2 0.0724592 0.400915 0.687965
146 2 0.428422 0.459022 0.511297
147 2 0.211025 0.373569 0.368258
148 2 0.171607 0.00798359 0.86702
149 2 0.204237 0.428415 0.447222
150 2 0.487721 0.198333 0.591916
151 2 0.344354 0.232613 0.899698
152 2 0.773596 0.484243 0.889292
153 2 0.204481 0.366569 0.34043
154 2 0.663139 0.923517 0.395911
155 2 0.615637 0.138525 0.345796
156 2 0.0134391 0.0107655 0.4588
157 2 0.589414 0.783826 0.405279
158 2 0.181163 0.100047 0.298743
159 2 0.42322 0.0889589 0.538904
160 2 0.156931 0.986431 0.301977
161 2 0.527017 0.00707274 0.546343
162 2 0.0956678 0.66647 0.48618
163 2 0.668262 0.916238 0.475181
164 2 0.175293 0.416254 0.513402
165 2 0.885177 0.332506 0.789861
166 2 0.0926869 0.476691 0.372513
167 2 0.842647 0.954678 0.512205
168 2 0.248182 0.226702 0.39605
169 2 0.236639 0.988472 0.215294
170 2 0.934495 0.714087 0.302212
171 2 0.0921787 0.418696 0.748719
172 2 0.235697 0.425071 0.531369
173 2 0.393687 0.405331 0.541216
174 2 0.199104 0.108963 0.485698
175 2 0.279251 0.722357 0.205106
176 2 0.0724662 0.45028 0.388364
177 2 0.325259 0.850166 0.533804
178 2 0.219398 0.436181 0.93036
179 2 0.606453 0.312083 0.809432
180 2 0.103324 0.0162068 0.219837
181 2 0.606784 0.307742 0.427942
182 2 0.961152 0.819762 0.274757
183 2 0.0579354 0.324968 0.641847
184 2 0.200676 0.188501 0.397832
185 2 0.20659 0.284836 0.491806
186 2 0.120597 0.577306 0.531377
187 2 0.852282 0.506702 0.839473
188 2 0.185183 0.962464 0.312896
189 2 0.408142 0.940698 0.49026
190 2 0.990177 0.738957 0.599086
191 2 0.218714 0.234253 0.313062
192 2 0.866579 0.0414474 0.540959
193 2 0.438487 0.0270098 0.20205
194 2 0.0920512 0.447986 0.435714
195 2 0.596591 0.458811 0.745869
196 2 0.895541 0.451348 0.373168
197 2 0.848732 0.169974 0.797676
198 2 0.205851 0.574696 0.929451
199 2 0.148436 0.253872 0.525085
200 2 0.232843 0.295712 0.327673
201 2 0.292329 0.0809779 0.886379
202 2 0.185833 0.943665 0.586374
203 2 0.425294 0.579234 0.203031
204 2 0.419939 0.134745 0.501874
205 2 0.975823 0.529754 0.247008
206 2 0.366047 0.189682 0.271744
207 2 0.363482 0.353516 0.0371638
208 2 0.273936 0.701892 0.31029
209 2 0.111175 0.233703 0.394267
210 2 0.76963 0.975136 0.728845
211 2 0.265128 0.466473 0.982196
212 2 0.290502 0.347491 0.350728
213 2 0.358546 0.142044 0.663859
214 2 0.0406857 0.0557116 0.481202
215 2 0.477263 0.18712 0.253179
216 2 0.38064 0.309347 0.962005
217 2 0.0335377 0.519069 0.265238
218 2 0.221614 0.297022 0.843192
219 2 0.00806007 0.992978 0.334451
220 2 0.446023 0.136763 0.350825
221 2 0.246569 0.022188 0.225642
222 2 0.0642816 0.798699 0.389178
223 2 0.417009 0.366582 0.558911
224 2 0.231819 0.194041 0.464695
225 2 0.134813 0.421494 0.325035
226 2 0.0950844 0.792263 0.302145
227 2 0.291294 0.361051 0.00109081
228 2 0.92387 0.881181 0.423517
229 2 0.479153 0.113673 0.387444
230 2 0.239357 0.163101 0.836315
231 2 0.145586 0.796152 0.33658
232 2 0.6857 0.48242 0.278567
233 2 0.183209 0.312656 0.354241
234 2 0.552431 0.335872 0.298283
235 2 0.39899 0.339694 0.313275
236 2 0.468045 0.920935 0.875096
237 2 0.378966 0.0294822 0.715467
238 2 0.908258 0.218113 0.430252
239 2 0.168762 0.517949 0.789433
240 2 0.560696 0.0147394 0.660604
241 2 0.0849187 0.454849 0.754478
242 2 0.482641 0.847236 0.337148
243 2 0.302658 0.440501 0.871129
244 2 0.0537827 0.45826 0.667198
245 2 0.37143 0.825658 0.167267
246 2 0.668318 0.620038 0.263455
247 2 0.0786811 0.457661 0.00719464
248 2 0.087755 0.428366 0.409388
249 2 0.682709 0.137433 0.442887
250 2 0.458717 0.30675 0.0166954
251 2 0.214394 0.596872 0.266122
252 2 0.422688 0.165633 0.432288
253 2 0.028868 0.186357 0.637662
254 2 0.535753 0.818851 0.786357
255 2 0.753651 0.881724 0.336658
256 2 0.21839 0.0904253 0.506473
257 2 0.674335 0.632387 0.469906
258 2 0.981094 0.356427 0.403941
259 2 0.370859 0.28297 0.325103
260 2 0.437777 0.516832 0.307836
261 2 0.989953 0.246505 0.0200023
262 2 0.692962 0.972424 0.419532
263 2 0.351516 0.352069 0.271841
264 2 0.278727 0.377107 0.309889
265 2 0.413768 0.022587 0.314956
266 2 0.255239 0.262772 0.480271
267 2 0.338742 0.205776 0.941561
268 2 0.0412133 0.300589 0.940519
269 2 0.171351 0.404555 0.705222
270 2 0.729486 0.240621 0.988689
271 2 0.38687 0.846808 0.225023
272 2 0.603503 0.0212716 0.354399
273 2 0.0846971 0.318853 0.41622
274 2 0.409758 0.125375 0.47457
275 2 0.519599 0.790737 0.879216
276 2 0.251076 0.985068 0.816436
277 2 0.333004 0.512754 0.514852
278 2 0.0782211 0.22854 0.568899
279 2 0.0940762 0.116579 0.445631
280 2 0.549938 0.370587 0.917419
281 2 0.190648 0.329028 0.511975
282 2 0.180057 0.287709 0.753978
283 2 0.0548972 0.216006 0.493485
284 2 0.308045 0.138428 0.335622
285 2 0.109095 0.0377263 0.286251
286 2 0.0424474 0.382893 0.0120515
287 2 0.162664 0.123819 0.456835
288 2 0.320166 0.233245 0.255745
289 2 0.250886 0.232665 0.515041
290 2 0.962646 0.592923 0.592091
291 2 0.674317 0.219621 0.777158
292 2 0.392887 0.163133 0.342514
293 2 0.215679 0.3087 0.44952
294 2 0.0602302 0.668048 0.899932
295 2 0.0472452 0.47165 0.525301
296 2 0.226032 0.673854 0.206085
297 2 0.502732 0.634787 0.23928
298 2 0.279943 0.333226 0.377396
299 2 0.374672 0.0350885 0.61442
300 2 0.175221 0.317116 0.641966
301 2 0.264269 0.234497 0.206502
302 2 0.524029 0.197926 0.769344
303 2 0.707837 0.976507 0.770149
304 2 0.283354 0.541981 0.860641
305 2 0.723003 0.268204 0.349026
306 2 0.409407 0.822143 0.238735
307 2 0.577786 0.997449 0.429815
308 2 0.570862 0.235506 0.32435
309 2 0.0228925 0.412972 0.438093
310 2 0.163471 0.50296 0.616234
311 2 0.243303 0.394301 0.373295
312 2 0.547339 0.873442 0.52907
313 2 0.44844 0.986059 0.157576
314 2 0.728667 0.231038 0.762774
315 2 0.0347781 0.581376 0.4021
316 2 0.862369 0.469502 0.446455
317 2 0.317458 0.779641 0.109213
318 2 0.291632 0.406951 0.342556
319 2 0.85694 0.324982 0.809094
320 2 0.238822 0.920721 0.604935
321 2 0.0232914 0.334273 0.554369
322 2 0.458006 0.128913 0.234303
323 2 0.194631 0.467197 0.768791
324 2 0.169164 0.159458 0.305651
325 2 0.160351 0.323534 0.494184
326 2 0.225438 0.920282 0.300541
327 2 0.592644 0.290484 0.874931
328 2 0.385044 0.949644 0.134674
329 2 0.971803 0.0565864 0.410688
330 2 0.0257578 0.597417 0.275131
331 2 0.622947 0.529325 0.956118
332 2 0.0287967 0.384198 0.923036
333 2 0.92096 0.844259 0.479732
334 2 0.0307479 0.35868 0.470696
335 2 0.164694 0.252663 0.498602
336 2 0.793751 0.0274547 0.685723
337 2 0.250774 0.751334 0.38762
338 2 0.529315 0.544251 0.844682
339 2 0.391428 0.0608165 0.282854
340 2 0.241641 0.960066 0.747456
341 2 0.387374 0.535239 0.896162
342 2 0.320076 0.146049 0.255919
343 2 0.545271 0.295901 0.41172
344 2 0.125141 0.990856 0.318051
345 2 0.220208 0.387357 0.963278
346 2 0.159877 0.399098 0.338116
347 2 0.372918 0.274062 0.415863
348 2 0.0453052 0.461068 0.553435
349 2 0.519066 0.861031 0.733438
350 2 0.997346 0.475599 0.928698
351 2 0.00170458 0.0497082 0.628182
352 2 0.315359 0.00715175 0.356161
353 2 0.405704 0.242212 0.265774
354 2 0.757093 0.235028 0.00896582
355 2 0.169958 0.977453 0.904653
356 2 0.179895 0.512747 0.290991
357 2 0.567443 0.175145 0.337876
358 2 0.0441303 0.493636 0.338326
359 2 0.763402 0.239004 0.471755
360 2 0.210986 0.222918 0.924891
361 2 0.417689 0.964651 0.444877
362 2 0.317628 0.363645 0.577128
363 2 0.456877 0.326229 0.829025
364 2 0.360376 0.203106 0.96562
365 2 0.185848 0.229004 0.882357
366 2 0.365158 0.257754 0.443066
367 2 0.345516 0.0282298 0.302998
368 2 0.11565 0.549453 0.256525
369 2 0.438857 0.453182 0.791058
370 2 0.0746491 0.392598 0.500756
371 2 0.0544673 0.360983 0.448229
372 2 0.376243 0.376182 0.394478
373 2 0.516055 0.408983 0.392568
374 2 0.973921 0.315465 0.527972
375 2 0.298185 0.556976 0.579239
376 2 0.942192 0.3929 0.00440935
377 2 0.957426 0.494293 0.0188789
378 2 0.325132 0.243318 0.520823
379 2 0.165444 0.541804 0.547994
380 2 0.0984506 0.60143 0.347223
381 2 0.317131 0.32608 0.863537
382 2 0.340753 0.918024 0.550158
383 2 0.47535 0.193706 0.98222
384 2 0.151704 0.0782667 0.671132
385 2 0.271705 0.433623 0.436617
386 2 0.664221 0.317361 0.0443804
387 2 0.367155 0.286808 0.492327
388 2 0.2993 0.408257 0.314348
389 2 0.371674 0.203315 0.418584
390 2 0.451541 0.00645561 0.660983
391 2 0.13622 0.335944 0.560401
392 2 0.355604 0.810122 0.795545
393 2 0.33222 0.798726 0.329948
394 2 0.420902 0.121435 0.813994
395 2 0.449677 0.382605 0.936132
396 2 0.0901193 0.104491 0.514693
397 2 0.745647 0.563558 0.370645
398 2 0.995098 0.647145 0.759594
399 2 0.145274 0.437794 0.503785
400 2 0.330871 0.2598 0.917627
401 2 0.178144 0.984184 0.254136
402 2 0.275101 0.604188 0.340294
403 2 0.460039 0.0158112 0.613014
404 2 0.469915 0.500949 0.350474
405 2 0.147293 0.113992 0.218529
406 2 0.0585982 0.0928411 0.347807
407 2 0.461067 0.858659 0.925772
408 2 0.920886 0.523332 0.264513
409 2 0.379728 0.261909 0.250921
410 2 0.00937736 0.381864 0.662591
411 2 0.784964 0.301821 0.847664
412 2 0.5144 0.756334 0.270407
413 2 0.193109 0.925467 0.908524
414 2 0.845893 0.201713 0.428538
415 2 0.160368 0.297525 0.374367
416 2 0.191235 0.041744 0.333155
417 2 0.388833 0.403238 0.460013
418 2 0.509056 0.340489 0.274134
419 2 0.515688 0.596861 0.279913
420 2 0.0665215 0.369718 0.0318786
421 2 0.913069 0.407514 0.702304
422 2 0.249455 0.138029 0.38214
423 2 0.35944 0.316175 0.282952
424 2 0.145615 0.553307 0.94796
425 2 0.401052 0.0741447 0.393404
426 2 0.301628 0.218568 0.232265
427 2 0.587043 0.343952 0.745283
428 2 0.184862 0.193265 0.311257
429 2 0.429181 0.198832 0.507333
430 2 0.991398 0.126119 0.346086
431 2 0.382244 0.603278 0.901919
432 2 0.967644 0.0377412 0.448071
433 2 0.540131 0.0153417 0.239508
434 2 0.326194 0.00285 0.246985
435 2 0.464616 0.966519 0.286967
436 2 0.168363 0.252253 0.405362
437 2 0.212792 0.881537 0.635093
438 2 0.862601 0.487998 0.925954
439 2 0.504461 0.99738 0.297754
440 2 0.389108 0.000889209 0.245434
441 2 0.210195 0.981261 0.331988
442 2 0.067868 0.994719 0.293372
443 2 0.297774 0.90246 0.310083
444 2 0.795076 0.274384 0.567385
445 2 0.0213713 0.336776 0.987468
446 2 0.995393 0.516264 0.270198
447 2 0.446892 0.0264823 0.429934
448 2 0.41697 0.0518831 0.874385
449 2 0.359935 0.308498 0.408844
450 2 0.100336 0.807984 0.395169
451 2 0.358892 0.176024 0.462214
452 2 0.0306681 0.490644 0.310517
453 2 0.0811859 0.200347 0.477834
454 2 0.846791 0.260878 0.57642
455 2 0.517227 0.350606 0.301806
456 2 0.715057 0.417825 0.824603
457 2 0.308363 0.266657 0.502256
458 2 0.120539 0.260351 0.968072
459 2 0.583703 0.278569 0.612695
460 2 0.968005 0.321341 0.844174
461 2 0.885252 0.0878708 0.435176
462 2 0.425136 0.752481 0.16553
463 2 0.302442 0.23814 0.207591
464 2 0.470218 0.329918 0.275332
465 2 0.112858 0.241566 0.450736
466 2 0.505858 0.030119 0.245978
467 2 0.911244 0.482757 0.321125
468 2 0.984957 0.481776 0.00154625
469 2 0.4468 0.351273 0.850824
470 2 0.262493 0.294607 0.34456
471 2 0.489693 0.476038 0.391935
472 2 0.260257 0.19583 0.513307
473 2 0.0649118 0.212299 0.00180457
474 2 0.248217 0.649552 0.459189
475 2 0.310213 0.148283 0.22723
476 2 0.0749106 0.0996225 0.56215
477 2 0.46101 0.339316 0.302997
478 2 0.477183 0.926086 0.324312
479 2 0.133357 0.315084 0.513464
480 2 0.356045 0.555118 0.24915
481 2 0.316618 0.143806 0.30738
482 2 0.346183 0.27336 0.347054
483 2 0.372365 0.382111 0.942393
484 2 0.0833658 0.280312 0.410629
485 2 0.763775 0.549173 0.946064
486 2 0.618026 0.855128 0.226519
487 2 0.251042 0.270234 0.936793
488 2 0.138899 0.37307 0.515538
489 2 0.61437 0.149997 0.398577
490 2 0.340237 0.381587 0.030842
491 2 0.285051 0.374754 0.471408
492 2 0.0969968 0.316322 0.469775
493 2 0.110088 0.288293 0.81369
494 2 0.970282 0.164449 0.453922
495 2 0.34131 0.288931 0.569854
496 2 0.756349 0.558649 0.30497
497 2 0.270715 0.39273 0.99759
498 2 0.716238 0.966165 0.306755
499 2 0.896054 0.0330567 0.966837
500 2 0.193884 0.587643 0.736058
501 2 0.28164 0.292873 0.946529
502 2 0.27152 0.317835 0.460419
503 2 0.293243 0.385769 0.562057
504 2 0.743066 0.0747354 0.950023
505 2 0.0652598 0.244252 0.30657
506 2 0.588844 0.360301 0.0100064
507 2 0.484777 0.910694 0.243014
508 2 0.267151 0.196645 0.384399
509 2 0.667485 0.700145 0.315582
510 2 0.183514 0.129843 0.527488
511 2 0.0876124 0.273351 0.833449
512 2 0.509809 0.195661 0.994849
513 2 0.0307492 0.0514835 0.566598
514 2 0.122066 0.19635 0.328518
515 2 0.878261 0.887732 0.989889
516 2 0.428559 0.384648 0.434805
517 2 0.4108 0.250916 0.348765
518 2 0.534867 0.978497 0.30842
519 2 0.881111 0.63939 0.254475
520 2 0.181003 0.387882 0.382238
521 2 0.101266 0.0835587 0.491568
522 2 0.0713985 0.293024 0.957135
523 2 0.995565 0.249701 0.990876
524 2 0.28064 0.438829 0.750824
525 2 0.227827 0.844811 0.635948
526 2 0.207926 0.473406 0.330564
527 2 0.627958 0.112716 0.499451
528 2 0.241083 0.539366 0.819159
529 2 0.607821 0.369691 0.414534
530 2 0.504001 0.0548457 0.223535
531 2 0.121459 0.449524 0.45473
532 2 0.69323 0.639552 0.357646
533 2 0.40287 0.539831 0.419898
534 2 0.5077 0.208681 0.259248
535 2 0.282274 0.098095 0.361139
536 2 0.143336 0.732516 0.550718
537 2 0.414864 0.432574 0.390409
538 2 0.971534 0.55954 0.852887
539 2 0.131337 0.551183 0.486816
540 2 0.24374 0.505507 0.360538
541 2 0.970347 0.424439 0.503435
542 2 0.340963 0.407093 0.470072
543 2 0.135636 0.135685 0.749033
544 2 0.0295072 0.398368 0.329496
545 2 0.597293 0.118307 0.406324
546 2 0.323356 0.847887 0.0917156
547 2 0.502759 0.258111 0.363382
548 2 0.244072 0.290754 0.299666
549 2 0.191457 0.497114 0.350204
550 2 0.374917 0.936376 0.277311
551 2 0.637065 0.906824 0.436484
552 2 0.243056 0.330718 0.589599
553 2 0.608054 0.30994 0.837795
554 2 0.169625 0.287829 0.485164
555 2 0.0550938 0.200183 0.0440218
556 2 0.24307 0.552766 0.702647
557 2 0.419315 0.540292 0.168278
558 2 0.204253 0.489515 0.426205
559 2 0.372933 0.377734 0.507871
560 2 0.260588 0.264387 0.86825
561 2 0.0684962 0.65077 0.359981
562 2 0.43307 0.118862 0.254762
563 2 0.551325 0.20156 0.283498
564 2 0.475085 0.983215 0.178275
565 2 0.693666 0.193803 0.967919
566 2 0.260944 0.990003 0.375298
567 2 0.0174329 0.145031 0.94397
568 2 0.99991 0.884269 0.0301712
569 2 0.47018 0.522225 0.294603
570 2 0.296591 0.399202 0.275566
571 2 0.139384 0.38446 0.0191833
572 2 0.229483 0.424364 0.303597
573 2 0.104885 0.000191405 0.294068
574 2 0.534248 0.0249993 0.197236
575 2 0.313142 0.258932 0.336517
576 2 0.616271 0.500327 0.581896
577 2 0.250898 0.292057 0.522828
578 2 0.19827 0.284464 0.337933
579 2 0.267205 0.537788 0.520765
580 2 0.567389 0.108156 0.540584
581 2 0.963648 0.233614 0.457982
582 2 0.225039 0.558212 0.362888
583 2 0.368726 0.00367714 0.432421
584 2 0.41993 0.294406 0.287051
585 2 0.413233 0.0495318 0.91846
586 2 0.998606 0.189255 0.860037
587 2 0.100653 0.565549 0.58356
588 2 0.0453242 0.350808 0.385828
589 2 0.775443 0.368814 0.00505425
590 2 0.0483915 0.509112 0.516003
591 2 0.470775 0.154227 0.52302
592 2 0.0738601 0.828129 0.225585
593 2 0.820058 0.330589 0.550304
594 2 0.251724 0.0764033 0.367351
595 2 0.62421 0.645335 0.314254
596 2 0.356132 0.131187 0.521625
597 2 0.415429 0.0873402 0.292725
598 2 0.25413 0.661759 0.530374
599 2 0.282252 0.990062 0.517488
600 2 0.138182 0.193182 0.679914
601 2 0.152028 0.314555 0.894291
602 2 0.0684346 0.894479 0.592304
603 2 0.247217 0.395045 0.510716
604 2 0.425829 0.525979 0.378721
605 2 0.199977 0.0754378 0.448079
606 2 0.436736 0.494537 0.551279
607 2 0.0894042 0.146179 0.194505
608 2 0.310416 0.0368721 0.24556
609 2 0.143319 0.398941 0.992495
610 2 0.205087 0.46658 0.0489492
611 2 0.446429 0.396401 0.275902
612 2 0.347852 0.959019 0.2669
613 2 0.565836 0.277894 0.974246
614 2 0.1266 0.101556 0.242035
615 2 0.38749 0.791782 0.854265
616 2 0.392307 0.190104 0.396183
617 2 0.766314 0.704949 0.456424
618 2 0.886768 0.0842913 0.584978
619 2 0.137698 0.332889 0.989925
620 2 0.530966 0.183962 0.875749
621 2 0.298928 0.932572 0.386332
622 2 0.257785 0.597183 0.314484
623 2 0.422654 0.96327 0.208704
624 2 0.0854941 0.0348091 0.885693
625 2 0.420433 0.222207 0.975388
626 2 0.720059 0.20478 0.986399
627 2 0.0240813 0.971094 0.380549
628 2 0.651022 0.184415 0.428044
629 2 0.403165 0.655955 0.355233
630 2 0.41668 0.136067 0.387812
631 2 0.240188 0.375727 0.918263
632 2 0.29832 0.917114 0.452745
633 2 0.124581 0.671322 0.223727
634 2 0.0793101 0.453097 0.518917
635 2 0.300665 0.552251 0.66871
636 2 0.278613 0.375072 0.863799
637 2 0.47312 0.0973483 0.842643
638 2 0.434244 0.936852 0.428591
639 2 0.497515 0.0957139 0.98711
640 2 0.305037 0.772121 0.325379
641 2 0.312372 0.957798 0.408344
642 2 0.80766 0.117856 0.507023
643 2 0.805127 0.428918 0.353939
644 2 0.0353268 0.173155 0.555908
645 2 0.390941 0.954667 0.388712
646 2 0.667014 0.222943 0.536137
647 2 0.164241 0.701926 0.396344
648 2 0.294924 0.3252 0.839402
649 2 0.834114 0.118208 0.032517
650 2 0.289703 0.436072 0.796994
651 2 0.358155 0.0630885 0.297555
652 2 0.516435 0.49338 0.871405
653 2 0.613335 0.313052 0.487985
654 2 0.0207058 0.428694 0.631634
655 2 0.925737 0.502721 0.00544098
656 2 0.366299 0.366778 0.786693
657 2 0.978976 0.124718 0.624018
658 2 0.238218 0.129593 0.431173
659 2 0.24743 0.809192 0.464436
660 2 0.767627 0.381933 0.506709
661 2 0.52584 0.767797 0.410892
662 2 0.995941 0.913561 0.558594
663 2 0.0450627 0.066786 0.590247
664 2 0.21505 0.738609 0.468458
665 2 0.272454 0.125489 0.767466
666 2 0.376083 0.340768 0.896681
667 2 0.574603 0.148878 0.484627
668 2 0.51662 0.94327 0.898606
669 2 0.950012 0.56459 0.610218
670 2 0.9096 0.390805 0.659599
671 2 0.773574 0.980475 0.331606
672 2 0.279625 0.526585 0.493816
673 2 0.215804 0.322176 0.941519
674 2 0.2342 0.148758 0.356705
675 2 0.309544 0.221029 0.893046
676 2 0.327981 0.0313852 0.696615
677 2 0.0408052 0.116615 0.706152
678 2 0.476059 0.467229 0.261207
679 2 0.0598978 0.967022 0.389509
680 2 0.212699 0.47884 0.81655
681 2 0.363711 0.212381 0.920091
682 2 0.335558 0.976702 0.142755
683 2 0.0479672 0.242386 0.534009
684 2 0.763002 0.405665 0.42623
685 2 0.303186 0.581932 0.349075
686 2 0.263492 0.751034 0.19049
687 2 0.519006 0.21117 0.401745
688 2 0.128073 0.46134 0.910307
689 2 0.433353 0.216934 0.833731
690 2 0.307477 0.888345 0.504215
691 2 0.143191 0.364468 0.340691
692 2 0.189786 0.191602 0.888453
693 2 0.922124 0.14198 0.303608
694 2 0.149609 0.524403 0.368962
695 2 0.809701 0.983819 0.364295
696 2 0.0834524 0.229604 0.925404
697 2 0.292947 0.518662 0.971134
698 2 0.481826 0.157681 0.234781
699 2 0.355757 0.288127 0.921906
700 2 0.0502387 0.993931 0.559397
701 2 0.511354 0.411762 0.29219
702 2 0.208539 0.776171 0.807435
703 2 0.113062 0.337938 0.296513
704 2 0.447889 0.153164 0.325179
705 2 0.259718 0.920788 0.262221
706 2 0.979035 0.57071 0.399859
707 2 0.106012 0.389452 0.956044
708 2 0.378351 0.488783 0.412112
709 2 0.327545 0.370905 0.00490301
710 2 0.303321 0.189964 0.392751
711 2 0.724563 0.707409 0.5557
712 2 0.0384982 0.53088 0.538899
713 2 0.122166 0.608708 0.888281
714 2 0.47082 0.183922 0.765133
715 2 0.319714 0.178329 0.49199
716 2 0.405676 0.268025 0.401268
717 2 0.290206 0.709141 0.252954
718 2 0.0369211 0.389408 0.750514
719 2 0.463092 0.261661 0.9447
720 2 0.548475 0.610265 0.898962
721 2 0.696966 0.141831 0.752855
722 2 0.290335 0.237678 0.353889
723 2 0.240158 0.464861 0.0384178
724 2 0.0217526 0.378581 0.950877
725 2 0.287564 0.651157 0.730591
726 2 0.927017 0.209422 0.548722
727 2 0.116013 0.433553 0.481875
728 2 0.158523 0.432403 0.998453
729 2 0.333042 0.303659 0.362112
730 2 0.105364 0.281913 0.945837
731 2 0.232729 0.324471 0.561223
732 2 0.378841 0.70492 0.440611
733 2 0.436074 0.211076 0.53504
734 2 0.570265 0.455657 0.867174
735 2 0.152239 0.15457 0.248148
736 2 0.0835308 0.456234 0.323501
737 2 0.663536 0.0681416 0.790914
738 2 0.614284 0.200844 0.361959
739 2 0.282148 0.0967137 0.309903
740 2 0.12242 0.563752 0.857028
741 2 0.0805391 0.413435 0.870996
742 2 0.0178323 0.276393 0.978256
743 2 0.307679 0.506107 0.995689
744 2 0.148249 0.841232 0.456707
745 2 0.992868 0.163586 0.415083
746 2 0.336796 0.192647 0.345436
747 2 0.0578923 0.382719 0.985908
748 2 0.09838 0.204282 0.52599
749 2 0.064509 0.390364 0.914378
750 2 0.533186 0.325165 0.42773
751 2 0.586689 0.128766 0.448035
752 2 0.240021 0.0763839 0.600496
753 2 0.314829 0.462569 0.291938
754 2 0.181691 0.811435 0.621067
755 2 0.668097 0.00541292 0.48764
756 2 0.113963 0.264025 0.689667
757 2 0.843082 0.284085 0.536609
758 2 0.403876 0.28061 0.858266
759 2 0.400385 0.245665 0.376738
760 2 0.36044 0.411817 0.398589
761 2 0.0111571 0.674455 0.411358
762 2 0.204033 0.425857 0.735593
763 2 0.394023 0.0796895 0.780596
764 2 0.517668 0.475914 0.938768
765 2 0.25468 0.163531 0.425981
766 2 0.82489 0.173958 0.88121
767 2 0.72666 0.463056 0.34354
768 2 0.295461 0.786707 0.592059
769 2 0.81389 0.230584 0.539685
770 2 0.907076 0.254439 0.932581
771 2 0.199282 0.163636 0.350722
772 2 0.109618 0.438556 0.929179
773 2 0.141823 0.34959 0.887257
774 2 0.0895016 0.325422 0.341109
775 2 0.0331626 0.471776 0.690449
776 2 0.556135 0.0385906 0.884415
777 2 0.0981844 0.0448779 0.493422
778 2 0.804073 0.435047 0.508231
779 2 0.143579 0.273015 0.254342
780 2 0.114861 0.518379 0.713331
781 2 0.948555 0.646606 0.555119
782 2 0.933503 0.415899 0.511685
783 2 0.50642 0.0356264 0.295807
784 2 0.471703 0.176205 0.381831
785 2 0.640427 0.328136 0.957374
786 2 0.448102 0.324023 0.35787
787 2 0.98316 0.400808 0.295902
788 2 0.209614 0.587608 0.551944
789 2 0.295461 0.891539 0.196502
790 2 0.344692 0.875655 0.138249
791 2 0.508028 0.440747 0.835773
792 2 0.373537 0.578869 0.267614
793 2 0.0285778 0.958647 0.78484
794 2 0.426906 0.32718 0.0246326
795 2 0.437555 0.43124 0.556027
796 2 0.857804 0.190982 0.566301
797 2 0.989671 0.438552 0.546399
798 2 0.103158 0.303051 0.306365
799 2 0.184583 0.134554 0.286626
800 2 0.15688 0.184941 0.213583
801 2 0.212896 0.223865 0.358966
802 2 0.424066 0.401999 0.374229
803 2 0.266562 0.182265 0.205832
804 2 0.994529 0.330018 0.967832
805 2 0.578966 0.36344 0.788663
806 2 0.48001 0.547882 0.807893
807 2 0.288454 0.219677 0.917878
808 2 0.0573424 0.325648 0.436491
809 2 0.98086 0.120467 0.277297
810 2 0.202811 0.141599 0.702951
811 2 0.18265 0.64065 0.358438
812 2 0.23475 0.131504 0.248572
813 2 0.417727 0.24557 0.423298
814 2 0.218401 0.417615 0.42095
815 2 0.174355 0.215856 0.44574
816 2 0.442172 0.446258 0.974128
817 2 0.217816 0.306986 0.604611
818 2 0.29036 0.63106 0.194366
819 2 0.0385352 0.10955 0.276223
820 2 0.136133 0.313058 0.725608
821 2 0.599979 0.28276 0.390514
822 2 0.391527 0.159228 0.967049
823 2 0.543365 0.381373 0.97376
824 2 0.511086 0.45333 0.256262
825 2 0.138216 0.476964 0.414742
826 2 0.973883 0.284085 0.65833
827 2 0.929048 0.637304 0.465644
828 2 0.235024 0.431294 0.37585
829 2 0.856739 0.404488 0.574005
830 2 0.646577 0.124541 0.35795
831 2 0.178576 0.41373 0.360971
832 2 0.44199 0.350594 0.576101
833 2 0.0751882 0.0869573 0.215783
834 2 0.249864 0.0570687 0.83884
835 2 0.113075 0.101244 0.288149
836 2 0.549708 0.0314785 0.586102
837 2 0.599711 0.23625 0.363202
838 2 0.263117 0.127511 0.91846
839 2 0.871541 0.495952 0.521049
840 2 0.293619 0.353588 0.96005
841 2 0.688123 0.983953 0.989748
842 2 0.562456 0.421418 0.370345
843 2 0.155379 0.167028 0.610811
844 2 0.897535 0.464473 0.567391
845 2 0.266206 0.449653 0.367974
846 2 0.0192937 0.424374 0.494365
847 2 0.29217 0.0452154 0.386614
848 2 0.222878 0.263575 0.958309
849 2 0.140062 0.120832 0.394729
850 2 0.3073 0.881883 0.13253
851 2 0.300258 0.300311 0.376147
852 2 0.261694 0.447564 0.463728
853 2 0.12701 0.169302 0.591267
854 2 0.418769 0.213559 0.386035
855 2 0.416769 0.224247 0.945735
856 2 0.24674 0.202307 0.251457
857 2 0.147752 0.0854772 0.288673
858 2 0.929676 0.163383 0.418753
859 2 0.247155 0.511111 0.480977
860 2 0.422656 0.649059 0.494614
861 2 0.340993 0.373756 0.33138
862 2 0.473431 0.864318 0.598995
863 2 0.90358 0.641421 0.40475
864 2 0.869412 0.140634 0.907134
865 2 0.97552 0.97775 0.630755
866 2 0.584788 0.480922 0.589323
867 2 0.223005 0.213294 0.64015
868 2 0.425765 0.112019 0.86449
869 2 0.0380423 0.141738 0.503459
870 2 0.0418528 0.273496 0.365306
871 2 0.899611 0.445541 0.42236
872 2 0.401892 0.286989 0.342181
873 2 0.634649 0.186854 0.849961
874 2 0.225283 0.371189 0.463945
875 2 0.121129 0.194095 0.223215
876 2 0.0357504 0.10344 0.626053
877 2 0.114021 0.2718 0.394918
878 2 0.498206 0.374123 0.613075
879 2 0.609992 0.357294 0.925757
880 2 0.285289 0.407553 0.973628
881 2 0.358061 0.316927 0.453502
882 2 0.217854 0.0941449 0.366195
883 2 0.271836 0.795548 0.408412
884 2 0.263828 0.398 0.932586
885 2 0.243253 0.896883 0.858452
886 2 0.126696 0.438802 0.541828
887 2 0.29295 0.122684 0.266481
888 2 0.238635 0.986439 0.402167
889 2 0.128521 0.162978 0.476988
890 2 0.380007 0.135831 0.322903
891 2 0.370369 0.110857 0.439857
892 2 0.878647 0.0649376 0.63941
893 2 0.0605796 0.0950355 0.923681
894 2 0.363645 0.237177 0.978058
895 2 0.894718 0.26891 0.370878
896 2 0.344722 0.341966 0.473393
897 2 0.90263 0.390809 0.507157
898 2 0.940939 0.0162514 0.407098
899 2 0.388584 0.110775 0.387103
900 2 0.994369 0.224023 0.404327
901 2 0.295626 0.597821 0.446792
902 2 0.447565 0.675976 0.500959
903 2 0.310216 0.439928 0.00537571
904 2 0.262218 0.848777 0.623589
905 2 0.323693 0.533245 0.89715