ITEM: TIMESTEP
217285
ITEM: NUMBER OF ATOMS
15000
ITEM: BOX BOUNDS pp pp pp
-1.8952498843031058e+00 5.9816433490478516e+01
-1.8952498843031058e+00 5.9816433490478516e+01
-1.8952498843031058e+00 6.5627783234464005e+01
ITEM: ATOMS id type xs ys zs
1 2 0.842339 0.0466506 0.3319
2 2 0.637863 0.0802084 0.975852
3 2 0.62578 0.226082 0.993206
4 2 0.214487 0.180434 0.244846
5 2 0.229023 0.347188 0.244059
6 2 0.154561 0.275256 0.21581
7 2 0.500001 0.430866 0.0700929
8 2 0.376202 0.224514 0.531812
9 2 0.196066 0.07061 0.312139
10 2 0.329124 0.086257 0.598118
11 2 0.31693 0.424967 0.0949851
12 2 0.446468 0.163891 0.475214
13 2 0.532734 0.94512 0.217893
14 2 0.36692 0.959557 0.0889819
15 2 0.113074 0.34409 0.380218
16 2 0.451127 0.216389 0.098749
17 2 0.406207 0.108365 0.3831
18 2 0.328664 0.281645 0.708317
19 2 0.374445 0.114715 0.433797
20 2 0.808412 0.54504 0.188501
21 2 0.663857 0.083655 0.217075
22 2 0.291752 0.324501 0.200629
23 2 0.112567 0.458311 0.713234
24 2 0.340772 0.288813 0.117715
25 2 0.179549 0.47513 0.431575
26 2 0.540634 0.629711 0.484489
27 2 0.609945 0.572316 0.17675
28 2 0.172759 0.34287 0.267337
29 2 0.964721 0.148668 0.383104
30 2 0.312792 0.378836 0.274757
31 2 0.543858 0.162874 0.153868
32 2 0.708722 0.268031 0.743964
33 2 0.494621 0.148075 0.187431
34 2 0.354907 0.462603 0.256296
35 2 0.188518 0.302941 0.517169
36 2 0.00968953 0.408556 0.520049
37 2 0.101634 0.495707 0.453678
38 2 0.0372958 0.271384 0.566151
39 2 0.153062 0.235234 0.27244
40 2 0.181126 0.00945532 0.331588
41 2 0.963311 0.324431 0.0930682
42 2 0.931022 0.065912 0.930096
43 2 0.615409 0.321494 0.184189
44 2 0.296125 0.824831 0.453368
45 2 0.914264 0.422267 0.150508
46 2 0.585025 0.0447739 0.521076
47 2 0.417437 0.892075 0.584757
48 2 0.14016 0.0929079 0.933763
49 2 0.564032 0.384837 0.414754
50 2 0.140836 0.198477 0.443692
51 2 0.635098 0.242098 0.772653
52 2 0.225929 0.0632633 0.969429
53 2 0.356329 0.141056 0.874861
54 2 0.328248 0.24403 0.399753
55 2 0.142949 0.085546 0.460822
56 2 0.410323 0.25898 0.204721
57 2 0.96767 0.182874 0.675562
58 2 0.0252212 0.24981 0.410944
59 2 0.440668 0.453874 0.16297
60 2 0.613509 0.189563 0.990984
61 2 0.0123939 0.242779 0.513126
62 2 0.364252 0.250102 0.298989
63 2 0.266694 0.0417101 0.078699
64 2 0.560529 0.377772 0.15782
65 2 0.302565 0.0368368 0.993506
66 2 0.209164 0.172785 0.608628
67 2 0.131493 0.488289 0.188516
68 2 0.808018 0.346863 0.321896
69 2 0.355668 0.155189 0.220369
70 2 0.613659 0.433462 0.0319227
71 2 0.0309909 0.735467 0.240946
72 2 0.99366 0.840421 0.663697
73 2 0.567745 0.892294 0.201145
74 2 0.277158 0.00305359 0.888287
75 2 0.988925 0.524818 0.469516
76 2 0.28629 0.29225 0.217286
77 2 0.336442 0.119445 0.279215
78 2 0.734508 0.0664389 0.329971
79 2 0.0562957 0.389264 0.555592
80 2 0.168296 0.381313 0.0899786
81 2 0.0249873 0.675268 0.136107
82 2 0.348248 0.347555 0.895718
83 2 0.164391 0.281212 0.88524
84 2 0.210017 0.463525 0.453142
85 2 0.672249 0.310332 0.195503
86 2 0.416117 0.0241668 0.983736
87 2 0.529927 0.388801 0.22666
88 2 0.233823 0.474368 0.0131899
89 2 0.141194 0.441239 0.321465
90 2 0.879987 0.69552 0.153205
91 2 0.787007 0.14433 0.864205
92 2 0.568202 0.115276 0.712248
93 2 0.267034 0.700467 0.317111
94 2 0.145391 0.24178 0.00815029
95 2 0.311817 0.381821 0.603219
96 2 0.542616 0.290647 0.562854
97 2 0.189326 0.663092 0.51778
98 2 0.329652 0.0897589 0.126274
99 2 0.284113 0.243036 0.652804
100 2 0.418766 0.287133 0.0147934
101 2 0.444713 0.0474226 0.11953
102 2 0.105531 0.120163 0.227651
103 2 0.191531 0.52696 0.378878
104 2 0.0677252 0.568423 0.0665582
105 2 0.625555 0.393827 0.157864
106 2 0.357685 0.0474092 0.322309
107 2 0.438754 0.222058 0.35603
108 2 0.269487 0.42362 0.954115
109 2 0.902211 0.219055 0.682304
110 2 0.490951 0.567034 0.11154
111 2 0.361595 0.647921 0.573742
112 2 0.26835 0.226486 0.197372
113 2 0.133127 0.339701 0.609226
114 2 0.295591 0.290566 0.251885
115 2 0.611486 0.942727 0.454721
116 2 0.337553 0.211403 0.180892
117 2 0.46999 0.574923 0.336772
118 2 0.993539 0.324632 0.395001
119 2 0.0307285 0.223435 0.236779
120 2 0.38918 0.230955 0.390472
121 2 0.298072 0.111916 0.351856
122 2 0.13658 0.0829679 0.899589
123 2 0.0394037 0.142975 0.404767
124 2 0.131805 0.191869 0.561835
125 2 0.192555 0.296284 0.175411
126 2 0.320538 0.608286 0.974531
127 2 0.440977 0.247046 0.149442
128 2 0.261605 0.776125 0.410673
129 2 0.439277 0.075143 0.46587
130 2 0.427607 0.398312 0.46881
131 2 0.132761 0.0227299 0.293775
132 2 0.171284 0.460887 0.0715963
133 2 0.0925738 0.437947 0.581776
134 2 0.977508 0.229711 0.199176
135 2 0.760696 0.177347 0.333062
136 2 0.387372 0.26747 0.0153385
137 2 0.134979 0.447962 0.141218
138 2 0.509373 0.929412 0.193658
139 2 0.351499 0.405039 0.467514
140 2 0.728122 0.235214 0.477034
141 2 0.315957 0.0386326 0.0508292
142 2 0.686125 0.319215 0.0847039
143 2 0.312123 0.978237 0.0299886
144 2 0.941036 0.696226 0.186273
145 2 0.072274 0.403185 0.715522
146 2 0.427744 0.459255 0.486036
147 2 0.212157 0.371726 0.30237
148 2 0.173437 0.00204694 0.948632
149 2 0.204606 0.427804 0.402959
150 2 0.488277 0.197809 0.588819
151 2 0.343947 0.235467 0.984493
152 2 0.7745 0.483471 0.971851
153 2 0.205856 0.362058 0.268594
154 2 0.662392 0.924748 0.338447
155 2 0.618013 0.13308 0.276416
156 2 0.0159011 0.0112983 0.418966
157 2 0.589633 0.786141 0.349514
158 2 0.184081 0.0988284 0.209703
159 2 0.423473 0.0893687 0.521875
160 2 0.158238 0.98965 0.216048
161 2 0.526233 0.00763944 0.532716
162 2 0.0957651 0.668274 0.453099
163 2 0.666625 0.916431 0.437966
164 2 0.175471 0.416565 0.486822
165 2 0.88152 0.331308 0.842361
166 2 0.0917575 0.476298 0.307397
167 2 0.843339 0.95399 0.487781
168 2 0.249745 0.225963 0.336231
169 2 0.23884 0.994423 0.09949
170 2 0.934572 0.716119 0.216746
171 2 0.0943846 0.419534 0.790062
172 2 0.234454 0.423526 0.51339
173 2 0.392042 0.40523 0.522125
174 2 0.202088 0.111389 0.451899
175 2 0.28115 0.72109 0.089463
176 2 0.0711087 0.450479 0.32708
177 2 0.324961 0.851772 0.513964
178 2 0.218835 0.438488 0.0212632
179 2 0.605315 0.310087 0.872993
180 2 0.104086 0.0222534 0.102996
181 2 0.607847 0.306656 0.378315
182 2 0.959137 0.822366 0.177982
183 2 0.0574242 0.32615 0.655287
184 2 0.202039 0.187673 0.334687
185 2 0.209231 0.283573 0.468006
186 2 0.119477 0.577347 0.512646
187 2 0.851171 0.500529 0.903494
188 2 0.187069 0.964305 0.229102
189 2 0.408709 0.94086 0.453791
190 2 0.983027 0.737244 0.610165
191 2 0.219195 0.231328 0.226193
192 2 0.86497 0.0377796 0.528858
193 2 0.441545 0.0237166 0.0930709
194 2 0.091436 0.448962 0.389474
195 2 0.594744 0.457825 0.788198
196 2 0.898322 0.445612 0.311571
197 2 0.850432 0.165336 0.85649
198 2 0.203776 0.568362 0.0207709
199 2 0.147899 0.254515 0.510422
200 2 0.234061 0.293248 0.249984
201 2 0.292489 0.0810172 0.968852
202 2 0.185688 0.942193 0.579546
203 2 0.429956 0.578073 0.0913775
204 2 0.420615 0.13496 0.473264
205 2 0.973135 0.529051 0.152787
206 2 0.370389 0.192004 0.179869
207 2 0.366954 0.361796 0.163786
208 2 0.27401 0.706402 0.224002
209 2 0.111454 0.235816 0.332979
210 2 0.77068 0.973854 0.768024
211 2 0.256314 0.46822 0.0914559
212 2 0.290502 0.347506 0.276956
213 2 0.357822 0.141792 0.682899
214 2 0.0430338 0.0564915 0.446422
215 2 0.479708 0.192912 0.15444
216 2 0.378611 0.298751 0.0739425
217 2 0.0310469 0.515869 0.174736
218 2 0.220469 0.296584 0.908716
219 2 0.00786939 0.995142 0.260322
220 2 0.448346 0.139723 0.285107
221 2 0.250384 0.0299571 0.109852
222 2 0.0637184 0.798928 0.325507
223 2 0.416115 0.367734 0.545898
224 2 0.234611 0.19492 0.423463
225 2 0.134334 0.418819 0.247321
226 2 0.0941609 0.79402 0.214124
227 2 0.290388 0.367696 0.115661
228 2 0.924201 0.882829 0.372971
229 2 0.48013 0.115599 0.3305
230 2 0.238892 0.16018 0.905901
231 2 0.14553 0.797619 0.259764
232 2 0.684045 0.471522 0.191051
233 2 0.183437 0.310318 0.281862
234 2 0.565883 0.335207 0.229528
235 2 0.401058 0.337885 0.232454
236 2 0.465192 0.917958 0.954498
237 2 0.378543 0.0280501 0.750618
238 2 0.908819 0.219386 0.387739
239 2 0.164728 0.517109 0.837332
240 2 0.55775 0.0157267 0.679507
241 2 0.0757994 0.445035 0.81049
242 2 0.483659 0.848418 0.25722
243 2 0.301551 0.441225 0.945348
244 2 0.0541724 0.45848 0.688266
245 2 0.370858 0.822092 0.0427348
246 2 0.667298 0.624712 0.169579
247 2 0.0669612 0.443853 0.134914
248 2 0.0869032 0.430426 0.354965
249 2 0.683947 0.136391 0.400903
250 2 0.463953 0.297253 0.123385
251 2 0.21759 0.596888 0.172148
252 2 0.423581 0.166098 0.38542
253 2 0.0264655 0.187711 0.652331
254 2 0.537426 0.815297 0.838357
255 2 0.757077 0.882274 0.261744
256 2 0.219777 0.0922084 0.477317
257 2 0.674281 0.633105 0.430652
258 2 0.981515 0.361009 0.351399
259 2 0.372369 0.283643 0.247609
260 2 0.438887 0.518055 0.226927
261 2 0.989291 0.242992 0.129644
262 2 0.692384 0.972892 0.368963
263 2 0.349161 0.329222 0.169455
264 2 0.277834 0.378799 0.226085
265 2 0.421414 0.0257004 0.217314
266 2 0.260122 0.265031 0.448903
267 2 0.341626 0.203286 0.0338232
268 2 0.0424299 0.299157 0.0338651
269 2 0.172478 0.404302 0.73573
270 2 0.724209 0.240384 0.101994
271 2 0.387899 0.847437 0.113928
272 2 0.608239 0.0305922 0.293834
273 2 0.0852832 0.319769 0.365207
274 2 0.410251 0.127511 0.439434
275 2 0.519528 0.79201 0.959915
276 2 0.248641 0.981398 0.87734
277 2 0.331874 0.512032 0.488632
278 2 0.0779767 0.22842 0.567668
279 2 0.0950293 0.115782 0.399571
280 2 0.545567 0.370156 0.00757825
281 2 0.19145 0.328212 0.489315
282 2 0.180338 0.286289 0.798465
283 2 0.0582662 0.213784 0.466083
284 2 0.310923 0.138569 0.256367
285 2 0.111113 0.0389501 0.197563
286 2 0.0531635 0.377668 0.128132
287 2 0.162964 0.122757 0.416211
288 2 0.324258 0.234591 0.15405
289 2 0.253483 0.236652 0.497048
290 2 0.962946 0.594831 0.590923
291 2 0.674559 0.214357 0.837119
292 2 0.395889 0.163505 0.266479
293 2 0.217092 0.309761 0.410474
294 2 0.0585226 0.671399 0.986966
295 2 0.0479482 0.470999 0.505188
296 2 0.241439 0.66408 0.0907842
297 2 0.504599 0.635739 0.138348
298 2 0.281244 0.334883 0.311779
299 2 0.374752 0.0378292 0.615238
300 2 0.175604 0.317937 0.653744
301 2 0.263987 0.240971 0.0979577
302 2 0.526407 0.195087 0.82054
303 2 0.708907 0.972784 0.819041
304 2 0.281479 0.543761 0.934939
305 2 0.723728 0.264845 0.286818
306 2 0.409741 0.822701 0.132939
307 2 0.576138 0.997126 0.381199
308 2 0.57856 0.255632 0.243076
309 2 0.023186 0.41501 0.39177
310 2 0.163002 0.503365 0.619886
311 2 0.244136 0.393994 0.307869
312 2 0.546967 0.875124 0.507916
313 2 0.452265 0.987145 0.032386
314 2 0.732506 0.22494 0.82211
315 2 0.0338758 0.58093 0.342039
316 2 0.863305 0.473708 0.402493
317 2 0.299228 0.757103 0.043395
318 2 0.289858 0.408051 0.267306
319 2 0.854279 0.322285 0.867794
320 2 0.238987 0.919962 0.605383
321 2 0.023883 0.333675 0.545995
322 2 0.460784 0.133539 0.125129
323 2 0.197683 0.464036 0.813695
324 2 0.1717 0.156544 0.220118
325 2 0.161702 0.320664 0.466795
326 2 0.226903 0.921774 0.212516
327 2 0.589293 0.289691 0.954211
328 2 0.386716 0.944125 0.00261403
329 2 0.974124 0.0565089 0.362943
330 2 0.0250138 0.596034 0.181074
331 2 0.619619 0.528376 0.0515773
332 2 0.0280738 0.38505 0.0133395
333 2 0.923012 0.845276 0.442576
334 2 0.0343583 0.357098 0.433019
335 2 0.164815 0.252367 0.478245
336 2 0.79346 0.02621 0.713994
337 2 0.251251 0.751206 0.32385
338 2 0.528854 0.543299 0.909108
339 2 0.391474 0.0648936 0.183345
340 2 0.238588 0.95928 0.789266
341 2 0.387415 0.534205 0.97266
342 2 0.323376 0.149831 0.152816
343 2 0.540127 0.297843 0.352275
344 2 0.126663 0.993505 0.237232
345 2 0.218718 0.39433 0.0668021
346 2 0.158644 0.398513 0.266476
347 2 0.371902 0.275353 0.361986
348 2 0.0469826 0.460241 0.539868
349 2 0.519415 0.855931 0.771956
350 2 0.997839 0.475534 0.0334392
351 2 0.000910126 0.0498039 0.636162
352 2 0.318771 0.00848948 0.286738
353 2 0.408375 0.244363 0.169015
354 2 0.75115 0.236097 0.127365
355 2 0.153939 0.98127 0.00686469
356 2 0.179384 0.511446 0.204911
357 2 0.570329 0.171413 0.265376
358 2 0.0450828 0.493181 0.263454
359 2 0.762787 0.240113 0.439228
360 2 0.209957 0.220932 0.0237504
361 2 0.417626 0.96384 0.399557
362 2 0.317568 0.364797 0.571729
363 2 0.455487 0.326006 0.893916
364 2 0.353965 0.19286 0.0687995
365 2 0.187451 0.227052 0.965349
366 2 0.364837 0.260026 0.395648
367 2 0.343759 0.0321852 0.208355
368 2 0.115323 0.549536 0.157603
369 2 0.440546 0.45189 0.843188
370 2 0.0750628 0.391582 0.47355
371 2 0.0559737 0.361513 0.404734
372 2 0.37591 0.376935 0.337906
373 2 0.514734 0.411587 0.334052
374 2 0.975758 0.314885 0.513215
375 2 0.296377 0.55858 0.574928
376 2 0.947961 0.384912 0.112114
377 2 0.965917 0.499632 0.130441
378 2 0.325434 0.247579 0.503545
379 2 0.164799 0.542456 0.532723
380 2 0.100724 0.601026 0.26942
381 2 0.315327 0.325883 0.936588
382 2 0.341551 0.918444 0.540912
383 2 0.468397 0.182487 0.0842588
384 2 0.152539 0.0793717 0.692491
385 2 0.27047 0.433874 0.390757
386 2 0.66345 0.327094 0.164547
387 2 0.369013 0.287566 0.459707
388 2 0.296033 0.411392 0.23296
389 2 0.372797 0.204709 0.369393
390 2 0.446873 0.0051602 0.681696
391 2 0.136094 0.336309 0.550561
392 2 0.355499 0.808296 0.855079
393 2 0.331587 0.800652 0.252168
394 2 0.417641 0.11927 0.875658
395 2 0.445152 0.382483 0.0301316
396 2 0.0925292 0.104887 0.48815
397 2 0.745057 0.565812 0.303916
398 2 0.997993 0.646216 0.806209
399 2 0.144077 0.437421 0.477141
400 2 0.331011 0.261293 0.00754994
401 2 0.176796 0.985347 0.154041
402 2 0.277084 0.603773 0.266228
403 2 0.459836 0.0169273 0.616436
404 2 0.469982 0.502255 0.279489
405 2 0.147986 0.127243 0.113965
406 2 0.0582559 0.0943854 0.279496
407 2 0.470613 0.887916 0.00548326
408 2 0.91745 0.52348 0.172541
409 2 0.384831 0.253087 0.138599
410 2 0.0108916 0.382276 0.683717
411 2 0.783292 0.295844 0.919783
412 2 0.511647 0.756398 0.1785
413 2 0.174793 0.926589 0.00547574
414 2 0.8461 0.203409 0.385355
415 2 0.161173 0.295653 0.306416
416 2 0.196147 0.0425369 0.254642
417 2 0.388821 0.40454 0.419013
418 2 0.535125 0.350541 0.177005
419 2 0.51549 0.600495 0.19005
420 2 0.0646304 0.375525 0.163754
421 2 0.914848 0.407879 0.735459
422 2 0.250504 0.138816 0.315381
423 2 0.362838 0.307812 0.195296
424 2 0.144849 0.549883 0.0394703
425 2 0.402139 0.0772962 0.336766
426 2 0.32043 0.221118 0.11832
427 2 0.587255 0.344455 0.783898
428 2 0.184685 0.192446 0.224348
429 2 0.429793 0.199231 0.481855
430 2 0.992849 0.127634 0.280402
431 2 0.383101 0.601854 0.979998
432 2 0.968711 0.0380767 0.408532
433 2 0.544673 0.0112366 0.146882
434 2 0.324789 0.00487872 0.143304
435 2 0.461157 0.97092 0.197434
436 2 0.168767 0.250669 0.343545
437 2 0.211976 0.881377 0.644402
438 2 0.860016 0.478729 0.010132
439 2 0.505473 0.99634 0.208647
440 2 0.388378 0.00168893 0.139424
441 2 0.214093 0.983559 0.252145
442 2 0.0681378 0.996954 0.206535
443 2 0.29702 0.902923 0.221924
444 2 0.796182 0.276391 0.557912
445 2 0.0258815 0.333031 0.0969254
446 2 0.99213 0.514601 0.180958
447 2 0.445115 0.0270506 0.382739
448 2 0.418383 0.0519168 0.957637
449 2 0.36049 0.310101 0.35225
450 2 0.100011 0.808129 0.332581
451 2 0.35928 0.176289 0.422553
452 2 0.0312732 0.490202 0.229848
453 2 0.0826397 0.201222 0.442335
454 2 0.849286 0.262509 0.569866
455 2 0.531894 0.351497 0.215497
456 2 0.712944 0.414841 0.886912
457 2 0.31053 0.269343 0.478925
458 2 0.117349 0.257261 0.0709927
459 2 0.582776 0.279683 0.613688
460 2 0.966099 0.318183 0.909488
461 2 0.886278 0.0879718 0.391794
462 2 0.444198 0.755661 0.0292866
463 2 0.300989 0.246597 0.0996506
464 2 0.463626 0.337771 0.177738
465 2 0.115556 0.240584 0.402749
466 2 0.510516 0.0294565 0.149597
467 2 0.909193 0.485386 0.246119
468 2 0.995356 0.497302 0.107219
469 2 0.445135 0.350262 0.921785
470 2 0.26306 0.293593 0.271475
471 2 0.488776 0.477342 0.332552
472 2 0.260517 0.199509 0.489237
473 2 0.0548977 0.202277 0.11391
474 2 0.247912 0.648223 0.417265
475 2 0.317748 0.155407 0.115882
476 2 0.0772355 0.0988542 0.546025
477 2 0.4663 0.340873 0.217129
478 2 0.474277 0.928518 0.242946
479 2 0.134309 0.313144 0.490705
480 2 0.347046 0.557556 0.14742
481 2 0.318452 0.144964 0.220739
482 2 0.347236 0.273257 0.273893
483 2 0.368691 0.385766 0.0402996
484 2 0.0856101 0.281238 0.356473
485 2 0.771631 0.538843 0.0226872
486 2 0.621694 0.869107 0.131433
487 2 0.254777 0.2698 0.0359772
488 2 0.137862 0.37094 0.491501
489 2 0.616134 0.148243 0.349346
490 2 0.340861 0.388805 0.155973
491 2 0.285523 0.37684 0.433588
492 2 0.0984473 0.315593 0.433508
493 2 0.112017 0.285671 0.87713
494 2 0.972088 0.165329 0.414025
495 2 0.341239 0.291539 0.565918
496 2 0.755419 0.558487 0.220644
497 2 0.269549 0.399637 0.112172
498 2 0.713642 0.963904 0.226
499 2 0.92059 0.0198846 0.085119
500 2 0.195397 0.58739 0.774418
501 2 0.281425 0.296547 0.0461468
502 2 0.273834 0.318901 0.421445
503 2 0.293066 0.386693 0.553155
504 2 0.737433 0.0740528 0.0467812
505 2 0.0611299 0.246467 0.22593
506 2 0.579341 0.367779 0.126622
507 2 0.475528 0.902913 0.138988
508 2 0.268381 0.196762 0.319371
509 2 0.668434 0.700434 0.235166
510 2 0.185848 0.130868 0.506746
511 2 0.0884045 0.270918 0.900419
512 2 0.50237 0.171064 0.10232
513 2 0.030106 0.0512968 0.553406
514 2 0.123409 0.18934 0.249305
515 2 0.895807 0.877014 0.0961154
516 2 0.428001 0.386647 0.387831
517 2 0.412323 0.251198 0.277014
518 2 0.535451 0.982448 0.22785
519 2 0.879802 0.639847 0.155336
520 2 0.182285 0.385579 0.320506
521 2 0.104343 0.0852256 0.458376
522 2 0.0724738 0.29049 0.0532978
523 2 0.988845 0.254062 0.095648
524 2 0.28199 0.439861 0.792505
525 2 0.227933 0.84512 0.647773
526 2 0.203436 0.471418 0.253162
527 2 0.629159 0.113726 0.474908
528 2 0.237369 0.542119 0.878539
529 2 0.608076 0.369145 0.359509
530 2 0.512275 0.0532092 0.121948
531 2 0.120237 0.449229 0.414214
532 2 0.695205 0.639582 0.286513
533 2 0.405757 0.543305 0.364509
534 2 0.511457 0.214271 0.165009
535 2 0.284452 0.0995695 0.289385
536 2 0.146281 0.732371 0.533361
537 2 0.414059 0.433788 0.330427
538 2 0.96861 0.554482 0.921279
539 2 0.132285 0.552089 0.454586
540 2 0.241752 0.503567 0.288394
541 2 0.971394 0.424236 0.478336
542 2 0.339847 0.406849 0.434342
543 2 0.136165 0.13509 0.793674
544 2 0.0284215 0.397988 0.252167
545 2 0.599124 0.116005 0.357647
546 2 0.330471 0.874594 0.949798
547 2 0.503555 0.260248 0.295655
548 2 0.246151 0.288922 0.216315
549 2 0.188594 0.496754 0.278212
550 2 0.374189 0.936916 0.181542
551 2 0.635233 0.907541 0.389334
552 2 0.242526 0.332065 0.588104
553 2 0.60587 0.308317 0.907525
554 2 0.172456 0.284516 0.455895
555 2 0.145493 0.22041 0.125928
556 2 0.244274 0.552861 0.732265
557 2 0.432692 0.560722 0.03299
558 2 0.20318 0.488832 0.376573
559 2 0.372962 0.376456 0.478396
560 2 0.258174 0.265488 0.94524
561 2 0.0701745 0.650564 0.287945
562 2 0.436652 0.121065 0.150554
563 2 0.564515 0.205755 0.201201
564 2 0.480716 0.986727 0.0580306
565 2 0.68609 0.194757 0.0772549
566 2 0.269388 0.991677 0.303016
567 2 0.0190309 0.14411 0.0442575
568 2 0.96375 0.86025 0.0765075
569 2 0.469912 0.524357 0.208066
570 2 0.288572 0.408725 0.180886
571 2 0.134654 0.385858 0.143647
572 2 0.222783 0.417911 0.222801
573 2 0.105834 0.00207805 0.207998
574 2 0.540503 0.0131852 0.0911325
575 2 0.314815 0.25791 0.258713
576 2 0.616554 0.501535 0.580985
577 2 0.252395 0.294481 0.503778
578 2 0.197902 0.283185 0.260256
579 2 0.266531 0.539886 0.496882
580 2 0.568312 0.109352 0.526747
581 2 0.966201 0.234679 0.419833
582 2 0.22668 0.556793 0.29483
583 2 0.368179 0.00561854 0.387183
584 2 0.426331 0.294195 0.20125
585 2 0.404447 0.0417638 0.0147017
586 2 0.998697 0.186641 0.934238
587 2 0.0995917 0.565314 0.579158
588 2 0.0456805 0.352755 0.328166
589 2 0.775005 0.369759 0.11577
590 2 0.0493422 0.509232 0.493426
591 2 0.469931 0.153822 0.502088
592 2 0.0725857 0.82866 0.117591
593 2 0.821803 0.33269 0.537143
594 2 0.254316 0.0766981 0.297971
595 2 0.62527 0.647211 0.234111
596 2 0.356811 0.132489 0.501224
597 2 0.415238 0.0915621 0.195981
598 2 0.251975 0.664168 0.500712
599 2 0.283504 0.990117 0.494988
600 2 0.139787 0.191715 0.704223
601 2 0.153463 0.313187 0.976981
602 2 0.0691824 0.893743 0.587933
603 2 0.247685 0.395978 0.485251
604 2 0.42575 0.528298 0.31413
605 2 0.201469 0.0766332 0.403593
606 2 0.435473 0.495401 0.537287
607 2 0.0979673 0.160178 0.0837452
608 2 0.308214 0.0390003 0.140461
609 2 0.143537 0.398863 0.110788
610 2 0.200175 0.464946 0.164138
611 2 0.453943 0.399132 0.181656
612 2 0.34696 0.959682 0.16774
613 2 0.561808 0.27916 0.0842137
614 2 0.126971 0.10634 0.141591
615 2 0.391614 0.788613 0.920663
616 2 0.392175 0.19492 0.340271
617 2 0.765611 0.703869 0.414109
618 2 0.886261 0.0847205 0.5818
619 2 0.129174 0.334159 0.106696
620 2 0.527229 0.183534 0.950253
621 2 0.301851 0.933137 0.318945
622 2 0.258711 0.597318 0.235368
623 2 0.423096 0.961313 0.0951635
624 2 0.0886786 0.0330684 0.964375
625 2 0.414179 0.230063 0.0865728
626 2 0.713811 0.204519 0.0991084
627 2 0.0241924 0.974122 0.317147
628 2 0.651855 0.183348 0.383355
629 2 0.403028 0.656804 0.283675
630 2 0.418148 0.139701 0.329776
631 2 0.23936 0.377623 0.0136536
632 2 0.297624 0.91831 0.406264
633 2 0.12817 0.660109 0.12087
634 2 0.0799223 0.452432 0.496538
635 2 0.300239 0.55194 0.687684
636 2 0.276068 0.375825 0.935084
637 2 0.471221 0.0964396 0.90803
638 2 0.433325 0.936749 0.377338
639 2 0.467625 0.0651322 0.0556665
640 2 0.304194 0.7734 0.248436
641 2 0.31396 0.95742 0.350166
642 2 0.809406 0.119133 0.482712
643 2 0.807786 0.436892 0.287011
644 2 0.0360908 0.173367 0.544381
645 2 0.390799 0.951342 0.328387
646 2 0.666042 0.22568 0.515402
647 2 0.165235 0.70039 0.329211
648 2 0.292932 0.324928 0.907225
649 2 0.825527 0.114686 0.154261
650 2 0.28896 0.436131 0.851707
651 2 0.358318 0.0668278 0.201786
652 2 0.516199 0.492364 0.948656
653 2 0.612968 0.316299 0.455816
654 2 0.0221711 0.428106 0.642525
655 2 0.935008 0.504391 0.108708
656 2 0.365015 0.366103 0.839323
657 2 0.976401 0.123391 0.631287
658 2 0.239606 0.129355 0.379602
659 2 0.246491 0.810848 0.421828
660 2 0.768132 0.382978 0.481969
661 2 0.525968 0.76871 0.354505
662 2 0.999209 0.914094 0.54173
663 2 0.0447096 0.0696364 0.580012
664 2 0.214951 0.739903 0.427605
665 2 0.274109 0.12334 0.813278
666 2 0.373839 0.340853 0.982083
667 2 0.575239 0.150239 0.453785
668 2 0.511851 0.936099 0.979943
669 2 0.948968 0.56603 0.612551
670 2 0.909704 0.391262 0.678562
671 2 0.773863 0.982249 0.251197
672 2 0.278048 0.527897 0.463238
673 2 0.213757 0.323377 0.0381856
674 2 0.236582 0.148047 0.282932
675 2 0.308551 0.222921 0.976989
676 2 0.327188 0.0304009 0.723673
677 2 0.0412145 0.115965 0.737343
678 2 0.478334 0.467493 0.166554
679 2 0.0604856 0.968557 0.327376
680 2 0.209112 0.479055 0.872417
681 2 0.366193 0.213152 0.00623596
682 2 0.340233 0.981498 0.0067932
683 2 0.0496419 0.240722 0.51948
684 2 0.763604 0.409143 0.378418
685 2 0.305669 0.580181 0.275177
686 2 0.276324 0.754584 0.0729468
687 2 0.519753 0.212169 0.347742
688 2 0.127144 0.458891 0.991469
689 2 0.430672 0.218226 0.901037
690 2 0.304752 0.887398 0.473164
691 2 0.140826 0.36436 0.2701
692 2 0.191053 0.189294 0.972606
693 2 0.925411 0.154911 0.227612
694 2 0.150412 0.528067 0.30302
695 2 0.813809 0.979138 0.298963
696 2 0.0864006 0.226154 0.0172076
697 2 0.28083 0.520735 0.0786106
698 2 0.487173 0.161167 0.133455
699 2 0.355974 0.287682 0.0191743
700 2 0.0514692 0.994206 0.546244
701 2 0.514986 0.414224 0.202927
702 2 0.208362 0.780729 0.862112
703 2 0.114517 0.338644 0.211796
704 2 0.453314 0.151938 0.25274
705 2 0.259261 0.922607 0.160137
706 2 0.976182 0.570252 0.34181
707 2 0.106379 0.406476 0.0643935
708 2 0.378675 0.489995 0.358307
709 2 0.326553 0.378579 0.122856
710 2 0.304771 0.190026 0.328972
711 2 0.721234 0.708768 0.540099
712 2 0.0395729 0.531295 0.52113
713 2 0.121078 0.610525 0.970737
714 2 0.472004 0.182755 0.812365
715 2 0.321745 0.180887 0.463851
716 2 0.405317 0.268709 0.345342
717 2 0.292236 0.71067 0.150437
718 2 0.0371849 0.38834 0.793607
719 2 0.460313 0.260364 0.0504448
720 2 0.545949 0.609001 0.979177
721 2 0.701019 0.137646 0.809231
722 2 0.292118 0.235742 0.279589
723 2 0.235238 0.453873 0.176823
724 2 0.0224491 0.37812 0.0478349
725 2 0.28772 0.651576 0.771324
726 2 0.928273 0.210147 0.535153
727 2 0.115533 0.433504 0.448635
728 2 0.162321 0.426864 0.125301
729 2 0.333891 0.304795 0.291749
730 2 0.106591 0.277559 0.0409374
731 2 0.233052 0.325714 0.552861
732 2 0.377259 0.705585 0.393369
733 2 0.435614 0.211024 0.516921
734 2 0.56785 0.45397 0.941215
735 2 0.151957 0.160942 0.153944
736 2 0.084841 0.45453 0.246399
737 2 0.662073 0.0655781 0.848633
738 2 0.611735 0.200176 0.300604
739 2 0.283873 0.0991638 0.222196
740 2 0.120918 0.565062 0.926191
741 2 0.0797092 0.41231 0.94514
742 2 0.0204409 0.275185 0.0831128
743 2 0.305291 0.568245 0.0621165
744 2 0.147927 0.841543 0.40946
745 2 0.993664 0.164527 0.36477
746 2 0.338586 0.192172 0.26982
747 2 0.0610263 0.379483 0.0929288
748 2 0.0994797 0.205913 0.509948
749 2 0.0637917 0.389359 0.000120581
750 2 0.533269 0.326681 0.375726
751 2 0.588102 0.127145 0.409918
752 2 0.240549 0.0758748 0.598835
753 2 0.310199 0.464017 0.208355
754 2 0.182495 0.809578 0.626325
755 2 0.668122 0.00532804 0.45779
756 2 0.115541 0.265182 0.715512
757 2 0.844423 0.285718 0.519926
758 2 0.402213 0.282825 0.930645
759 2 0.401945 0.246832 0.31204
760 2 0.360627 0.413368 0.341237
761 2 0.00985023 0.674405 0.351127
762 2 0.206999 0.424853 0.771405
763 2 0.390921 0.0776249 0.834578
764 2 0.514117 0.475136 0.0326133
765 2 0.25498 0.163693 0.370767
766 2 0.824452 0.170147 0.962413
767 2 0.726999 0.464658 0.270253
768 2 0.294682 0.784609 0.57927
769 2 0.815694 0.232472 0.524169
770 2 0.906424 0.251773 0.0296225
771 2 0.201466 0.163051 0.274274
772 2 0.108602 0.439897 0.0181222
773 2 0.144474 0.348295 0.966449
774 2 0.0916939 0.327494 0.268653
775 2 0.0355136 0.471275 0.719965
776 2 0.556734 0.0334698 0.963899
777 2 0.100459 0.046246 0.460044
778 2 0.803409 0.436521 0.482594
779 2 0.135009 0.280095 0.155195
780 2 0.117112 0.51945 0.747698
781 2 0.947598 0.64846 0.543105
782 2 0.935719 0.414529 0.491309
783 2 0.507188 0.0342651 0.20624
784 2 0.473564 0.178394 0.322064
785 2 0.635832 0.328651 0.0598366
786 2 0.448242 0.324528 0.288893
787 2 0.976784 0.401956 0.206936
788 2 0.208341 0.589758 0.536286
789 2 0.296287 0.895569 0.0773193
790 2 0.335549 0.886435 0.00409689
791 2 0.504086 0.440353 0.903393
792 2 0.372533 0.577667 0.168406
793 2 0.0278278 0.959978 0.838647
794 2 0.433063 0.34109 0.149181
795 2 0.436071 0.431888 0.541506
796 2 0.860186 0.191362 0.557365
797 2 0.991061 0.439877 0.531644
798 2 0.100217 0.303842 0.221177
799 2 0.187786 0.133185 0.194886
800 2 0.150782 0.196078 0.0989127
801 2 0.213168 0.222475 0.284039
802 2 0.423203 0.403903 0.309026
803 2 0.275365 0.191059 0.0918352
804 2 0.996492 0.330678 0.0742052
805 2 0.577328 0.361492 0.840478
806 2 0.478778 0.547211 0.864026
807 2 0.288629 0.219643 0.00764016
808 2 0.0588647 0.325382 0.391668
809 2 0.976411 0.129121 0.187794
810 2 0.204515 0.142158 0.734984
811 2 0.183952 0.640604 0.287201
812 2 0.238631 0.137071 0.141956
813 2 0.418111 0.247628 0.373219
814 2 0.217503 0.416904 0.36926
815 2 0.17528 0.213602 0.397409
816 2 0.43427 0.44358 0.0739508
817 2 0.217773 0.308454 0.607689
818 2 0.298274 0.626543 0.0707335
819 2 0.038882 0.11055 0.189615
820 2 0.135634 0.311082 0.761901
821 2 0.60394 0.284442 0.343897
822 2 0.383416 0.131984 0.0572921
823 2 0.537117 0.383172 0.0814543
824 2 0.516585 0.459548 0.1614
825 2 0.139378 0.476973 0.365381
826 2 0.974604 0.282901 0.676036
827 2 0.929908 0.637996 0.426574
828 2 0.23373 0.430994 0.311842
829 2 0.858583 0.403223 0.56377
830 2 0.643686 0.117052 0.297634
831 2 0.177046 0.411929 0.295101
832 2 0.440678 0.353572 0.56903
833 2 0.0744372 0.0997725 0.109971
834 2 0.246774 0.052966 0.911435
835 2 0.114106 0.100047 0.199104
836 2 0.549102 0.0333193 0.58373
837 2 0.60001 0.237441 0.300448
838 2 0.264194 0.124614 0.0143491
839 2 0.872517 0.496798 0.495758
840 2 0.291368 0.357395 0.0657995
841 2 0.682979 0.986806 0.0998773
842 2 0.562628 0.422651 0.305345
843 2 0.155134 0.164543 0.614628
844 2 0.899907 0.464253 0.556963
845 2 0.264095 0.450248 0.300573
846 2 0.0199278 0.423319 0.466379
847 2 0.293382 0.0454222 0.323628
848 2 0.211668 0.270391 0.0831216
849 2 0.141468 0.120263 0.335946
850 2 0.298741 0.891936 0.996485
851 2 0.301922 0.301845 0.310926
852 2 0.260827 0.447699 0.424504
853 2 0.126617 0.168194 0.590758
854 2 0.420445 0.215538 0.325664
855 2 0.409176 0.215673 0.0535255
856 2 0.249589 0.20378 0.147924
857 2 0.150148 0.0859288 0.195972
858 2 0.931011 0.164387 0.371445
859 2 0.245647 0.510972 0.446973
860 2 0.42206 0.649343 0.461935
861 2 0.3392 0.375293 0.249238
862 2 0.474192 0.86506 0.598091
863 2 0.903671 0.643387 0.347184
864 2 0.870252 0.138578 0.995776
865 2 0.974844 0.977694 0.638272
866 2 0.583689 0.482022 0.587365
867 2 0.222515 0.215594 0.650953
868 2 0.425145 0.112041 0.938225
869 2 0.0379963 0.143088 0.478132
870 2 0.0432039 0.274601 0.30222
871 2 0.899563 0.44957 0.372387
872 2 0.403307 0.288056 0.268912
873 2 0.631947 0.184487 0.924975
874 2 0.226329 0.370266 0.425908
875 2 0.109313 0.207117 0.132214
876 2 0.0341371 0.10518 0.634882
877 2 0.116078 0.273937 0.33604
878 2 0.498246 0.3758 0.615509
879 2 0.606412 0.357787 0.0192376
880 2 0.283769 0.413564 0.0825668
881 2 0.358564 0.318603 0.411703
882 2 0.220147 0.0945498 0.295647
883 2 0.271468 0.796165 0.350159
884 2 0.26304 0.400715 0.0304084
885 2 0.241655 0.89403 0.934614
886 2 0.127532 0.438758 0.52488
887 2 0.295726 0.126431 0.165909
888 2 0.236828 0.983244 0.339432
889 2 0.129902 0.162049 0.44001
890 2 0.383065 0.135548 0.241275
891 2 0.369188 0.112017 0.393266
892 2 0.877587 0.0649467 0.652687
893 2 0.0603403 0.0888063 0.0191181
894 2 0.353439 0.220076 0.0951134
895 2 0.894738 0.268113 0.315325
896 2 0.346001 0.343454 0.437019
897 2 0.903367 0.391665 0.483596
898 2 0.941889 0.017976 0.358327
899 2 0.390338 0.1137 0.326685
900 2 0.996256 0.224507 0.352475
901 2 0.29485 0.597404 0.401439
902 2 0.446445 0.677208 0.4704
903 2 0.308143 0.445183 0.123966