ITEM: TIMESTEP
203427
ITEM: NUMBER OF ATOMS
15000
ITEM: BOX BOUNDS pp pp pp
-1.8952498843031058e+00 5.9816433490478516e+01
-1.8952498843031058e+00 5.9816433490478516e+01
-1.8952498843031058e+00 6.4955951252535911e+01
ITEM: ATOMS id type xs ys zs
1 2 0.84131 0.047415 0.322272
2 2 0.638948 0.0806437 0.977269
3 2 0.627005 0.226524 0.995217
4 2 0.21574 0.180473 0.244012
5 2 0.229597 0.348011 0.241762
6 2 0.156841 0.277527 0.211162
7 2 0.500096 0.430986 0.0717973
8 2 0.376114 0.224479 0.531319
9 2 0.195985 0.0705312 0.310463
10 2 0.328691 0.0865051 0.597721
11 2 0.319074 0.42395 0.0955038
12 2 0.446513 0.164021 0.474931
13 2 0.532999 0.944646 0.217945
14 2 0.367238 0.959565 0.0891122
15 2 0.112963 0.343862 0.377445
16 2 0.451983 0.215911 0.0991474
17 2 0.407621 0.108891 0.382866
18 2 0.32857 0.282028 0.708786
19 2 0.374812 0.115442 0.432621
20 2 0.809714 0.545268 0.188793
21 2 0.664016 0.0836159 0.219418
22 2 0.292393 0.324885 0.199291
23 2 0.112102 0.458071 0.71371
24 2 0.342441 0.288061 0.117847
25 2 0.17922 0.475146 0.43073
26 2 0.540839 0.629201 0.484562
27 2 0.610117 0.572946 0.17598
28 2 0.174828 0.344326 0.264954
29 2 0.964109 0.149005 0.376695
30 2 0.313094 0.379167 0.273925
31 2 0.544323 0.162849 0.154992
32 2 0.709286 0.267643 0.74425
33 2 0.494964 0.147929 0.188371
34 2 0.354886 0.462805 0.255351
35 2 0.187925 0.302855 0.516061
36 2 0.00924816 0.407835 0.518309
37 2 0.10141 0.495443 0.45248
38 2 0.0367294 0.27142 0.564398
39 2 0.154588 0.23515 0.269095
40 2 0.180808 0.00952209 0.330186
41 2 0.96214 0.3207 0.0991516
42 2 0.93048 0.066615 0.932533
43 2 0.615098 0.323255 0.188362
44 2 0.295724 0.824476 0.45357
45 2 0.914423 0.421252 0.156167
46 2 0.58548 0.0446666 0.520087
47 2 0.417435 0.89213 0.58463
48 2 0.139689 0.0930616 0.935636
49 2 0.564074 0.384585 0.414691
50 2 0.139323 0.198712 0.441565
51 2 0.635581 0.242467 0.773073
52 2 0.225828 0.062546 0.969899
53 2 0.358216 0.139024 0.874014
54 2 0.328149 0.245194 0.399566
55 2 0.141607 0.0861151 0.459373
56 2 0.410473 0.25887 0.204594
57 2 0.967343 0.182984 0.675159
58 2 0.0245823 0.249446 0.405745
59 2 0.440476 0.453578 0.161356
60 2 0.61476 0.190035 0.992681
61 2 0.0119661 0.242802 0.510657
62 2 0.363894 0.250198 0.299125
63 2 0.266887 0.0406651 0.0800379
64 2 0.560503 0.378544 0.159499
65 2 0.302649 0.0364412 0.99292
66 2 0.208631 0.17292 0.608228
67 2 0.131698 0.488617 0.185406
68 2 0.807539 0.346478 0.314029
69 2 0.35613 0.154918 0.220694
70 2 0.61417 0.43339 0.0334839
71 2 0.0315624 0.735393 0.241389
72 2 0.993391 0.841033 0.663768
73 2 0.568184 0.891562 0.201224
74 2 0.27714 0.00345369 0.890176
75 2 0.988764 0.524453 0.468121
76 2 0.287392 0.292444 0.215877
77 2 0.336483 0.11917 0.280276
78 2 0.733715 0.0667054 0.328094
79 2 0.0557865 0.388995 0.554407
80 2 0.172534 0.371412 0.0997346
81 2 0.0248123 0.675754 0.135044
82 2 0.34818 0.347562 0.896594
83 2 0.163826 0.281316 0.886763
84 2 0.209755 0.463605 0.452452
85 2 0.671638 0.312872 0.201466
86 2 0.416159 0.0242849 0.984367
87 2 0.528741 0.389071 0.226685
88 2 0.232395 0.476022 0.017747
89 2 0.141469 0.441552 0.319806
90 2 0.8797 0.695694 0.153493
91 2 0.787451 0.145055 0.86606
92 2 0.568248 0.115751 0.712104
93 2 0.266624 0.700276 0.316709
94 2 0.144281 0.242226 0.010372
95 2 0.311321 0.381852 0.603203
96 2 0.542677 0.290769 0.561625
97 2 0.188656 0.662756 0.518135
98 2 0.330577 0.0893862 0.126535
99 2 0.283738 0.243176 0.652725
100 2 0.419342 0.286966 0.0154478
101 2 0.44532 0.047277 0.120222
102 2 0.105002 0.119456 0.225059
103 2 0.191498 0.527133 0.377857
104 2 0.0657082 0.567968 0.0662014
105 2 0.626241 0.395465 0.16344
106 2 0.35716 0.0470606 0.323417
107 2 0.438574 0.221892 0.355731
108 2 0.268388 0.423607 0.956606
109 2 0.902139 0.219139 0.681938
110 2 0.491131 0.567365 0.110971
111 2 0.363708 0.647359 0.575883
112 2 0.269645 0.226101 0.196985
113 2 0.132524 0.339594 0.608685
114 2 0.29603 0.290796 0.250903
115 2 0.612129 0.942897 0.453819
116 2 0.338384 0.211002 0.180819
117 2 0.470029 0.574735 0.336411
118 2 0.993078 0.324261 0.390471
119 2 0.0253838 0.215909 0.219658
120 2 0.388826 0.231151 0.390065
121 2 0.298126 0.111491 0.353104
122 2 0.135957 0.0832031 0.901178
123 2 0.0383591 0.143353 0.400109
124 2 0.131102 0.192068 0.560796
125 2 0.193694 0.298175 0.171325
126 2 0.320618 0.60778 0.975591
127 2 0.441624 0.246754 0.149606
128 2 0.261441 0.775783 0.41088
129 2 0.438983 0.0753024 0.465523
130 2 0.42749 0.398223 0.468709
131 2 0.132984 0.0227908 0.29126
132 2 0.172332 0.466974 0.06239
133 2 0.0920894 0.437619 0.581136
134 2 0.963142 0.219553 0.191137
135 2 0.760882 0.177141 0.326567
136 2 0.38814 0.266991 0.0149948
137 2 0.135428 0.446929 0.13617
138 2 0.509536 0.928998 0.193671
139 2 0.351366 0.405057 0.4673
140 2 0.728525 0.234979 0.474378
141 2 0.3158 0.0381336 0.051064
142 2 0.686533 0.31994 0.0881067
143 2 0.311888 0.978009 0.030156
144 2 0.941457 0.696503 0.185538
145 2 0.0718355 0.402957 0.715929
146 2 0.427604 0.458953 0.48605
147 2 0.213089 0.372531 0.301181
148 2 0.173098 0.00216891 0.95016
149 2 0.204296 0.428002 0.402018
150 2 0.488302 0.198137 0.588391
151 2 0.344431 0.234902 0.984768
152 2 0.775088 0.482741 0.974242
153 2 0.20751 0.363356 0.267027
154 2 0.662863 0.924321 0.337369
155 2 0.616521 0.134269 0.278416
156 2 0.0151877 0.0119501 0.416346
157 2 0.589356 0.786284 0.35032
158 2 0.185518 0.0993964 0.207946
159 2 0.42317 0.0895012 0.521492
160 2 0.159573 0.98995 0.213364
161 2 0.526324 0.00752499 0.532507
162 2 0.0957401 0.66819 0.452498
163 2 0.667221 0.916163 0.437567
164 2 0.175037 0.416504 0.486197
165 2 0.881752 0.331205 0.844073
166 2 0.0918018 0.476021 0.305988
167 2 0.843743 0.954661 0.486115
168 2 0.249845 0.226363 0.335732
169 2 0.237905 0.992983 0.103387
170 2 0.935059 0.716119 0.216167
171 2 0.0938835 0.41924 0.791265
172 2 0.234193 0.423645 0.512905
173 2 0.391855 0.404927 0.522693
174 2 0.200611 0.111472 0.450681
175 2 0.281396 0.721077 0.0890486
176 2 0.0709134 0.45007 0.325397
177 2 0.324567 0.851518 0.514033
178 2 0.217494 0.439024 0.0261171
179 2 0.605959 0.310335 0.873447
180 2 0.104698 0.0213054 0.103117
181 2 0.607235 0.306711 0.377104
182 2 0.959628 0.821985 0.17697
183 2 0.0568568 0.326005 0.654869
184 2 0.202112 0.188013 0.333455
185 2 0.208607 0.283702 0.466554
186 2 0.119269 0.577294 0.512248
187 2 0.851487 0.499788 0.904885
188 2 0.187964 0.964628 0.22691
189 2 0.408018 0.940983 0.453845
190 2 0.98377 0.737426 0.609202
191 2 0.220653 0.231631 0.225495
192 2 0.86489 0.0380702 0.527328
193 2 0.441984 0.0234687 0.0936828
194 2 0.0906112 0.448647 0.388179
195 2 0.595334 0.457848 0.788357
196 2 0.898528 0.445183 0.309151
197 2 0.850533 0.165706 0.858553
198 2 0.202627 0.571678 0.0195107
199 2 0.147347 0.254578 0.508856
200 2 0.234729 0.294183 0.247603
201 2 0.292362 0.0807616 0.968143
202 2 0.185241 0.942729 0.579222
203 2 0.430533 0.578717 0.0901454
204 2 0.42056 0.135253 0.47311
205 2 0.973288 0.52886 0.152391
206 2 0.371129 0.191555 0.17995
207 2 0.367864 0.361817 0.164557
208 2 0.27417 0.705571 0.223256
209 2 0.112078 0.235935 0.329172
210 2 0.77025 0.97483 0.768848
211 2 0.258167 0.465015 0.0933121
212 2 0.290704 0.347899 0.275935
213 2 0.357282 0.142115 0.683011
214 2 0.0420886 0.0572943 0.443874
215 2 0.480272 0.19273 0.154995
216 2 0.38017 0.298931 0.0739005
217 2 0.0316125 0.515889 0.173387
218 2 0.220202 0.296401 0.910379
219 2 0.00908907 0.995804 0.257148
220 2 0.447861 0.138605 0.284089
221 2 0.250876 0.028845 0.11151
222 2 0.0640478 0.799064 0.324683
223 2 0.416393 0.366874 0.545408
224 2 0.23276 0.195581 0.422281
225 2 0.134555 0.418757 0.244921
226 2 0.0947003 0.794137 0.213624
227 2 0.292068 0.366654 0.116721
228 2 0.924393 0.882879 0.371386
229 2 0.479889 0.115114 0.330487
230 2 0.239071 0.159896 0.90654
231 2 0.145949 0.797327 0.258649
232 2 0.684438 0.473822 0.191272
233 2 0.184241 0.310957 0.278731
234 2 0.565009 0.336024 0.229811
235 2 0.400911 0.338033 0.232168
236 2 0.465554 0.918393 0.954438
237 2 0.37804 0.0287747 0.751457
238 2 0.908397 0.219399 0.380494
239 2 0.164167 0.516752 0.838749
240 2 0.557048 0.0160081 0.678411
241 2 0.0754453 0.44473 0.812001
242 2 0.483695 0.848251 0.257425
243 2 0.300822 0.440788 0.947584
244 2 0.0538041 0.458186 0.688486
245 2 0.371015 0.822159 0.0423574
246 2 0.667737 0.625249 0.167664
247 2 0.0671743 0.440359 0.133436
248 2 0.0866408 0.430104 0.353236
249 2 0.684635 0.136376 0.398808
250 2 0.464952 0.297285 0.123932
251 2 0.21747 0.59688 0.169369
252 2 0.423638 0.166338 0.384996
253 2 0.0260692 0.187679 0.651459
254 2 0.537389 0.815618 0.838134
255 2 0.757306 0.881206 0.259984
256 2 0.218513 0.0923929 0.476333
257 2 0.674366 0.632922 0.430587
258 2 0.981359 0.360687 0.346687
259 2 0.372328 0.283576 0.247236
260 2 0.439395 0.517883 0.225913
261 2 0.990945 0.237256 0.138571
262 2 0.692787 0.97283 0.367811
263 2 0.349814 0.329159 0.168809
264 2 0.278685 0.379275 0.224731
265 2 0.41479 0.0299113 0.222521
266 2 0.259532 0.265073 0.447647
267 2 0.342309 0.20241 0.0339574
268 2 0.0422533 0.299692 0.0397311
269 2 0.171831 0.404196 0.736411
270 2 0.725089 0.241878 0.107526
271 2 0.388161 0.847362 0.113851
272 2 0.607147 0.0297283 0.294219
273 2 0.0852676 0.31986 0.361186
274 2 0.410455 0.127731 0.439081
275 2 0.519428 0.792394 0.959943
276 2 0.248624 0.9819 0.878885
277 2 0.331842 0.511765 0.488363
278 2 0.0773445 0.228443 0.566198
279 2 0.0940284 0.116509 0.396397
280 2 0.546368 0.37018 0.00877598
281 2 0.190834 0.328234 0.488149
282 2 0.179758 0.286393 0.799442
283 2 0.057203 0.214184 0.463715
284 2 0.311343 0.13833 0.257018
285 2 0.112501 0.039573 0.193041
286 2 0.0477334 0.376139 0.133196
287 2 0.161669 0.123115 0.414173
288 2 0.325328 0.233996 0.153647
289 2 0.252633 0.236222 0.49507
290 2 0.962994 0.594561 0.590739
291 2 0.675242 0.214685 0.838004
292 2 0.395584 0.162995 0.267007
293 2 0.216497 0.309963 0.409127
294 2 0.0582645 0.671687 0.987817
295 2 0.0474307 0.470534 0.503837
296 2 0.241483 0.664497 0.0900148
297 2 0.504687 0.63593 0.137727
298 2 0.281137 0.335178 0.310765
299 2 0.374309 0.0380959 0.615278
300 2 0.174994 0.317837 0.653649
301 2 0.265698 0.240655 0.0974094
302 2 0.526817 0.195527 0.820904
303 2 0.708447 0.974218 0.819498
304 2 0.281006 0.5431 0.937074
305 2 0.723119 0.265476 0.28678
306 2 0.409936 0.822503 0.13275
307 2 0.576601 0.996704 0.381391
308 2 0.577386 0.256097 0.244436
309 2 0.0225766 0.413763 0.388907
310 2 0.162577 0.503171 0.619907
311 2 0.244788 0.394754 0.306722
312 2 0.547451 0.874523 0.506726
313 2 0.452327 0.987283 0.032811
314 2 0.733121 0.22518 0.823108
315 2 0.0344055 0.580999 0.342787
316 2 0.862957 0.472905 0.401313
317 2 0.29934 0.757041 0.0431293
318 2 0.290517 0.408531 0.266266
319 2 0.85474 0.32207 0.870018
320 2 0.238626 0.920439 0.605192
321 2 0.023226 0.33354 0.54402
322 2 0.46153 0.133477 0.125494
323 2 0.197014 0.463907 0.815327
324 2 0.173328 0.156428 0.218529
325 2 0.16114 0.320775 0.465265
326 2 0.227434 0.92256 0.210836
327 2 0.590238 0.289884 0.955391
328 2 0.386914 0.944162 0.00229125
329 2 0.97371 0.0568712 0.358328
330 2 0.0254588 0.596135 0.180121
331 2 0.619409 0.52866 0.0535997
332 2 0.0272942 0.382128 0.0166348
333 2 0.923046 0.845767 0.441875
334 2 0.0336984 0.356612 0.429901
335 2 0.164169 0.252435 0.476384
336 2 0.793482 0.0268417 0.71471
337 2 0.251085 0.75103 0.323299
338 2 0.529173 0.543108 0.909911
339 2 0.392101 0.0642939 0.183956
340 2 0.238348 0.959747 0.789751
341 2 0.387487 0.534052 0.974121
342 2 0.324331 0.149369 0.152905
343 2 0.539283 0.297971 0.351826
344 2 0.127481 0.993695 0.233803
345 2 0.220174 0.391852 0.0688758
346 2 0.160308 0.399898 0.263893
347 2 0.371718 0.275627 0.361528
348 2 0.0464497 0.459784 0.538795
349 2 0.519179 0.856157 0.771551
350 2 0.997855 0.474094 0.036029
351 2 0.000242677 0.0503459 0.635761
352 2 0.319061 0.008242 0.286423
353 2 0.408928 0.243986 0.169035
354 2 0.751651 0.237116 0.133792
355 2 0.154175 0.980542 0.00857732
356 2 0.179829 0.51196 0.201569
357 2 0.569314 0.17118 0.267169
358 2 0.0455492 0.493504 0.262322
359 2 0.763049 0.239402 0.435128
360 2 0.209916 0.220342 0.0246134
361 2 0.417182 0.963598 0.399416
362 2 0.317245 0.364631 0.571505
363 2 0.455941 0.325975 0.894271
364 2 0.354929 0.19219 0.0687611
365 2 0.187007 0.226775 0.966849
366 2 0.36472 0.260377 0.395337
367 2 0.344237 0.0318225 0.209072
368 2 0.115399 0.549276 0.155214
369 2 0.440468 0.451758 0.843942
370 2 0.0744931 0.391286 0.471661
371 2 0.0555624 0.360781 0.40154
372 2 0.375771 0.377283 0.337156
373 2 0.514611 0.411561 0.333665
374 2 0.975384 0.314355 0.510304
375 2 0.296457 0.558144 0.574904
376 2 0.947199 0.380154 0.116566
377 2 0.965871 0.498814 0.130538
378 2 0.325235 0.247439 0.502647
379 2 0.164301 0.542207 0.532546
380 2 0.101352 0.601125 0.268331
381 2 0.315442 0.325745 0.937684
382 2 0.341261 0.918599 0.540781
383 2 0.469244 0.182278 0.0846824
384 2 0.152012 0.079703 0.692211
385 2 0.27051 0.434139 0.38995
386 2 0.663058 0.329977 0.170258
387 2 0.368732 0.287521 0.459243
388 2 0.296549 0.411981 0.231683
389 2 0.372401 0.204939 0.368834
390 2 0.447478 0.00543761 0.681511
391 2 0.135561 0.336272 0.549504
392 2 0.355509 0.808381 0.854606
393 2 0.331471 0.800052 0.251402
394 2 0.41878 0.119789 0.87592
395 2 0.446088 0.381979 0.0309897
396 2 0.0914128 0.105398 0.486531
397 2 0.745117 0.566503 0.30349
398 2 0.997609 0.646115 0.806629
399 2 0.143769 0.437338 0.476079
400 2 0.331522 0.260528 0.00814433
401 2 0.182043 0.986993 0.144208
402 2 0.276919 0.603855 0.265022
403 2 0.460379 0.0170889 0.617205
404 2 0.470101 0.502302 0.278679
405 2 0.147994 0.12743 0.110982
406 2 0.0592746 0.0946871 0.27432
407 2 0.470597 0.888137 0.005502
408 2 0.918198 0.524003 0.1726
409 2 0.385834 0.252563 0.138488
410 2 0.0104656 0.381993 0.683732
411 2 0.784234 0.295711 0.922365
412 2 0.51178 0.756445 0.178295
413 2 0.174355 0.925947 0.00724955
414 2 0.846423 0.20262 0.377502
415 2 0.161872 0.296839 0.303806
416 2 0.196388 0.0426609 0.252942
417 2 0.388651 0.40456 0.418811
418 2 0.535111 0.350898 0.177911
419 2 0.515989 0.600172 0.189456
420 2 0.0769691 0.373764 0.156181
421 2 0.914984 0.407459 0.735577
422 2 0.251013 0.138972 0.315701
423 2 0.363337 0.307534 0.194723
424 2 0.142107 0.555013 0.0369
425 2 0.401864 0.076829 0.336963
426 2 0.321593 0.220388 0.117958
427 2 0.587409 0.344348 0.783637
428 2 0.186434 0.192132 0.222688
429 2 0.429958 0.199401 0.481316
430 2 0.99487 0.127577 0.274408
431 2 0.383046 0.601994 0.981043
432 2 0.967942 0.0387325 0.404735
433 2 0.545002 0.0112545 0.147693
434 2 0.325805 0.00453869 0.143232
435 2 0.461436 0.97047 0.197565
436 2 0.168656 0.25143 0.341214
437 2 0.211657 0.881828 0.644323
438 2 0.860769 0.476774 0.0121245
439 2 0.50546 0.996359 0.209117
440 2 0.389324 0.00168083 0.140093
441 2 0.214479 0.983599 0.250634
442 2 0.0696989 0.997502 0.202747
443 2 0.297354 0.902548 0.222149
444 2 0.796693 0.276114 0.555619
445 2 0.024138 0.331681 0.102987
446 2 0.992824 0.514497 0.180277
447 2 0.444294 0.0262588 0.383244
448 2 0.418539 0.0520948 0.95823
449 2 0.360182 0.310343 0.351812
450 2 0.100293 0.808351 0.331781
451 2 0.359095 0.176805 0.421998
452 2 0.0316463 0.490822 0.228547
453 2 0.0811737 0.202273 0.439048
454 2 0.849708 0.262147 0.567324
455 2 0.531092 0.3519 0.21586
456 2 0.713629 0.414658 0.888356
457 2 0.310112 0.269194 0.477921
458 2 0.117013 0.256899 0.0740094
459 2 0.582966 0.279828 0.612946
460 2 0.966055 0.317622 0.912327
461 2 0.885205 0.088695 0.383944
462 2 0.443962 0.755911 0.0289264
463 2 0.302612 0.246144 0.0991369
464 2 0.464168 0.337486 0.178126
465 2 0.114608 0.241131 0.399586
466 2 0.510971 0.0295463 0.150271
467 2 0.909145 0.485322 0.245172
468 2 0.995159 0.496756 0.106811
469 2 0.445488 0.350171 0.922329
470 2 0.263154 0.294062 0.269874
471 2 0.488862 0.477315 0.332045
472 2 0.259786 0.198996 0.487322
473 2 0.0535344 0.197805 0.122642
474 2 0.247853 0.648545 0.418185
475 2 0.31887 0.154702 0.115704
476 2 0.0760611 0.099501 0.545071
477 2 0.465881 0.34107 0.217008
478 2 0.474106 0.928835 0.243438
479 2 0.133579 0.313204 0.489136
480 2 0.347814 0.557198 0.14688
481 2 0.319052 0.144729 0.221167
482 2 0.347274 0.273397 0.273727
483 2 0.369689 0.384782 0.0407839
484 2 0.0851119 0.281417 0.352034
485 2 0.772019 0.537667 0.0240886
486 2 0.622508 0.869097 0.13156
487 2 0.256058 0.268451 0.0364129
488 2 0.137487 0.371012 0.490203
489 2 0.615743 0.147596 0.347834
490 2 0.342141 0.388953 0.156356
491 2 0.28521 0.37697 0.433328
492 2 0.0975639 0.315516 0.430808
493 2 0.111314 0.285886 0.879123
494 2 0.971194 0.165572 0.408092
495 2 0.340611 0.29119 0.565443
496 2 0.755553 0.559735 0.219567
497 2 0.271665 0.398633 0.113019
498 2 0.71357 0.962123 0.223284
499 2 0.920976 0.0207321 0.0872529
500 2 0.19506 0.58728 0.775021
501 2 0.282582 0.295078 0.0471797
502 2 0.273226 0.31944 0.420699
503 2 0.292731 0.386483 0.552805
504 2 0.738317 0.0759551 0.0501354
505 2 0.0711148 0.25007 0.227608
506 2 0.580527 0.368739 0.129015
507 2 0.475893 0.902626 0.139187
508 2 0.268684 0.19681 0.319582
509 2 0.668349 0.701239 0.234288
510 2 0.184809 0.131215 0.505657
511 2 0.0877544 0.271248 0.902773
512 2 0.503287 0.171033 0.102843
513 2 0.0291924 0.0520595 0.55198
514 2 0.124923 0.188841 0.243247
515 2 0.895579 0.877607 0.0962231
516 2 0.427831 0.386636 0.387406
517 2 0.412042 0.251518 0.277149
518 2 0.535259 0.981879 0.228251
519 2 0.880148 0.640531 0.155513
520 2 0.183059 0.386597 0.318974
521 2 0.103106 0.0858662 0.456422
522 2 0.0726811 0.291139 0.0588034
523 2 0.989148 0.250455 0.10467
524 2 0.280699 0.439561 0.793878
525 2 0.227587 0.845557 0.64761
526 2 0.203505 0.471926 0.251128
527 2 0.629632 0.113642 0.473515
528 2 0.237234 0.541241 0.880027
529 2 0.607329 0.369505 0.358159
530 2 0.51295 0.0534318 0.122589
531 2 0.119738 0.449159 0.412782
532 2 0.694884 0.640273 0.28629
533 2 0.405649 0.543189 0.364242
534 2 0.51171 0.214232 0.165881
535 2 0.284783 0.09932 0.289987
536 2 0.145466 0.732514 0.533527
537 2 0.414001 0.434026 0.329917
538 2 0.969121 0.553978 0.923363
539 2 0.132014 0.551959 0.453922
540 2 0.241752 0.503789 0.286871
541 2 0.971066 0.42391 0.476245
542 2 0.339691 0.406952 0.433921
543 2 0.135357 0.135458 0.794495
544 2 0.0286302 0.398612 0.249323
545 2 0.598826 0.115716 0.357455
546 2 0.330706 0.874495 0.948904
547 2 0.502803 0.260399 0.29599
548 2 0.24754 0.289145 0.213909
549 2 0.188583 0.497159 0.27637
550 2 0.374543 0.936548 0.181878
551 2 0.63658 0.907866 0.38852
552 2 0.242012 0.331974 0.587707
553 2 0.606712 0.308545 0.908306
554 2 0.171842 0.284709 0.454185
555 2 0.145084 0.218668 0.127536
556 2 0.24353 0.552801 0.732496
557 2 0.435056 0.563273 0.0308027
558 2 0.203134 0.48906 0.37549
559 2 0.372778 0.376624 0.478611
560 2 0.258511 0.264916 0.946238
561 2 0.0705127 0.650368 0.287311
562 2 0.437322 0.120947 0.150944
563 2 0.564138 0.20614 0.203177
564 2 0.481119 0.986864 0.0582075
565 2 0.687579 0.1964 0.0816356
566 2 0.269169 0.991349 0.302187
567 2 0.0173717 0.144256 0.0491472
568 2 0.963679 0.861316 0.0770165
569 2 0.470495 0.523875 0.206968
570 2 0.289387 0.409318 0.17936
571 2 0.138494 0.384768 0.146924
572 2 0.223489 0.418724 0.220734
573 2 0.107594 0.0025858 0.203578
574 2 0.540909 0.0133368 0.0917429
575 2 0.314981 0.258146 0.258584
576 2 0.616787 0.5011 0.580738
577 2 0.251867 0.294291 0.502844
578 2 0.198636 0.283536 0.257276
579 2 0.26615 0.539394 0.496653
580 2 0.568637 0.109122 0.526073
581 2 0.965529 0.234581 0.414165
582 2 0.226481 0.557054 0.293304
583 2 0.367679 0.00615997 0.386567
584 2 0.426556 0.293988 0.201235
585 2 0.404604 0.0422805 0.0152714
586 2 0.998117 0.186944 0.937702
587 2 0.0989844 0.565024 0.578796
588 2 0.0459778 0.352229 0.323709
589 2 0.775243 0.369172 0.120462
590 2 0.0488256 0.508801 0.492266
591 2 0.470181 0.153894 0.501746
592 2 0.0736159 0.828574 0.116758
593 2 0.822073 0.332211 0.534616
594 2 0.254509 0.0764723 0.297748
595 2 0.62533 0.647898 0.23293
596 2 0.356047 0.132465 0.49963
597 2 0.415393 0.0913825 0.196246
598 2 0.252417 0.664595 0.504588
599 2 0.283189 0.990382 0.493873
600 2 0.139179 0.191958 0.704416
601 2 0.152917 0.313018 0.980001
602 2 0.0686349 0.894305 0.587681
603 2 0.247191 0.395898 0.484804
604 2 0.425782 0.528264 0.313612
605 2 0.200071 0.0769591 0.402135
606 2 0.435486 0.494805 0.537464
607 2 0.0977012 0.159755 0.0824035
608 2 0.309367 0.0386777 0.141059
609 2 0.14472 0.393969 0.112085
610 2 0.200978 0.466683 0.160588
611 2 0.453886 0.399136 0.181325
612 2 0.347537 0.959374 0.167816
613 2 0.562263 0.279561 0.0858937
614 2 0.128957 0.106331 0.138073
615 2 0.391597 0.788472 0.920285
616 2 0.392113 0.194304 0.340003
617 2 0.765873 0.704041 0.414181
618 2 0.885756 0.0850883 0.581192
619 2 0.130308 0.331599 0.114832
620 2 0.528011 0.183696 0.95133
621 2 0.301425 0.932722 0.318472
622 2 0.258805 0.597557 0.233689
623 2 0.423555 0.961389 0.0951171
624 2 0.0881638 0.03345 0.966507
625 2 0.415352 0.229338 0.0866108
626 2 0.715157 0.206012 0.10414
627 2 0.0245661 0.974293 0.314564
628 2 0.651905 0.183071 0.381283
629 2 0.403062 0.656662 0.28323
630 2 0.417944 0.138924 0.329296
631 2 0.239054 0.376807 0.0152101
632 2 0.29708 0.918009 0.406132
633 2 0.126855 0.657896 0.120717
634 2 0.0794985 0.452104 0.495263
635 2 0.299645 0.552142 0.688147
636 2 0.275762 0.375779 0.937178
637 2 0.47167 0.0968742 0.908764
638 2 0.4328 0.936312 0.377323
639 2 0.468007 0.0648898 0.0560489
640 2 0.303917 0.773098 0.247051
641 2 0.313302 0.956523 0.349684
642 2 0.809953 0.119523 0.479136
643 2 0.805857 0.439778 0.288201
644 2 0.0353182 0.17349 0.542188
645 2 0.390173 0.950763 0.328324
646 2 0.666594 0.225651 0.514159
647 2 0.165223 0.700257 0.328555
648 2 0.292816 0.324743 0.90827
649 2 0.825471 0.116504 0.167935
650 2 0.288422 0.436548 0.853595
651 2 0.359134 0.0663903 0.202881
652 2 0.516658 0.492102 0.949406
653 2 0.613563 0.316003 0.454389
654 2 0.0218099 0.427812 0.642243
655 2 0.934481 0.503511 0.109936
656 2 0.364801 0.366279 0.840038
657 2 0.975769 0.123988 0.630698
658 2 0.238833 0.129728 0.379259
659 2 0.246198 0.810559 0.421723
660 2 0.768322 0.382482 0.47936
661 2 0.526177 0.769069 0.355221
662 2 0.998511 0.914487 0.541352
663 2 0.0435633 0.0702909 0.579038
664 2 0.215147 0.739586 0.428003
665 2 0.272033 0.123541 0.813821
666 2 0.374421 0.34046 0.982722
667 2 0.575562 0.150261 0.453215
668 2 0.51217 0.936374 0.980275
669 2 0.949316 0.565677 0.612439
670 2 0.909668 0.390812 0.67816
671 2 0.773138 0.980993 0.250695
672 2 0.277865 0.527672 0.462861
673 2 0.215576 0.321385 0.0396526
674 2 0.237223 0.148176 0.282855
675 2 0.309201 0.221991 0.977213
676 2 0.326774 0.0309755 0.724124
677 2 0.0406769 0.116439 0.737924
678 2 0.479041 0.465588 0.161769
679 2 0.0607205 0.968925 0.325124
680 2 0.20824 0.478584 0.87478
681 2 0.36685 0.212734 0.00645525
682 2 0.340124 0.981519 0.00689706
683 2 0.0491513 0.240829 0.517382
684 2 0.76257 0.407633 0.373382
685 2 0.305445 0.580465 0.27449
686 2 0.276382 0.754664 0.0727644
687 2 0.519513 0.211609 0.347045
688 2 0.126473 0.456889 0.996541
689 2 0.43124 0.218369 0.90154
690 2 0.304358 0.887386 0.473269
691 2 0.143438 0.365672 0.268458
692 2 0.190751 0.188962 0.973962
693 2 0.927487 0.151838 0.219889
694 2 0.150687 0.528435 0.301284
695 2 0.814078 0.979214 0.295173
696 2 0.0846806 0.227607 0.0196037
697 2 0.270015 0.521786 0.0792838
698 2 0.487878 0.161004 0.134031
699 2 0.356636 0.286957 0.0193708
700 2 0.0508036 0.994757 0.545276
701 2 0.515713 0.415673 0.203105
702 2 0.208266 0.780865 0.863436
703 2 0.116571 0.33923 0.206559
704 2 0.452095 0.152131 0.251774
705 2 0.260162 0.922073 0.159711
706 2 0.976852 0.569987 0.341765
707 2 0.105307 0.387495 0.0608376
708 2 0.378681 0.490087 0.357931
709 2 0.327886 0.378004 0.123667
710 2 0.304779 0.189746 0.330257
711 2 0.721576 0.708559 0.540509
712 2 0.03916 0.530793 0.520325
713 2 0.120579 0.611898 0.970835
714 2 0.472412 0.183191 0.812671
715 2 0.319347 0.179807 0.460311
716 2 0.405093 0.268745 0.344851
717 2 0.292544 0.710343 0.150023
718 2 0.0368844 0.388099 0.794742
719 2 0.461104 0.260046 0.0510447
720 2 0.546011 0.608991 0.98014
721 2 0.701526 0.13825 0.809773
722 2 0.292368 0.235945 0.279639
723 2 0.235688 0.45558 0.174864
724 2 0.0224924 0.375492 0.0516511
725 2 0.287278 0.651482 0.771294
726 2 0.927981 0.209873 0.53172
727 2 0.115182 0.433258 0.447231
728 2 0.162581 0.426331 0.11985
729 2 0.333883 0.305115 0.291192
730 2 0.106447 0.279187 0.0446945
731 2 0.232489 0.325581 0.552212
732 2 0.377068 0.705273 0.393225
733 2 0.435773 0.21114 0.516435
734 2 0.568598 0.453878 0.942137
735 2 0.152634 0.160727 0.152958
736 2 0.0853244 0.455 0.2445
737 2 0.662468 0.0660774 0.849262
738 2 0.610329 0.20191 0.302332
739 2 0.28452 0.0989063 0.222455
740 2 0.120114 0.564768 0.927796
741 2 0.0796418 0.411546 0.948189
742 2 0.0202429 0.272933 0.0884243
743 2 0.305682 0.563856 0.0635592
744 2 0.147843 0.841942 0.409593
745 2 0.993134 0.164995 0.358161
746 2 0.338737 0.191814 0.270229
747 2 0.0572411 0.37885 0.0987483
748 2 0.0990941 0.205989 0.508154
749 2 0.0628836 0.387872 0.0031877
750 2 0.533009 0.326774 0.375372
751 2 0.588472 0.127165 0.409451
752 2 0.239996 0.0762648 0.598435
753 2 0.310333 0.464708 0.207101
754 2 0.182081 0.809993 0.626296
755 2 0.668776 0.00537715 0.456577
756 2 0.114978 0.265244 0.715777
757 2 0.844584 0.285411 0.516653
758 2 0.402572 0.282717 0.931057
759 2 0.401553 0.246701 0.312109
760 2 0.360525 0.413663 0.340725
761 2 0.0104401 0.674476 0.351098
762 2 0.206285 0.424754 0.772502
763 2 0.393421 0.077437 0.835081
764 2 0.51471 0.47473 0.0332078
765 2 0.254939 0.164052 0.371727
766 2 0.824512 0.170656 0.966247
767 2 0.726493 0.46751 0.269363
768 2 0.294542 0.784145 0.579496
769 2 0.816053 0.232354 0.521051
770 2 0.906646 0.250752 0.0383907
771 2 0.202381 0.163238 0.273488
772 2 0.108777 0.434561 0.0217511
773 2 0.143784 0.347802 0.968914
774 2 0.0970458 0.334607 0.262485
775 2 0.0352151 0.47099 0.720461
776 2 0.557519 0.0339394 0.964465
777 2 0.0993556 0.0468767 0.45814
778 2 0.803545 0.435872 0.480367
779 2 0.13448 0.280182 0.152391
780 2 0.116632 0.51919 0.748388
781 2 0.94746 0.648443 0.543166
782 2 0.9352 0.414441 0.488812
783 2 0.508938 0.0341857 0.207008
784 2 0.47303 0.177785 0.321676
785 2 0.636554 0.329307 0.0626264
786 2 0.44796 0.325014 0.288921
787 2 0.978067 0.4026 0.204145
788 2 0.207961 0.589223 0.53658
789 2 0.296736 0.895234 0.0771021
790 2 0.33571 0.886533 0.00352217
791 2 0.504708 0.440204 0.903796
792 2 0.373032 0.577512 0.167819
793 2 0.0273485 0.960493 0.83967
794 2 0.43417 0.340921 0.150174
795 2 0.435952 0.431431 0.541747
796 2 0.86052 0.191154 0.55474
797 2 0.990704 0.439156 0.530204
798 2 0.103683 0.304892 0.21759
799 2 0.189798 0.133786 0.19303
800 2 0.150925 0.196155 0.0992471
801 2 0.213854 0.222973 0.282976
802 2 0.42305 0.404067 0.308546
803 2 0.276528 0.190643 0.0910803
804 2 0.995266 0.328212 0.0801508
805 2 0.577862 0.361604 0.840564
806 2 0.47905 0.547129 0.864533
807 2 0.289338 0.218643 0.00812861
808 2 0.0584434 0.324955 0.387787
809 2 0.978248 0.145705 0.168725
810 2 0.203669 0.142404 0.735081
811 2 0.184118 0.640777 0.28562
812 2 0.239562 0.136892 0.141404
813 2 0.417865 0.247592 0.372792
814 2 0.217652 0.417418 0.36828
815 2 0.174578 0.214066 0.395719
816 2 0.435554 0.443073 0.0741418
817 2 0.217223 0.308359 0.607327
818 2 0.297389 0.624296 0.0700738
819 2 0.0387046 0.116785 0.179848
820 2 0.135031 0.311132 0.762638
821 2 0.602589 0.285268 0.344392
822 2 0.38448 0.1314 0.0572508
823 2 0.537661 0.383534 0.0831257
824 2 0.518787 0.461321 0.160724
825 2 0.139196 0.477208 0.363813
826 2 0.974296 0.282773 0.675526
827 2 0.929877 0.637956 0.426397
828 2 0.234322 0.431673 0.310642
829 2 0.858666 0.402632 0.562102
830 2 0.642408 0.116078 0.297498
831 2 0.177819 0.412925 0.29329
832 2 0.441466 0.35295 0.568202
833 2 0.0778306 0.0997216 0.101515
834 2 0.245939 0.0531278 0.911754
835 2 0.114435 0.100333 0.195707
836 2 0.54918 0.03315 0.583757
837 2 0.599992 0.239548 0.301175
838 2 0.264708 0.123971 0.0147088
839 2 0.87239 0.496433 0.494719
840 2 0.292759 0.355746 0.0666531
841 2 0.683654 0.987721 0.101122
842 2 0.562443 0.422384 0.3047
843 2 0.15451 0.164914 0.614238
844 2 0.899718 0.463478 0.555779
845 2 0.264599 0.450962 0.299298
846 2 0.0194757 0.422966 0.464165
847 2 0.293063 0.0447383 0.323813
848 2 0.213018 0.266647 0.0820566
849 2 0.140879 0.120999 0.333233
850 2 0.298828 0.891574 0.99612
851 2 0.301681 0.302063 0.310027
852 2 0.260644 0.447789 0.423898
853 2 0.125951 0.168573 0.590129
854 2 0.42006 0.215168 0.325353
855 2 0.41037 0.215118 0.0532109
856 2 0.250934 0.203501 0.147462
857 2 0.151015 0.086608 0.19414
858 2 0.930786 0.164777 0.363503
859 2 0.245449 0.510976 0.446477
860 2 0.422047 0.648783 0.462001
861 2 0.339476 0.37557 0.248216
862 2 0.474222 0.86484 0.598135
863 2 0.903966 0.643371 0.347303
864 2 0.869857 0.139601 0.000333263
865 2 0.974254 0.978293 0.638144
866 2 0.583971 0.481565 0.58746
867 2 0.22201 0.215717 0.650845
868 2 0.425146 0.11231 0.939055
869 2 0.0367373 0.143579 0.474766
870 2 0.0423178 0.274926 0.296232
871 2 0.898853 0.449329 0.370038
872 2 0.403052 0.288258 0.268764
873 2 0.632822 0.184806 0.926434
874 2 0.225921 0.370567 0.42494
875 2 0.108844 0.2047 0.134008
876 2 0.0335183 0.105571 0.634362
877 2 0.115881 0.274156 0.331983
878 2 0.498284 0.375326 0.615161
879 2 0.607193 0.357847 0.0210927
880 2 0.286353 0.411427 0.0832862
881 2 0.358365 0.318799 0.411311
882 2 0.220572 0.0946013 0.294996
883 2 0.27126 0.7959 0.349879
884 2 0.263308 0.399386 0.0316494
885 2 0.241484 0.894042 0.935322
886 2 0.127011 0.438591 0.524034
887 2 0.296617 0.126095 0.166094
888 2 0.236291 0.983081 0.338646
889 2 0.128315 0.162327 0.437844
890 2 0.382931 0.135087 0.241827
891 2 0.371314 0.11398 0.393718
892 2 0.877277 0.0651919 0.65258
893 2 0.0618223 0.0908936 0.0236343
894 2 0.354516 0.219372 0.0951267
895 2 0.894935 0.268117 0.305129
896 2 0.345706 0.343657 0.436665
897 2 0.903267 0.390983 0.48056
898 2 0.941468 0.0176565 0.354138
899 2 0.389989 0.11309 0.327008
900 2 0.996453 0.224847 0.345072
901 2 0.294899 0.597309 0.400987
902 2 0.446413 0.676558 0.470557
903 2 0.309997 0.446669 0.122736