 vasp.6.3.2 27Jun22 (build May 24 2023 13:00:37) complex                         
 executed on             LinuxGNU date 2025.09.17  13:55:32
 running  128 mpi-ranks, with    1 threads/rank
 distrk:  each k-point on  128 cores,    1 groups
 distr:  one band on NCORE=  32 cores,    4 groups


--------------------------------------------------------------------------------------------------------


 INCAR:
   SYSTEM = Energy-Volume Curve with SCAN
   NCORE = 32
   ISTART = 0
   ISPIN = 1
   ISYM = 1
   PREC = Accurate
   ENCUT = 600
   METAGGA = SCAN
   LASPH = .TRUE.
   LDIAG = .FALSE.
   LMIXTAU = .TRUE.
   EDIFF = 1E-6
   EDIFFG = -0.01
   NSW = 100
   ISIF = 3
   IBRION = 2
   POTIM = 0.5
   ISMEAR = 0
   SIGMA = 0.1
   LORBIT = 0
   ALGO = Normal
   IALGO = 38
   LWAVE = .FALSE.
   LCHARG = .FALSE.

 POTCAR:    PAW_PBE Si_GW 04May2012               
 POTCAR:    PAW_PBE H 15Jun2001                   
 POTCAR:    PAW_PBE Si_GW 04May2012               
   SHA256 =  9ee269d4247e69d62ab9db642b0c3f6e4981ddd1f39659ad08dec53e20e43eb1 Si_GW/POTCAR          
   COPYR  = (c) Copyright 04May2012 Georg Kresse                                                    
   COPYR  = This file is part of the software VASP. Any use, copying, and all other rights are regul
   COPYR  = If you do not have a valid VASP license, you may not use, copy or distribute this file. 
   VRHFIN =Si: s2p2                                                                                 
   LEXCH  = PE                                                                                      
   EATOM  =   103.0669 eV,    7.5752 Ry                                                             
                                                                                                    
   TITEL  = PAW_PBE Si_GW 04May2012                                                                 
   LULTRA =        F    use ultrasoft PP ?                                                          
   IUNSCR =        1    unscreen: 0-lin 1-nonlin 2-no                                               
   RPACOR =    1.500    partial core radius                                                         
   POMASS =   28.085; ZVAL   =    4.000    mass and valenz                                          
   RCORE  =    1.900    outmost cutoff radius                                                       
   RWIGS  =    2.480; RWIGS  =    1.312    wigner-seitz radius (au A)                               
   ENMAX  =  245.345; ENMIN  =  184.009 eV                                                          
   ICORE  =        3    local potential                                                             
   LCOR   =        T    correct aug charges                                                         
   LPAW   =        T    paw PP                                                                      
   EAUG   =  412.952                                                                                
   DEXC   =    0.000                                                                                
   RMAX   =    1.950    core radius for proj-oper                                                   
   RAUG   =    1.300    factor for augmentation sphere                                              
   RDEP   =    1.993    radius for radial grids                                                     
   RDEPT  =    2.000    core radius for aug-charge                                                  
                                                                                                    
   Atomic configuration                                                                             
    7 entries                                                                                       
     n  l   j            E        occ.                                                              
     1  0  0.50     -1785.8828   2.0000                                                             
     2  0  0.50      -139.4969   2.0000                                                             
     2  1  1.50       -95.5546   6.0000                                                             
     3  0  0.50       -10.8127   2.0000                                                             
     3  1  0.50        -4.0811   2.0000                                                             
     3  2  1.50        -4.0817   0.0000                                                             
     4  3  2.50        -4.0817   0.0000                                                             
   Description                                                                                      
     l       E           TYP  RCUT    TYP  RCUT                                                     
     0    -10.8127223     23  1.900                                                                 
     0     95.2407820     23  1.900                                                                 
     1     -4.0811372     23  1.900                                                                 
     1     54.4233040     23  1.900                                                                 
     2     -8.1634956     23  1.900                                                                 
     2     81.6349560     23  1.900                                                                 
     3     27.2116520     23  1.900                                                                 
  local pseudopotential read in
  partial core-charges read in
  partial kinetic energy density read in
  kinetic energy density of atom read in
  atomic valenz-charges read in
  non local Contribution for L=           0  read in
    real space projection operators read in
  non local Contribution for L=           0  read in
    real space projection operators read in
  non local Contribution for L=           1  read in
    real space projection operators read in
  non local Contribution for L=           1  read in
    real space projection operators read in
  non local Contribution for L=           2  read in
    real space projection operators read in
  non local Contribution for L=           2  read in
    real space projection operators read in
    PAW grid and wavefunctions read in

   number of l-projection  operators is LMAX  =           6
   number of lm-projection operators is LMMAX =          18

 POTCAR:    PAW_PBE H 15Jun2001                   
   SHA256 =  030f79b5d3ab3cf0e668861823c8fb652ff669f3e15e46930bd03bfd63a607b6 H/POTCAR              
   COPYR  = (c) Copyright 15Jun2001 Georg Kresse                                                    
   COPYR  = This file is part of the software VASP. Any use, copying, and all other rights are regul
   COPYR  = If you do not have a valid VASP license, you may not use, copy or distribute this file. 
   VRHFIN =H: ultrasoft test                                                                        
   LEXCH  = PE                                                                                      
   EATOM  =    12.4884 eV,    0.9179 Ry                                                             
                                                                                                    
   TITEL  = PAW_PBE H 15Jun2001                                                                     
   LULTRA =        F    use ultrasoft PP ?                                                          
   IUNSCR =        0    unscreen: 0-lin 1-nonlin 2-no                                               
   RPACOR =    0.000    partial core radius                                                         
   POMASS =    1.000; ZVAL   =    1.000    mass and valenz                                          
   RCORE  =    1.100    outmost cutoff radius                                                       
   RWIGS  =    0.700; RWIGS  =    0.370    wigner-seitz radius (au A)                               
   ENMAX  =  250.000; ENMIN  =  200.000 eV                                                          
   RCLOC  =    0.701    cutoff for local pot                                                        
   LCOR   =        T    correct aug charges                                                         
   LPAW   =        T    paw PP                                                                      
   EAUG   =  400.000                                                                                
   RMAX   =    1.123    core radius for proj-oper                                                   
   RAUG   =    1.200    factor for augmentation sphere                                              
   RDEP   =    1.112    radius for radial grids                                                     
   RDEPT  =    0.926    core radius for aug-charge                                                  
                                                                                                    
   Atomic configuration                                                                             
    2 entries                                                                                       
     n  l   j            E        occ.                                                              
     1  0  0.50        -6.4927   1.0000                                                             
     2  1  0.50        -3.4015   0.0000                                                             
   Description                                                                                      
     l       E           TYP  RCUT    TYP  RCUT                                                     
     0     -6.4927494     23  1.100                                                                 
     0      6.8029130     23  1.100                                                                 
     1     -4.0817478     23  1.100                                                                 
  local pseudopotential read in
  atomic valenz-charges read in
  non local Contribution for L=           0  read in
    real space projection operators read in
  non local Contribution for L=           0  read in
    real space projection operators read in
  non local Contribution for L=           1  read in
    real space projection operators read in
    PAW grid and wavefunctions read in

   number of l-projection  operators is LMAX  =           3
   number of lm-projection operators is LMMAX =           5

  PAW_PBE Si_GW 04May2012               :
 energy of atom  1       EATOM= -103.0669
 kinetic energy error for atom=    0.0003 (will be added to EATOM!!)
  PAW_PBE H 15Jun2001                   :
 energy of atom  2       EATOM=  -12.4884
 kinetic energy error for atom=    0.0004 (will be added to EATOM!!)


 POSCAR: Si H
  positions in cartesian coordinates
  No initial velocities read in

 METAGGA = SCAN     LMAXTAU =  6    LMIXTAU =  T

 exchange correlation table for  LEXCH =        8
   RHO(1)=    0.500       N(1)  =     2000
   RHO(2)=  100.500       N(2)  =     4000



--------------------------------------------------------------------------------------------------------


 ion  position               nearest neighbor table
   1  0.500  0.500  0.558-   4 1.49   5 1.49   3 1.49   2 2.34
   2  0.500  0.500  0.442-   7 1.49   8 1.49   6 1.49   1 2.34
   3  0.500  0.570  0.584-   1 1.49
   4  0.440  0.465  0.584-   1 1.49
   5  0.560  0.465  0.584-   1 1.49
   6  0.500  0.430  0.416-   2 1.49
   7  0.440  0.535  0.416-   2 1.49
   8  0.560  0.535  0.416-   2 1.49

  LATTYP: Found a simple cubic cell.
 ALAT       =    20.0000000000
  
  Lattice vectors:
  
 A1 = (  20.0000000000,   0.0000000000,   0.0000000000)
 A2 = (   0.0000000000,  20.0000000000,   0.0000000000)
 A3 = (   0.0000000000,   0.0000000000,  20.0000000000)


Analysis of symmetry for initial positions (statically):
=====================================================================
 Subroutine PRICEL returns:
 Original cell was already a primitive cell.
 

 Routine SETGRP: Setting up the symmetry group for a 
 simple cubic supercell.


 Subroutine GETGRP returns: Found  4 space group operations
 (whereof  4 operations were pure point group operations)
 out of a pool of 48 trial point group operations.


The static configuration has the point symmetry C_2h.


Analysis of symmetry for dynamics (positions and initial velocities):
=====================================================================
 Subroutine PRICEL returns:
 Original cell was already a primitive cell.
 

 Routine SETGRP: Setting up the symmetry group for a 
 simple cubic supercell.


 Subroutine GETGRP returns: Found  4 space group operations
 (whereof  4 operations were pure point group operations)
 out of a pool of 48 trial point group operations.


The dynamic configuration has the point symmetry C_2h.


 Subroutine INISYM returns: Found  4 space group operations
 (whereof  4 operations are pure point group operations),
 and found     1 'primitive' translations


----------------------------------------------------------------------------------------

                                     Primitive cell                                     

  volume of cell :    8000.0000

  direct lattice vectors                    reciprocal lattice vectors
    20.000000000  0.000000000  0.000000000     0.050000000  0.000000000  0.000000000
     0.000000000 20.000000000  0.000000000     0.000000000  0.050000000  0.000000000
     0.000000000  0.000000000 20.000000000     0.000000000  0.000000000  0.050000000

  length of vectors
    20.000000000 20.000000000 20.000000000     0.050000000  0.050000000  0.050000000

  position of ions in fractional coordinates (direct lattice)
     0.500000000  0.500000000  0.558384150
     0.500000000  0.500000000  0.441615850
     0.500000000  0.569664300  0.584301000
     0.439668950  0.465167850  0.584301000
     0.560331050  0.465167850  0.584301000
     0.500000000  0.430335700  0.415699000
     0.439668950  0.534832150  0.415699000
     0.560331050  0.534832150  0.415699000

  ion indices of the primitive-cell ions
   primitive index   ion index
                 1           1
                 2           2
                 3           3
                 4           4
                 5           5
                 6           6
                 7           7
                 8           8

----------------------------------------------------------------------------------------



 KPOINTS: Regular 2 x 2 x 2 mesh centered at Gamma

Automatic generation of k-mesh.
 Grid dimensions read from file:
 generate k-points for:    4    4    4

 Generating k-lattice:

  Cartesian coordinates                     Fractional coordinates (reciprocal lattice)
     0.012500000  0.000000000  0.000000000     0.250000000  0.000000000  0.000000000
     0.000000000  0.012500000  0.000000000     0.000000000  0.250000000  0.000000000
     0.000000000  0.000000000  0.012500000     0.000000000  0.000000000  0.250000000

  Length of vectors
     0.012500000  0.012500000  0.012500000

  Shift w.r.t. Gamma in fractional coordinates (k-lattice)
     0.000000000  0.000000000  0.000000000

 
 Subroutine IBZKPT returns following result:
 ===========================================
 
 Found     30 irreducible k-points:
 
 Following reciprocal coordinates:
            Coordinates               Weight
  0.000000  0.000000  0.000000      1.000000
  0.250000  0.000000  0.000000      2.000000
  0.000000  0.250000  0.000000      2.000000
  0.000000  0.000000  0.250000      2.000000
  0.500000  0.000000  0.000000      1.000000
  0.000000  0.500000  0.000000      1.000000
  0.000000  0.000000  0.500000      1.000000
  0.250000  0.250000  0.000000      4.000000
  0.000000  0.250000  0.250000      2.000000
  0.250000  0.000000  0.250000      4.000000
  0.000000 -0.250000  0.250000      2.000000
  0.500000  0.250000  0.000000      2.000000
  0.000000  0.500000  0.250000      2.000000
  0.250000  0.000000  0.500000      2.000000
 -0.250000  0.500000  0.000000      2.000000
  0.500000  0.000000  0.250000      2.000000
  0.000000  0.250000  0.500000      2.000000
  0.500000  0.500000  0.000000      1.000000
  0.000000  0.500000  0.500000      1.000000
  0.500000  0.000000  0.500000      1.000000
  0.250000  0.250000  0.250000      4.000000
 -0.250000 -0.250000  0.250000      4.000000
  0.500000  0.250000  0.250000      2.000000
  0.250000  0.500000  0.250000      4.000000
  0.250000  0.250000  0.500000      4.000000
  0.500000 -0.250000  0.250000      2.000000
  0.500000  0.500000  0.250000      2.000000
  0.250000  0.500000  0.500000      2.000000
  0.500000  0.250000  0.500000      2.000000
  0.500000  0.500000  0.500000      1.000000
 
 Following cartesian coordinates:
            Coordinates               Weight
  0.000000  0.000000  0.000000      1.000000
  0.012500  0.000000  0.000000      2.000000
  0.000000  0.012500  0.000000      2.000000
  0.000000  0.000000  0.012500      2.000000
  0.025000  0.000000  0.000000      1.000000
  0.000000  0.025000  0.000000      1.000000
  0.000000  0.000000  0.025000      1.000000
  0.012500  0.012500  0.000000      4.000000
  0.000000  0.012500  0.012500      2.000000
  0.012500  0.000000  0.012500      4.000000
  0.000000 -0.012500  0.012500      2.000000
  0.025000  0.012500  0.000000      2.000000
  0.000000  0.025000  0.012500      2.000000
  0.012500  0.000000  0.025000      2.000000
 -0.012500  0.025000  0.000000      2.000000
  0.025000  0.000000  0.012500      2.000000
  0.000000  0.012500  0.025000      2.000000
  0.025000  0.025000  0.000000      1.000000
  0.000000  0.025000  0.025000      1.000000
  0.025000  0.000000  0.025000      1.000000
  0.012500  0.012500  0.012500      4.000000
 -0.012500 -0.012500  0.012500      4.000000
  0.025000  0.012500  0.012500      2.000000
  0.012500  0.025000  0.012500      4.000000
  0.012500  0.012500  0.025000      4.000000
  0.025000 -0.012500  0.012500      2.000000
  0.025000  0.025000  0.012500      2.000000
  0.012500  0.025000  0.025000      2.000000
  0.025000  0.012500  0.025000      2.000000
  0.025000  0.025000  0.025000      1.000000
 


--------------------------------------------------------------------------------------------------------




 Dimension of arrays:
   k-points           NKPTS =     30   k-points in BZ     NKDIM =     30   number of bands    NBANDS=     12
   number of dos      NEDOS =    301   number of ions     NIONS =      8
   non local maximal  LDIM  =      6   non local SUM 2l+1 LMDIM =     18
   total plane-waves  NPLWV = ******
   max r-space proj   IRMAX =      1   max aug-charges    IRDMAX=  25329
   dimension x,y,z NGX =   160 NGY =  160 NGZ =  160
   dimension x,y,z NGXF=   320 NGYF=  320 NGZF=  320
   support grid    NGXF=   320 NGYF=  320 NGZF=  320
   ions per type =               2   6
   NGX,Y,Z   is equivalent  to a cutoff of  13.30, 13.30, 13.30 a.u.
   NGXF,Y,Z  is equivalent  to a cutoff of  26.60, 26.60, 26.60 a.u.

 SYSTEM =  Energy-Volume Curve with SCAN           
 POSCAR =  Si H                                    

 Startparameter for this run:
   NWRITE =      2    write-flag & timer
   PREC   = accura    normal or accurate (medium, high low for compatibility)
   ISTART =      0    job   : 0-new  1-cont  2-samecut
   ICHARG =      2    charge: 1-file 2-atom 10-const
   ISPIN  =      1    spin polarized calculation?
   LNONCOLLINEAR =      F non collinear calculations
   LSORBIT =      F    spin-orbit coupling
   INIWAV =      1    electr: 0-lowe 1-rand  2-diag
   LASPH  =      T    aspherical Exc in radial PAW
 Electronic Relaxation 1
   ENCUT  =  600.0 eV  44.10 Ry    6.64 a.u.  39.94 39.94 39.94*2*pi/ulx,y,z
   ENINI  =  600.0     initial cutoff
   ENAUG  =  413.0 eV  augmentation charge cutoff
   NELM   =     60;   NELMIN=  2; NELMDL= -5     # of ELM steps 
   EDIFF  = 0.1E-05   stopping-criterion for ELM
   LREAL  =      F    real-space projection
   NLSPLINE    = F    spline interpolate recip. space projectors
   LCOMPAT=      F    compatible to vasp.4.4
   GGA_COMPAT  = T    GGA compatible to vasp.4.4-vasp.4.6
   LMAXPAW     = -100 max onsite density
   LMAXMIX     =    2 max onsite mixed and CHGCAR
   VOSKOWN=      0    Vosko Wilk Nusair interpolation
   ROPT   =    0.00000   0.00000
 Ionic relaxation
   EDIFFG = -.1E-01   stopping-criterion for IOM
   NSW    =    100    number of steps for IOM
   NBLOCK =      1;   KBLOCK =    100    inner block; outer block 
   IBRION =      2    ionic relax: 0-MD 1-quasi-New 2-CG
   NFREE  =      1    steps in history (QN), initial steepest desc. (CG)
   ISIF   =      3    stress and relaxation
   IWAVPR =     11    prediction:  0-non 1-charg 2-wave 3-comb
   ISYM   =      1    0-nonsym 1-usesym 2-fastsym
   LCORR  =      T    Harris-Foulkes like correction to forces

   POTIM  = 0.5000    time-step for ionic-motion
   TEIN   =    0.0    initial temperature
   TEBEG  =    0.0;   TEEND  =   0.0 temperature during run
   SMASS  =  -3.00    Nose mass-parameter (am)
   estimated Nose-frequenzy (Omega)   =  0.10E-29 period in steps = 0.13E+47 mass=  -0.914E-26a.u.
   SCALEE = 1.0000    scale energy and forces
   NPACO  =    256;   APACO  = 10.0  distance and # of slots for P.C.
   PSTRESS=    0.0 pullay stress

  Mass of Ions in am
   POMASS =  28.09  1.00
  Ionic Valenz
   ZVAL   =   4.00  1.00
  Atomic Wigner-Seitz radii
   RWIGS  =  -1.00 -1.00
  virtual crystal weights 
   VCA    =   1.00  1.00
   NELECT =      14.0000    total number of electrons
   NUPDOWN=      -1.0000    fix difference up-down

 DOS related values:
   EMIN   =  10.00;   EMAX   =-10.00  energy-range for DOS
   EFERMI =   0.00
   ISMEAR =     0;   SIGMA  =   0.10  broadening in eV -4-tet -1-fermi 0-gaus

 Electronic relaxation 2 (details)
   IALGO  =     38    algorithm
   LDIAG  =      F    sub-space diagonalisation (order eigenvalues)
   LSUBROT=      F    optimize rotation matrix (better conditioning)
   TURBO    =      0    0=normal 1=particle mesh
   IRESTART =      0    0=no restart 2=restart with 2 vectors
   NREBOOT  =      0    no. of reboots
   NMIN     =      0    reboot dimension
   EREF     =   0.00    reference energy to select bands
   IMIX   =      4    mixing-type and parameters
     AMIX     =   0.40;   BMIX     =  1.00
     AMIX_MAG =   1.60;   BMIX_MAG =  1.00
     AMIN     =   0.10
     WC   =   100.;   INIMIX=   1;  MIXPRE=   1;  MAXMIX= -45

 Intra band minimization:
   WEIMIN = 0.0010     energy-eigenvalue tresh-hold
   EBREAK =  0.21E-07  absolut break condition
   DEPER  =   0.30     relativ break condition  

   TIME   =   0.40     timestep for ELM

  volume/ion in A,a.u.               =    1000.00      6748.33
  Fermi-wavevector in a.u.,A,eV,Ry     =   0.197282  0.372809  0.529541  0.038920
  Thomas-Fermi vector in A             =   0.947104

 Write flags
   LWAVE        =      F    write WAVECAR
   LDOWNSAMPLE  =      F    k-point downsampling of WAVECAR
   LCHARG       =      F    write CHGCAR
   LVTOT        =      F    write LOCPOT, total local potential
   LVHAR        =      F    write LOCPOT, Hartree potential only
   LELF         =      F    write electronic localiz. function (ELF)
   LORBIT       =      0    0 simple, 1 ext, 2 COOP (PROOUT), +10 PAW based schemes


 Dipole corrections
   LMONO  =      F    monopole corrections only (constant potential shift)
   LDIPOL =      F    correct potential (dipole corrections)
   IDIPOL =      0    1-x, 2-y, 3-z, 4-all directions 
   EPSILON=  1.0000000 bulk dielectric constant

 Exchange correlation treatment:
   GGA     =    --    GGA type
   LEXCH   =     8    internal setting for exchange type
   LIBXC   =     F    Libxc                    
   VOSKOWN =     0    Vosko Wilk Nusair interpolation
   LHFCALC =     F    Hartree Fock is set to
   LHFONE  =     F    Hartree Fock one center treatment
   AEXX    =    0.0000 exact exchange contribution

 Linear response parameters
   LEPSILON=     F    determine dielectric tensor
   LRPA    =     F    only Hartree local field effects (RPA)
   LNABLA  =     F    use nabla operator in PAW spheres
   LVEL    =     F    velocity operator in full k-point grid
   CSHIFT  =0.1000    complex shift for real part using Kramers Kronig
   OMEGAMAX=  -1.0    maximum frequency
   DEG_THRESHOLD= 0.2000000E-02 threshold for treating states as degnerate
   RTIME   =   -0.100 relaxation time in fs
  (WPLASMAI=    0.000 imaginary part of plasma frequency in eV, 0.658/RTIME)
   DFIELD  = 0.0000000 0.0000000 0.0000000 field for delta impulse in time

  Optional k-point grid parameters
   LKPOINTS_OPT  =     F    use optional k-point grid
   KPOINTS_OPT_MODE=     1    mode for optional k-point grid

 Orbital magnetization related:
   ORBITALMAG=     F  switch on orbital magnetization
   LCHIMAG   =     F  perturbation theory with respect to B field
   DQ        =  0.001000  dq finite difference perturbation B field
   LLRAUG    =     F  two centre corrections for induced B field



--------------------------------------------------------------------------------------------------------


 conjugate gradient relaxation of ions
 charge density and potential will be updated during run
 non-spin polarized calculation
 Variant of blocked Davidson
 perform Loewdin sub-space diagonalisation
    ordering is kept fixed
    before iterative eigenvector-optimisation
 modified Broyden-mixing scheme, WC =      100.0
 initial mixing is a Kerker type mixing with AMIX =  0.4000 and BMIX =      1.0000
 Hartree-type preconditioning will be used
 using additional bands            5
 reciprocal scheme for non local part
 use partial core corrections
 calculate Harris-corrections to forces   (improved forces if not selfconsistent)
 use gradient corrections 
 use of overlap-Matrix (Vanderbilt PP)
 Gauss-broadening in eV      SIGMA  =   0.10


--------------------------------------------------------------------------------------------------------


  energy-cutoff  :      600.00
  volume of cell :     8000.00
      direct lattice vectors                 reciprocal lattice vectors
    20.000000000  0.000000000  0.000000000     0.050000000  0.000000000  0.000000000
     0.000000000 20.000000000  0.000000000     0.000000000  0.050000000  0.000000000
     0.000000000  0.000000000 20.000000000     0.000000000  0.000000000  0.050000000

  length of vectors
    20.000000000 20.000000000 20.000000000     0.050000000  0.050000000  0.050000000



 k-points in units of 2pi/SCALE and weight: Regular 2 x 2 x 2 mesh centered at Gamma
   0.00000000  0.00000000  0.00000000       0.016
   0.01250000  0.00000000  0.00000000       0.031
   0.00000000  0.01250000  0.00000000       0.031
   0.00000000  0.00000000  0.01250000       0.031
   0.02500000  0.00000000  0.00000000       0.016
   0.00000000  0.02500000  0.00000000       0.016
   0.00000000  0.00000000  0.02500000       0.016
   0.01250000  0.01250000  0.00000000       0.062
   0.00000000  0.01250000  0.01250000       0.031
   0.01250000  0.00000000  0.01250000       0.062
   0.00000000 -0.01250000  0.01250000       0.031
   0.02500000  0.01250000  0.00000000       0.031
   0.00000000  0.02500000  0.01250000       0.031
   0.01250000  0.00000000  0.02500000       0.031
  -0.01250000  0.02500000  0.00000000       0.031
   0.02500000  0.00000000  0.01250000       0.031
   0.00000000  0.01250000  0.02500000       0.031
   0.02500000  0.02500000  0.00000000       0.016
   0.00000000  0.02500000  0.02500000       0.016
   0.02500000  0.00000000  0.02500000       0.016
   0.01250000  0.01250000  0.01250000       0.062
  -0.01250000 -0.01250000  0.01250000       0.062
   0.02500000  0.01250000  0.01250000       0.031
   0.01250000  0.02500000  0.01250000       0.062
   0.01250000  0.01250000  0.02500000       0.062
   0.02500000 -0.01250000  0.01250000       0.031
   0.02500000  0.02500000  0.01250000       0.031
   0.01250000  0.02500000  0.02500000       0.031
   0.02500000  0.01250000  0.02500000       0.031
   0.02500000  0.02500000  0.02500000       0.016

 k-points in reciprocal lattice and weights: Regular 2 x 2 x 2 mesh centered at Gamma
   0.00000000  0.00000000  0.00000000       0.016
   0.25000000  0.00000000  0.00000000       0.031
   0.00000000  0.25000000  0.00000000       0.031
   0.00000000  0.00000000  0.25000000       0.031
   0.50000000  0.00000000  0.00000000       0.016
   0.00000000  0.50000000  0.00000000       0.016
   0.00000000  0.00000000  0.50000000       0.016
   0.25000000  0.25000000  0.00000000       0.062
   0.00000000  0.25000000  0.25000000       0.031
   0.25000000  0.00000000  0.25000000       0.062
   0.00000000 -0.25000000  0.25000000       0.031
   0.50000000  0.25000000  0.00000000       0.031
   0.00000000  0.50000000  0.25000000       0.031
   0.25000000  0.00000000  0.50000000       0.031
  -0.25000000  0.50000000  0.00000000       0.031
   0.50000000  0.00000000  0.25000000       0.031
   0.00000000  0.25000000  0.50000000       0.031
   0.50000000  0.50000000  0.00000000       0.016
   0.00000000  0.50000000  0.50000000       0.016
   0.50000000  0.00000000  0.50000000       0.016
   0.25000000  0.25000000  0.25000000       0.062
  -0.25000000 -0.25000000  0.25000000       0.062
   0.50000000  0.25000000  0.25000000       0.031
   0.25000000  0.50000000  0.25000000       0.062
   0.25000000  0.25000000  0.50000000       0.062
   0.50000000 -0.25000000  0.25000000       0.031
   0.50000000  0.50000000  0.25000000       0.031
   0.25000000  0.50000000  0.50000000       0.031
   0.50000000  0.25000000  0.50000000       0.031
   0.50000000  0.50000000  0.50000000       0.016

 position of ions in fractional coordinates (direct lattice) 
   0.50000000  0.50000000  0.55838415
   0.50000000  0.50000000  0.44161585
   0.50000000  0.56966430  0.58430100
   0.43966895  0.46516785  0.58430100
   0.56033105  0.46516785  0.58430100
   0.50000000  0.43033570  0.41569900
   0.43966895  0.53483215  0.41569900
   0.56033105  0.53483215  0.41569900

 position of ions in cartesian coordinates  (Angst):
  10.00000000 10.00000000 11.16768300
  10.00000000 10.00000000  8.83231700
  10.00000000 11.39328600 11.68602000
   8.79337900  9.30335700 11.68602000
  11.20662100  9.30335700 11.68602000
  10.00000000  8.60671400  8.31398000
   8.79337900 10.69664300  8.31398000
  11.20662100 10.69664300  8.31398000



--------------------------------------------------------------------------------------------------------


 k-point   1 :   0.0000 0.0000 0.0000  plane waves:  267179
 k-point   2 :   0.2500 0.0000 0.0000  plane waves:  267112
 k-point   3 :   0.0000 0.2500 0.0000  plane waves:  267112
 k-point   4 :   0.0000 0.0000 0.2500  plane waves:  267112
 k-point   5 :   0.5000 0.0000 0.0000  plane waves:  266904
 k-point   6 :   0.0000 0.5000 0.0000  plane waves:  266904
 k-point   7 :   0.0000 0.0000 0.5000  plane waves:  266904
 k-point   8 :   0.2500 0.2500 0.0000  plane waves:  266962
 k-point   9 :   0.0000 0.2500 0.2500  plane waves:  266962
 k-point  10 :   0.2500 0.0000 0.2500  plane waves:  266962
 k-point  11 :   0.0000-0.2500 0.2500  plane waves:  266962
 k-point  12 :   0.5000 0.2500 0.0000  plane waves:  266880
 k-point  13 :   0.0000 0.5000 0.2500  plane waves:  266880
 k-point  14 :   0.2500 0.0000 0.5000  plane waves:  266880
 k-point  15 :  -0.2500 0.5000 0.0000  plane waves:  266880
 k-point  16 :   0.5000 0.0000 0.2500  plane waves:  266880
 k-point  17 :   0.0000 0.2500 0.5000  plane waves:  266880
 k-point  18 :   0.5000 0.5000 0.0000  plane waves:  266880
 k-point  19 :   0.0000 0.5000 0.5000  plane waves:  266880
 k-point  20 :   0.5000 0.0000 0.5000  plane waves:  266880
 k-point  21 :   0.2500 0.2500 0.2500  plane waves:  266917
 k-point  22 :  -0.2500-0.2500 0.2500  plane waves:  266917
 k-point  23 :   0.5000 0.2500 0.2500  plane waves:  266994
 k-point  24 :   0.2500 0.5000 0.2500  plane waves:  266994
 k-point  25 :   0.2500 0.2500 0.5000  plane waves:  266994
 k-point  26 :   0.5000-0.2500 0.2500  plane waves:  266994
 k-point  27 :   0.5000 0.5000 0.2500  plane waves:  267192
 k-point  28 :   0.2500 0.5000 0.5000  plane waves:  267192
 k-point  29 :   0.5000 0.2500 0.5000  plane waves:  267192
 k-point  30 :   0.5000 0.5000 0.5000  plane waves:  267280

 maximum and minimum number of plane-waves per node :      8420     8248

 maximum number of plane-waves:    267280
 maximum index in each direction: 
   IXMAX=   40   IYMAX=   40   IZMAX=   39
   IXMIN=  -40   IYMIN=  -40   IZMIN=  -40


 parallel 3D FFT for wavefunctions:
    minimum data exchange during FFTs selected (reduces bandwidth)
 parallel 3D FFT for charge:
    minimum data exchange during FFTs selected (reduces bandwidth)


 total amount of memory used by VASP MPI-rank0   158321. kBytes
=======================================================================

   base      :      30000. kBytes
   nonl-proj :      73370. kBytes
   fftplans  :      13878. kBytes
   grid      :      28980. kBytes
   one-center:         15. kBytes
   wavefun   :      12078. kBytes

     INWAV:  cpu time      0.0000: real time      0.0000
 Broyden mixing: mesh for mixing (old mesh)
   NGX = 79   NGY = 79   NGZ = 79
  (NGX  =320   NGY  =320   NGZ  =320)
  gives a total of 493039 points

 initial charge density was supplied:
 charge density of overlapping atoms calculated
 number of electron      14.0000000 magnetization 
 keeping initial charge density in first step


--------------------------------------------------------------------------------------------------------


 Maximum index for augmentation-charges            0 (set IRDMAX)


--------------------------------------------------------------------------------------------------------


 First call to EWALD:  gamma=   0.089
 Maximum number of real-space cells 3x 3x 3
 Maximum number of reciprocal cells 3x 3x 3

    FEWALD:  cpu time      0.0014: real time      0.0014


--------------------------------------- Iteration      1(   1)  ---------------------------------------


    POTLOK:  cpu time      1.3590: real time      1.4110
    SETDIJ:  cpu time      0.6226: real time      0.6259
    EDDIAG:  cpu time      4.3884: real time      4.7316
     EDDAV:  cpu time     25.5956: real time     27.6227
       DOS:  cpu time      0.0008: real time      0.0008
    --------------------------------------------
      LOOP:  cpu time     31.9665: real time     34.3921

 eigenvalue-minimisations  :  1176
 total energy-change (2. order) : 0.2334645E+02  (-0.2144120E+03)
 number of electron      14.0000000 magnetization 
 augmentation part       14.0000000 magnetization 

 Free energy of the ion-electron system (eV)
  ---------------------------------------------------
  alpha Z        PSCENC =         0.07889117
  Ewald energy   TEWEN  =       311.22449961
  -Hartree energ DENC   =      -482.26387748
  -exchange      EXHF   =         0.00000000
  -V(xc)+E(xc)   XCENC  =         4.26611768
  PAW double counting   =       178.82377710     -158.23638515
  entropy T*S    EENTRO =        -0.01848063
  eigenvalues    EBANDS =      -111.58914574
  atomic energy  EATOM  =       281.06104969
  Solvation  Ediel_sol  =         0.00000000
  ---------------------------------------------------
  free energy    TOTEN  =        23.34644624 eV

  energy without entropy =       23.36492687  energy(sigma->0) =       23.35568656


--------------------------------------------------------------------------------------------------------




--------------------------------------- Iteration      1(   2)  ---------------------------------------


    EDDIAG:  cpu time      4.4306: real time      4.7946
     EDDAV:  cpu time     25.6622: real time     27.7202
       DOS:  cpu time      0.0005: real time      0.0005
    --------------------------------------------
      LOOP:  cpu time     30.0932: real time     32.5153

 eigenvalue-minimisations  :  1164
 total energy-change (2. order) :-0.5584457E+02  (-0.5254082E+02)
 number of electron      14.0000000 magnetization 
 augmentation part       14.0000000 magnetization 

 Free energy of the ion-electron system (eV)
  ---------------------------------------------------
  alpha Z        PSCENC =         0.07889117
  Ewald energy   TEWEN  =       311.22449961
  -Hartree energ DENC   =      -482.26387748
  -exchange      EXHF   =         0.00000000
  -V(xc)+E(xc)   XCENC  =         4.26611768
  PAW double counting   =       178.82377710     -158.23638515
  entropy T*S    EENTRO =        -0.00000000
  eigenvalues    EBANDS =      -167.45220030
  atomic energy  EATOM  =       281.06104969
  Solvation  Ediel_sol  =         0.00000000
  ---------------------------------------------------
  free energy    TOTEN  =       -32.49812768 eV

  energy without entropy =      -32.49812768  energy(sigma->0) =      -32.49812768


--------------------------------------------------------------------------------------------------------




--------------------------------------- Iteration      1(   3)  ---------------------------------------


    EDDIAG:  cpu time      4.4153: real time      4.7734
     EDDAV:  cpu time     22.8886: real time     24.7256
       DOS:  cpu time      0.0004: real time      0.0004
    --------------------------------------------
      LOOP:  cpu time     27.3043: real time     29.4994

 eigenvalue-minimisations  :   992
 total energy-change (2. order) :-0.1095226E+02  (-0.1006597E+02)
 number of electron      14.0000000 magnetization 
 augmentation part       14.0000000 magnetization 

 Free energy of the ion-electron system (eV)
  ---------------------------------------------------
  alpha Z        PSCENC =         0.07889117
  Ewald energy   TEWEN  =       311.22449961
  -Hartree energ DENC   =      -482.26387748
  -exchange      EXHF   =         0.00000000
  -V(xc)+E(xc)   XCENC  =         4.26611768
  PAW double counting   =       178.82377710     -158.23638515
  entropy T*S    EENTRO =        -0.00000000
  eigenvalues    EBANDS =      -178.40445573
  atomic energy  EATOM  =       281.06104969
  Solvation  Ediel_sol  =         0.00000000
  ---------------------------------------------------
  free energy    TOTEN  =       -43.45038311 eV

  energy without entropy =      -43.45038311  energy(sigma->0) =      -43.45038311


--------------------------------------------------------------------------------------------------------




--------------------------------------- Iteration      1(   4)  ---------------------------------------


    EDDIAG:  cpu time      4.4199: real time      4.7979
     EDDAV:  cpu time     23.8113: real time     25.6821
       DOS:  cpu time      0.0004: real time      0.0004
    --------------------------------------------
      LOOP:  cpu time     28.2316: real time     30.4803

 eigenvalue-minimisations  :  1052
 total energy-change (2. order) :-0.6630173E+00  (-0.6504990E+00)
 number of electron      14.0000000 magnetization 
 augmentation part       14.0000000 magnetization 

 Free energy of the ion-electron system (eV)
  ---------------------------------------------------
  alpha Z        PSCENC =         0.07889117
  Ewald energy   TEWEN  =       311.22449961
  -Hartree energ DENC   =      -482.26387748
  -exchange      EXHF   =         0.00000000
  -V(xc)+E(xc)   XCENC  =         4.26611768
  PAW double counting   =       178.82377710     -158.23638515
  entropy T*S    EENTRO =        -0.00000000
  eigenvalues    EBANDS =      -179.06747301
  atomic energy  EATOM  =       281.06104969
  Solvation  Ediel_sol  =         0.00000000
  ---------------------------------------------------
  free energy    TOTEN  =       -44.11340040 eV

  energy without entropy =      -44.11340040  energy(sigma->0) =      -44.11340040


--------------------------------------------------------------------------------------------------------




--------------------------------------- Iteration      1(   5)  ---------------------------------------


    EDDIAG:  cpu time      4.3330: real time      4.6805
     EDDAV:  cpu time     25.9051: real time     27.9605
       DOS:  cpu time      0.0004: real time      0.0004
    CHARGE:  cpu time     16.9239: real time     17.2572
    MIXING:  cpu time      0.0183: real time      0.0184
    --------------------------------------------
      LOOP:  cpu time     47.1807: real time     49.9169

 eigenvalue-minimisations  :  1200
 total energy-change (2. order) :-0.2489679E-01  (-0.2263153E-01)
 number of electron      14.0000003 magnetization 
 augmentation part       -0.3422551 magnetization 

 Broyden mixing:
  rms(total) = 0.81815E+00    rms(broyden)= 0.81812E+00
  rms(prec ) = 0.88734E+00
  weight for this iteration     100.00

 Free energy of the ion-electron system (eV)
  ---------------------------------------------------
  alpha Z        PSCENC =         0.07889117
  Ewald energy   TEWEN  =       311.22449961
  -Hartree energ DENC   =      -482.26387748
  -exchange      EXHF   =         0.00000000
  -V(xc)+E(xc)   XCENC  =         4.26611768
  PAW double counting   =       178.82377710     -158.23638515
  entropy T*S    EENTRO =        -0.00000000
  eigenvalues    EBANDS =      -179.09236980
  atomic energy  EATOM  =       281.06104969
  Solvation  Ediel_sol  =         0.00000000
  ---------------------------------------------------
  free energy    TOTEN  =       -44.13829719 eV

  energy without entropy =      -44.13829719  energy(sigma->0) =      -44.13829719


--------------------------------------------------------------------------------------------------------




--------------------------------------- Iteration      1(   6)  ---------------------------------------


    POTLOK:  cpu time      1.3451: real time      1.4024
    SETDIJ:  cpu time      0.6200: real time      0.6231
    EDDIAG:  cpu time      4.3446: real time      4.6964
     EDDAV:  cpu time     25.5671: real time     27.6075
       DOS:  cpu time      0.0006: real time      0.0006
    CHARGE:  cpu time     16.0509: real time     16.3794
    MIXING:  cpu time      0.0189: real time      0.0190
    --------------------------------------------
      LOOP:  cpu time     47.9471: real time     50.7285

 eigenvalue-minimisations  :  1176
 total energy-change (2. order) : 0.3086930E+01  (-0.7420532E-01)
 number of electron      14.0000003 magnetization 
 augmentation part       -0.3397094 magnetization 

 Broyden mixing:
  rms(total) = 0.46078E+00    rms(broyden)= 0.46078E+00
  rms(prec ) = 0.50332E+00
  weight for this iteration     100.00

 eigenvalues of (default mixing * dielectric matrix)
  average eigenvalue GAMMA=   2.2486
  2.2486

 Free energy of the ion-electron system (eV)
  ---------------------------------------------------
  alpha Z        PSCENC =         0.07889117
  Ewald energy   TEWEN  =       311.22449961
  -Hartree energ DENC   =      -493.40454532
  -exchange      EXHF   =         0.00000000
  -V(xc)+E(xc)   XCENC  =         6.20977602
  PAW double counting   =       238.10992362     -217.66948601
  entropy T*S    EENTRO =        -0.00000000
  eigenvalues    EBANDS =      -166.66147556
  atomic energy  EATOM  =       281.06104969
  Solvation  Ediel_sol  =         0.00000000
  ---------------------------------------------------
  free energy    TOTEN  =       -41.05136679 eV

  energy without entropy =      -41.05136679  energy(sigma->0) =      -41.05136679


--------------------------------------------------------------------------------------------------------




--------------------------------------- Iteration      1(   7)  ---------------------------------------


    POTLOK:  cpu time      1.3319: real time      1.3887
    SETDIJ:  cpu time      0.6210: real time      0.6242
    EDDIAG:  cpu time      4.3135: real time      4.6573
     EDDAV:  cpu time     28.1986: real time     30.4942
       DOS:  cpu time      0.0004: real time      0.0004
    CHARGE:  cpu time     17.2053: real time     17.5543
    MIXING:  cpu time      0.0179: real time      0.0181
    --------------------------------------------
      LOOP:  cpu time     51.6886: real time     54.7372

 eigenvalue-minimisations  :  1360
 total energy-change (2. order) : 0.5386113E+00  (-0.8272295E-01)
 number of electron      14.0000003 magnetization 
 augmentation part       -0.3422147 magnetization 

 Broyden mixing:
  rms(total) = 0.56198E-01    rms(broyden)= 0.56187E-01
  rms(prec ) = 0.73919E-01
  weight for this iteration     100.00

 eigenvalues of (default mixing * dielectric matrix)
  average eigenvalue GAMMA=   2.0795
  1.6847  2.4742

 Free energy of the ion-electron system (eV)
  ---------------------------------------------------
  alpha Z        PSCENC =         0.07889117
  Ewald energy   TEWEN  =       311.22449961
  -Hartree energ DENC   =      -511.65584122
  -exchange      EXHF   =         0.00000000
  -V(xc)+E(xc)   XCENC  =         8.32876286
  PAW double counting   =       337.77351763     -317.55504489
  entropy T*S    EENTRO =        -0.00000000
  eigenvalues    EBANDS =      -149.76859031
  atomic energy  EATOM  =       281.06104969
  Solvation  Ediel_sol  =         0.00000000
  ---------------------------------------------------
  free energy    TOTEN  =       -40.51275547 eV

  energy without entropy =      -40.51275547  energy(sigma->0) =      -40.51275547


--------------------------------------------------------------------------------------------------------




--------------------------------------- Iteration      1(   8)  ---------------------------------------


    POTLOK:  cpu time      1.3457: real time      1.4078
    SETDIJ:  cpu time      0.6196: real time      0.6228
    EDDIAG:  cpu time      4.3312: real time      4.6870
     EDDAV:  cpu time     28.1134: real time     30.3537
       DOS:  cpu time      0.0004: real time      0.0004
    CHARGE:  cpu time     17.3928: real time     17.7386
    MIXING:  cpu time      0.0189: real time      0.0190
    --------------------------------------------
      LOOP:  cpu time     51.8220: real time     54.8294

 eigenvalue-minimisations  :  1356
 total energy-change (2. order) : 0.6489646E-02  (-0.6829175E-02)
 number of electron      14.0000003 magnetization 
 augmentation part       -0.3387795 magnetization 

 Broyden mixing:
  rms(total) = 0.26654E-01    rms(broyden)= 0.26653E-01
  rms(prec ) = 0.36490E-01
  weight for this iteration     100.00

 eigenvalues of (default mixing * dielectric matrix)
  average eigenvalue GAMMA=   1.9732
  1.1758  2.3720  2.3720

 Free energy of the ion-electron system (eV)
  ---------------------------------------------------
  alpha Z        PSCENC =         0.07889117
  Ewald energy   TEWEN  =       311.22449961
  -Hartree energ DENC   =      -516.51968412
  -exchange      EXHF   =         0.00000000
  -V(xc)+E(xc)   XCENC  =         8.71271765
  PAW double counting   =       345.53262822     -325.32306054
  entropy T*S    EENTRO =        -0.00000000
  eigenvalues    EBANDS =      -145.27330751
  atomic energy  EATOM  =       281.06104969
  Solvation  Ediel_sol  =         0.00000000
  ---------------------------------------------------
  free energy    TOTEN  =       -40.50626583 eV

  energy without entropy =      -40.50626583  energy(sigma->0) =      -40.50626583


--------------------------------------------------------------------------------------------------------




--------------------------------------- Iteration      1(   9)  ---------------------------------------


    POTLOK:  cpu time      1.3230: real time      1.3845
    SETDIJ:  cpu time      0.6174: real time      0.6206
    EDDIAG:  cpu time      4.3567: real time      4.7007
     EDDAV:  cpu time     24.1163: real time     26.0435
       DOS:  cpu time      0.0004: real time      0.0004
    CHARGE:  cpu time     16.2953: real time     16.6320
    MIXING:  cpu time      0.0177: real time      0.0178
    --------------------------------------------
      LOOP:  cpu time     46.7269: real time     49.3996

 eigenvalue-minimisations  :  1072
 total energy-change (2. order) :-0.1470706E-01  (-0.6603543E-03)
 number of electron      14.0000003 magnetization 
 augmentation part       -0.3380645 magnetization 

 Broyden mixing:
  rms(total) = 0.12148E-01    rms(broyden)= 0.12148E-01
  rms(prec ) = 0.21184E-01
  weight for this iteration     100.00

 eigenvalues of (default mixing * dielectric matrix)
  average eigenvalue GAMMA=   2.1661
  1.0265  3.3080  1.8617  2.4682

 Free energy of the ion-electron system (eV)
  ---------------------------------------------------
  alpha Z        PSCENC =         0.07889117
  Ewald energy   TEWEN  =       311.22449961
  -Hartree energ DENC   =      -517.70001333
  -exchange      EXHF   =         0.00000000
  -V(xc)+E(xc)   XCENC  =         8.73738973
  PAW double counting   =       338.60522237     -318.37783837
  entropy T*S    EENTRO =        -0.00000000
  eigenvalues    EBANDS =      -144.15017375
  atomic energy  EATOM  =       281.06104969
  Solvation  Ediel_sol  =         0.00000000
  ---------------------------------------------------
  free energy    TOTEN  =       -40.52097289 eV

  energy without entropy =      -40.52097289  energy(sigma->0) =      -40.52097289


--------------------------------------------------------------------------------------------------------




--------------------------------------- Iteration      1(  10)  ---------------------------------------


    POTLOK:  cpu time      1.7490: real time      1.8514
    SETDIJ:  cpu time      0.6172: real time      0.6204
    EDDIAG:  cpu time      4.2988: real time      4.6348
     EDDAV:  cpu time     21.4700: real time     23.1974
       DOS:  cpu time      0.0004: real time      0.0004
    CHARGE:  cpu time     17.5234: real time     17.8691
    MIXING:  cpu time      0.0185: real time      0.0187
    --------------------------------------------
      LOOP:  cpu time     45.6772: real time     48.1922

 eigenvalue-minimisations  :   892
 total energy-change (2. order) :-0.1613198E-01  (-0.2098538E-02)
 number of electron      14.0000003 magnetization 
 augmentation part       -0.3379089 magnetization 

 Broyden mixing:
  rms(total) = 0.59348E-02    rms(broyden)= 0.59345E-02
  rms(prec ) = 0.10421E-01
  weight for this iteration     100.00

 eigenvalues of (default mixing * dielectric matrix)
  average eigenvalue GAMMA=   2.2969
  3.3265  3.3265  0.9854  2.1956  1.6505

 Free energy of the ion-electron system (eV)
  ---------------------------------------------------
  alpha Z        PSCENC =         0.07889117
  Ewald energy   TEWEN  =       311.22449961
  -Hartree energ DENC   =      -519.98890255
  -exchange      EXHF   =         0.00000000
  -V(xc)+E(xc)   XCENC  =         8.89225796
  PAW double counting   =       336.00901788     -315.77499354
  entropy T*S    EENTRO =        -0.00000000
  eigenvalues    EBANDS =      -142.03892508
  atomic energy  EATOM  =       281.06104969
  Solvation  Ediel_sol  =         0.00000000
  ---------------------------------------------------
  free energy    TOTEN  =       -40.53710486 eV

  energy without entropy =      -40.53710486  energy(sigma->0) =      -40.53710486


--------------------------------------------------------------------------------------------------------




--------------------------------------- Iteration      1(  11)  ---------------------------------------


    POTLOK:  cpu time      1.3292: real time      1.3938
    SETDIJ:  cpu time      0.6183: real time      0.6218
    EDDIAG:  cpu time      4.3312: real time      4.6850
     EDDAV:  cpu time     22.6632: real time     24.4101
       DOS:  cpu time      0.0004: real time      0.0004
    CHARGE:  cpu time     16.5558: real time     16.8970
    MIXING:  cpu time      0.0198: real time      0.0199
    --------------------------------------------
      LOOP:  cpu time     45.5179: real time     48.0280

 eigenvalue-minimisations  :   948
 total energy-change (2. order) :-0.4726862E-02  (-0.8450170E-03)
 number of electron      14.0000003 magnetization 
 augmentation part       -0.3379246 magnetization 

 Broyden mixing:
  rms(total) = 0.27243E-02    rms(broyden)= 0.27243E-02
  rms(prec ) = 0.46636E-02
  weight for this iteration     100.00

 eigenvalues of (default mixing * dielectric matrix)
  average eigenvalue GAMMA=   2.3056
  4.6796  3.1489  2.3277  1.8143  0.9882  0.8752

 Free energy of the ion-electron system (eV)
  ---------------------------------------------------
  alpha Z        PSCENC =         0.07889117
  Ewald energy   TEWEN  =       311.22449961
  -Hartree energ DENC   =      -520.71714112
  -exchange      EXHF   =         0.00000000
  -V(xc)+E(xc)   XCENC  =         8.89369319
  PAW double counting   =       335.73629588     -315.50279031
  entropy T*S    EENTRO =        -0.00000000
  eigenvalues    EBANDS =      -141.31632982
  atomic energy  EATOM  =       281.06104969
  Solvation  Ediel_sol  =         0.00000000
  ---------------------------------------------------
  free energy    TOTEN  =       -40.54183172 eV

  energy without entropy =      -40.54183172  energy(sigma->0) =      -40.54183172


--------------------------------------------------------------------------------------------------------




--------------------------------------- Iteration      1(  12)  ---------------------------------------


    POTLOK:  cpu time      1.3399: real time      1.4416
    SETDIJ:  cpu time      0.6192: real time      0.6225
    EDDIAG:  cpu time      4.3302: real time      4.6745
     EDDAV:  cpu time     20.3452: real time     21.9278
       DOS:  cpu time      0.0006: real time      0.0006
    CHARGE:  cpu time     14.6571: real time     14.9753
    MIXING:  cpu time      0.0205: real time      0.0206
    --------------------------------------------
      LOOP:  cpu time     41.3127: real time     43.6628

 eigenvalue-minimisations  :   808
 total energy-change (2. order) :-0.1364024E-03  (-0.1370655E-03)
 number of electron      14.0000003 magnetization 
 augmentation part       -0.3378658 magnetization 

 Broyden mixing:
  rms(total) = 0.17977E-02    rms(broyden)= 0.17977E-02
  rms(prec ) = 0.32112E-02
  weight for this iteration     100.00

 eigenvalues of (default mixing * dielectric matrix)
  average eigenvalue GAMMA=   2.6282
  5.7120  3.8656  2.7498  2.3098  1.7868  0.9868  0.9868

 Free energy of the ion-electron system (eV)
  ---------------------------------------------------
  alpha Z        PSCENC =         0.07889117
  Ewald energy   TEWEN  =       311.22449961
  -Hartree energ DENC   =      -520.98435579
  -exchange      EXHF   =         0.00000000
  -V(xc)+E(xc)   XCENC  =         8.89741521
  PAW double counting   =       336.07246651     -315.83964893
  entropy T*S    EENTRO =        -0.00000000
  eigenvalues    EBANDS =      -141.05228559
  atomic energy  EATOM  =       281.06104969
  Solvation  Ediel_sol  =         0.00000000
  ---------------------------------------------------
  free energy    TOTEN  =       -40.54196813 eV

  energy without entropy =      -40.54196813  energy(sigma->0) =      -40.54196813


--------------------------------------------------------------------------------------------------------




--------------------------------------- Iteration      1(  13)  ---------------------------------------


    POTLOK:  cpu time      1.3376: real time      1.3970
    SETDIJ:  cpu time      0.6211: real time      0.6243
    EDDIAG:  cpu time      4.3686: real time      4.7098
     EDDAV:  cpu time     20.0515: real time     21.5840
       DOS:  cpu time      0.0006: real time      0.0006
    CHARGE:  cpu time     16.4502: real time     16.7774
    MIXING:  cpu time      0.0206: real time      0.0207
    --------------------------------------------
      LOOP:  cpu time     42.8501: real time     45.1138

 eigenvalue-minimisations  :   788
 total energy-change (2. order) :-0.1306729E-02  (-0.5383996E-03)
 number of electron      14.0000003 magnetization 
 augmentation part       -0.3379665 magnetization 

 Broyden mixing:
  rms(total) = 0.72485E-03    rms(broyden)= 0.72961E-03
  rms(prec ) = 0.12435E-02
  weight for this iteration     100.00

 eigenvalues of (default mixing * dielectric matrix)
  average eigenvalue GAMMA=   2.4889
  5.9189  4.1635  2.8327  2.3433  1.7964  0.9873  0.9347  0.9347

 Free energy of the ion-electron system (eV)
  ---------------------------------------------------
  alpha Z        PSCENC =         0.07889117
  Ewald energy   TEWEN  =       311.22449961
  -Hartree energ DENC   =      -521.14060054
  -exchange      EXHF   =         0.00000000
  -V(xc)+E(xc)   XCENC  =         8.88826624
  PAW double counting   =       335.86736077     -315.63348940
  entropy T*S    EENTRO =        -0.00000000
  eigenvalues    EBANDS =      -140.88925239
  atomic energy  EATOM  =       281.06104969
  Solvation  Ediel_sol  =         0.00000000
  ---------------------------------------------------
  free energy    TOTEN  =       -40.54327486 eV

  energy without entropy =      -40.54327486  energy(sigma->0) =      -40.54327486


--------------------------------------------------------------------------------------------------------




--------------------------------------- Iteration      1(  14)  ---------------------------------------


    POTLOK:  cpu time      1.3421: real time      1.4019
    SETDIJ:  cpu time      0.6195: real time      0.6228
    EDDIAG:  cpu time      4.3458: real time      4.6908
     EDDAV:  cpu time     24.0667: real time     25.9472
       DOS:  cpu time      0.0005: real time      0.0005
    CHARGE:  cpu time     17.5170: real time     17.8674
    MIXING:  cpu time      0.0211: real time      0.0213
    --------------------------------------------
      LOOP:  cpu time     47.9127: real time     50.5519

 eigenvalue-minimisations  :  1068
 total energy-change (2. order) :-0.1304238E-03  (-0.6687552E-04)
 number of electron      14.0000003 magnetization 
 augmentation part       -0.3379873 magnetization 

 Broyden mixing:
  rms(total) = 0.44925E-03    rms(broyden)= 0.49654E-03
  rms(prec ) = 0.76681E-03
  weight for this iteration     100.00
  WARNING: grid for Broyden might be to small

 eigenvalues of (default mixing * dielectric matrix)
  average eigenvalue GAMMA=   2.5537
  6.5345  4.5333  3.0054  2.4757  1.9788  1.7763  0.9931  1.0079  0.6784

 Free energy of the ion-electron system (eV)
  ---------------------------------------------------
  alpha Z        PSCENC =         0.07889117
  Ewald energy   TEWEN  =       311.22449961
  -Hartree energ DENC   =      -521.16219710
  -exchange      EXHF   =         0.00000000
  -V(xc)+E(xc)   XCENC  =         8.88464132
  PAW double counting   =       335.82275938     -315.58874453
  entropy T*S    EENTRO =        -0.00000000
  eigenvalues    EBANDS =      -140.86430482
  atomic energy  EATOM  =       281.06104969
  Solvation  Ediel_sol  =         0.00000000
  ---------------------------------------------------
  free energy    TOTEN  =       -40.54340528 eV

  energy without entropy =      -40.54340528  energy(sigma->0) =      -40.54340528


--------------------------------------------------------------------------------------------------------




--------------------------------------- Iteration      1(  15)  ---------------------------------------


    POTLOK:  cpu time      1.3314: real time      1.3936
    SETDIJ:  cpu time      0.6200: real time      0.6233
    EDDIAG:  cpu time      4.3531: real time      4.6998
     EDDAV:  cpu time     21.5617: real time     23.2264
       DOS:  cpu time      0.0005: real time      0.0005
    CHARGE:  cpu time     17.3998: real time     17.7412
    MIXING:  cpu time      0.0209: real time      0.0210
    --------------------------------------------
      LOOP:  cpu time     45.2874: real time     47.7057

 eigenvalue-minimisations  :   892
 total energy-change (2. order) :-0.2408992E-03  (-0.2045773E-04)
 number of electron      14.0000003 magnetization 
 augmentation part       -0.3379628 magnetization 

 Broyden mixing:
  rms(total) = 0.24703E-03    rms(broyden)= 0.38031E-03
  rms(prec ) = 0.38496E-03
  weight for this iteration     100.00
  WARNING: grid for Broyden might be to small

 eigenvalues of (default mixing * dielectric matrix)
  average eigenvalue GAMMA=   2.5660
  7.4114  4.4478  3.4900  2.7200  2.2782  1.7969  0.9830  0.9830  0.9142  0.6358

 Free energy of the ion-electron system (eV)
  ---------------------------------------------------
  alpha Z        PSCENC =         0.07889117
  Ewald energy   TEWEN  =       311.22449961
  -Hartree energ DENC   =      -521.22795115
  -exchange      EXHF   =         0.00000000
  -V(xc)+E(xc)   XCENC  =         8.88608745
  PAW double counting   =       335.84894493     -315.61508524
  entropy T*S    EENTRO =        -0.00000000
  eigenvalues    EBANDS =      -140.80008262
  atomic energy  EATOM  =       281.06104969
  Solvation  Ediel_sol  =         0.00000000
  ---------------------------------------------------
  free energy    TOTEN  =       -40.54364618 eV

  energy without entropy =      -40.54364618  energy(sigma->0) =      -40.54364618


--------------------------------------------------------------------------------------------------------




--------------------------------------- Iteration      1(  16)  ---------------------------------------


    POTLOK:  cpu time      1.3375: real time      1.4181
    SETDIJ:  cpu time      0.6200: real time      0.6233
    EDDIAG:  cpu time      4.3814: real time      4.7281
     EDDAV:  cpu time     25.6043: real time     27.5829
       DOS:  cpu time      0.0005: real time      0.0015
    CHARGE:  cpu time     17.3964: real time     17.7404
    MIXING:  cpu time      0.0232: real time      0.0234
    --------------------------------------------
      LOOP:  cpu time     49.3634: real time     52.1176

 eigenvalue-minimisations  :  1172
 total energy-change (2. order) :-0.1869447E-03  (-0.5980414E-05)
 number of electron      14.0000003 magnetization 
 augmentation part       -0.3379512 magnetization 

 Broyden mixing:
  rms(total) = 0.18950E-03    rms(broyden)= 0.82863E-03
  rms(prec ) = 0.26222E-03
  weight for this iteration     100.00
  WARNING: grid for Broyden might be to small

 eigenvalues of (default mixing * dielectric matrix)
  average eigenvalue GAMMA=   2.6247
  7.8113  4.5576  4.0328  2.7995  2.4185  1.8178  1.8178  1.0463  0.9845  0.9562
  0.6299

 Free energy of the ion-electron system (eV)
  ---------------------------------------------------
  alpha Z        PSCENC =         0.07889117
  Ewald energy   TEWEN  =       311.22449961
  -Hartree energ DENC   =      -521.26261346
  -exchange      EXHF   =         0.00000000
  -V(xc)+E(xc)   XCENC  =         8.88845161
  PAW double counting   =       335.91323304     -315.67955652
  entropy T*S    EENTRO =        -0.00000000
  eigenvalues    EBANDS =      -140.76778825
  atomic energy  EATOM  =       281.06104969
  Solvation  Ediel_sol  =         0.00000000
  ---------------------------------------------------
  free energy    TOTEN  =       -40.54383312 eV

  energy without entropy =      -40.54383312  energy(sigma->0) =      -40.54383312


--------------------------------------------------------------------------------------------------------




--------------------------------------- Iteration      1(  17)  ---------------------------------------


    POTLOK:  cpu time      1.3364: real time      1.3972
    SETDIJ:  cpu time      0.6190: real time      0.6222
    EDDIAG:  cpu time      4.3781: real time      4.7298
     EDDAV:  cpu time     23.5921: real time     25.4424
       DOS:  cpu time      0.0005: real time      0.0005
    CHARGE:  cpu time     17.0318: real time     17.3727
    MIXING:  cpu time      0.0235: real time      0.0237
    --------------------------------------------
      LOOP:  cpu time     46.9813: real time     49.5884

 eigenvalue-minimisations  :  1032
 total energy-change (2. order) :-0.8872566E-04  (-0.2123361E-05)
 number of electron      14.0000003 magnetization 
 augmentation part       -0.3379589 magnetization 

 Broyden mixing:
  rms(total) = 0.64367E-04    rms(broyden)= 0.13698E-02
  rms(prec ) = 0.98015E-04
  weight for this iteration     100.00
  WARNING: grid for Broyden might be to small

 eigenvalues of (default mixing * dielectric matrix)
  average eigenvalue GAMMA=   2.6638
  8.4287  5.1200  4.0451  3.0925  2.6068  2.3104  1.8041  1.0162  0.9692  0.9714
  0.9714  0.6294

 Free energy of the ion-electron system (eV)
  ---------------------------------------------------
  alpha Z        PSCENC =         0.07889117
  Ewald energy   TEWEN  =       311.22449961
  -Hartree energ DENC   =      -521.25398158
  -exchange      EXHF   =         0.00000000
  -V(xc)+E(xc)   XCENC  =         8.88726778
  PAW double counting   =       335.85260648     -315.61875283
  entropy T*S    EENTRO =        -0.00000000
  eigenvalues    EBANDS =      -140.77550216
  atomic energy  EATOM  =       281.06104969
  Solvation  Ediel_sol  =         0.00000000
  ---------------------------------------------------
  free energy    TOTEN  =       -40.54392185 eV

  energy without entropy =      -40.54392185  energy(sigma->0) =      -40.54392185


--------------------------------------------------------------------------------------------------------




--------------------------------------- Iteration      1(  18)  ---------------------------------------


    POTLOK:  cpu time      1.3384: real time      1.4222
    SETDIJ:  cpu time      0.6214: real time      0.6245
    EDDIAG:  cpu time      4.3793: real time      4.7312
     EDDAV:  cpu time     25.4547: real time     27.4777
       DOS:  cpu time      0.0005: real time      0.0005
    CHARGE:  cpu time     16.2481: real time     16.5815
    MIXING:  cpu time      0.0227: real time      0.0231
    --------------------------------------------
      LOOP:  cpu time     48.0651: real time     50.8607

 eigenvalue-minimisations  :  1160
 total energy-change (2. order) :-0.3392825E-04  (-0.6771232E-06)
 number of electron      14.0000003 magnetization 
 augmentation part       -0.3379577 magnetization 

 Broyden mixing:
  rms(total) = 0.38100E-04    rms(broyden)= 0.23429E-02
  rms(prec ) = 0.64721E-04
  weight for this iteration     100.00
  WARNING: grid for Broyden might be to small

 eigenvalues of (default mixing * dielectric matrix)
  average eigenvalue GAMMA=   2.5976
  8.6856  5.3640  4.0181  3.3006  2.6596  2.3422  1.7945  1.1151  1.1151  1.0018
  0.9696  0.7737  0.6293

 Free energy of the ion-electron system (eV)
  ---------------------------------------------------
  alpha Z        PSCENC =         0.07889117
  Ewald energy   TEWEN  =       311.22449961
  -Hartree energ DENC   =      -521.25414389
  -exchange      EXHF   =         0.00000000
  -V(xc)+E(xc)   XCENC  =         8.88711919
  PAW double counting   =       335.86326736     -315.62943416
  entropy T*S    EENTRO =        -0.00000000
  eigenvalues    EBANDS =      -140.77520474
  atomic energy  EATOM  =       281.06104969
  Solvation  Ediel_sol  =         0.00000000
  ---------------------------------------------------
  free energy    TOTEN  =       -40.54395578 eV

  energy without entropy =      -40.54395578  energy(sigma->0) =      -40.54395578


--------------------------------------------------------------------------------------------------------




--------------------------------------- Iteration      1(  19)  ---------------------------------------


    POTLOK:  cpu time      1.3493: real time      1.4086
    SETDIJ:  cpu time      0.6185: real time      0.6222
    EDDIAG:  cpu time      4.3650: real time      4.7115
     EDDAV:  cpu time     19.8630: real time     21.4158
       DOS:  cpu time      0.0005: real time      0.0005
    CHARGE:  cpu time     16.4514: real time     16.7878
    MIXING:  cpu time      0.0296: real time      0.0302
    --------------------------------------------
      LOOP:  cpu time     42.6774: real time     44.9765

 eigenvalue-minimisations  :   768
 total energy-change (2. order) :-0.2178976E-04  (-0.1737540E-05)
 number of electron      14.0000003 magnetization 
 augmentation part       -0.3379581 magnetization 

 Broyden mixing:
  rms(total) = 0.23868E-04    rms(broyden)= 0.22095E-03
  rms(prec ) = 0.33035E-04
  weight for this iteration     100.00
  WARNING: grid for Broyden might be to small

 eigenvalues of (default mixing * dielectric matrix)
  average eigenvalue GAMMA=   2.7078
  9.1397  6.1440  4.1364  3.7791  2.7808  2.4161  2.4161  1.8075  1.0351  1.0084
  1.0084  0.9551  0.6544  0.6287

 Free energy of the ion-electron system (eV)
  ---------------------------------------------------
  alpha Z        PSCENC =         0.07889117
  Ewald energy   TEWEN  =       311.22449961
  -Hartree energ DENC   =      -521.25448764
  -exchange      EXHF   =         0.00000000
  -V(xc)+E(xc)   XCENC  =         8.88704173
  PAW double counting   =       335.87360346     -315.63979241
  entropy T*S    EENTRO =        -0.00000000
  eigenvalues    EBANDS =      -140.77478317
  atomic energy  EATOM  =       281.06104969
  Solvation  Ediel_sol  =         0.00000000
  ---------------------------------------------------
  free energy    TOTEN  =       -40.54397757 eV

  energy without entropy =      -40.54397757  energy(sigma->0) =      -40.54397757


--------------------------------------------------------------------------------------------------------




--------------------------------------- Iteration      1(  20)  ---------------------------------------


    POTLOK:  cpu time      1.3598: real time      1.4375
    SETDIJ:  cpu time      0.6191: real time      0.6229
    EDDIAG:  cpu time      4.3767: real time      4.7318
     EDDAV:  cpu time     26.8249: real time     28.9198
       DOS:  cpu time      0.0006: real time      0.0006
    CHARGE:  cpu time     17.2409: real time     17.5824
    MIXING:  cpu time      0.0251: real time      0.0255
    --------------------------------------------
      LOOP:  cpu time     50.4471: real time     53.3205

 eigenvalue-minimisations  :  1252
 total energy-change (2. order) :-0.2148579E-05  (-0.2952884E-06)
 number of electron      14.0000003 magnetization 
 augmentation part       -0.3379597 magnetization 

 Broyden mixing:
  rms(total) = 0.15739E-04    rms(broyden)= 0.12915E-03
  rms(prec ) = 0.23844E-04
  weight for this iteration     100.00
  WARNING: grid for Broyden might be to small

 eigenvalues of (default mixing * dielectric matrix)
  average eigenvalue GAMMA=   2.6119
  9.2189  6.2197  4.1401  3.8640  2.7071  2.5735  2.3277  1.8038  1.0398  1.0267
  1.0267  0.9741  0.9741  0.6531  0.6287

 Free energy of the ion-electron system (eV)
  ---------------------------------------------------
  alpha Z        PSCENC =         0.07889117
  Ewald energy   TEWEN  =       311.22449961
  -Hartree energ DENC   =      -521.25372822
  -exchange      EXHF   =         0.00000000
  -V(xc)+E(xc)   XCENC  =         8.88698382
  PAW double counting   =       335.86749003     -315.63366524
  entropy T*S    EENTRO =        -0.00000000
  eigenvalues    EBANDS =      -140.77550057
  atomic energy  EATOM  =       281.06104969
  Solvation  Ediel_sol  =         0.00000000
  ---------------------------------------------------
  free energy    TOTEN  =       -40.54397972 eV

  energy without entropy =      -40.54397972  energy(sigma->0) =      -40.54397972


--------------------------------------------------------------------------------------------------------




--------------------------------------- Iteration      1(  21)  ---------------------------------------


    POTLOK:  cpu time      1.3507: real time      1.4097
    SETDIJ:  cpu time      0.6211: real time      0.6248
    EDDIAG:  cpu time      4.4216: real time      4.7766
     EDDAV:  cpu time     21.0388: real time     22.6880
       DOS:  cpu time      0.0005: real time      0.0005
    CHARGE:  cpu time     17.2199: real time     17.5593
    MIXING:  cpu time      0.0257: real time      0.0261
    --------------------------------------------
      LOOP:  cpu time     44.6783: real time     47.0851

 eigenvalue-minimisations  :   852
 total energy-change (2. order) :-0.4262233E-05  (-0.4118852E-06)
 number of electron      14.0000003 magnetization 
 augmentation part       -0.3379600 magnetization 

 Broyden mixing:
  rms(total) = 0.94435E-05    rms(broyden)= 0.99536E-04
  rms(prec ) = 0.12243E-04
  weight for this iteration     100.00
  WARNING: grid for Broyden might be to small

 eigenvalues of (default mixing * dielectric matrix)
  average eigenvalue GAMMA=   2.6933
  9.4294  6.6758  4.2868  4.2868  3.0438  2.7760  2.3705  2.3705  1.8065  1.0276
  1.0139  1.0139  0.9667  0.7491  0.6465  0.6285

 Free energy of the ion-electron system (eV)
  ---------------------------------------------------
  alpha Z        PSCENC =         0.07889117
  Ewald energy   TEWEN  =       311.22449961
  -Hartree energ DENC   =      -521.25423516
  -exchange      EXHF   =         0.00000000
  -V(xc)+E(xc)   XCENC  =         8.88701252
  PAW double counting   =       335.86217224     -315.62833640
  entropy T*S    EENTRO =        -0.00000000
  eigenvalues    EBANDS =      -140.77503764
  atomic energy  EATOM  =       281.06104969
  Solvation  Ediel_sol  =         0.00000000
  ---------------------------------------------------
  free energy    TOTEN  =       -40.54398398 eV

  energy without entropy =      -40.54398398  energy(sigma->0) =      -40.54398398


--------------------------------------------------------------------------------------------------------




--------------------------------------- Iteration      1(  22)  ---------------------------------------


    POTLOK:  cpu time      1.3487: real time      1.4274
    SETDIJ:  cpu time      0.6210: real time      0.6242
    EDDIAG:  cpu time      4.4213: real time      4.7765
     EDDAV:  cpu time     27.7975: real time     29.9743
       DOS:  cpu time      0.0009: real time      0.0009
    CHARGE:  cpu time     17.2477: real time     17.5873
    MIXING:  cpu time      0.0284: real time      0.0288
    --------------------------------------------
      LOOP:  cpu time     51.4654: real time     54.4194

 eigenvalue-minimisations  :  1320
 total energy-change (2. order) :-0.2153253E+03  (-0.2144443E+03)
 number of electron      14.0000002 magnetization 
 augmentation part       -0.3223307 magnetization 

 Broyden mixing:
  rms(total) = 0.72609E+01    rms(broyden)= 0.70160E+01
  rms(prec ) = 0.77036E+01
  weight for this iteration     100.00

 eigenvalues of (default mixing * dielectric matrix)
  average eigenvalue GAMMA=   2.5349
  9.4294  6.6761  4.2868  4.2868  3.0437  2.7761  2.3705  2.3705  1.8065  1.0277
  1.0139  1.0139  0.9667  0.7491  0.6465  0.6285  0.0000

 Free energy of the ion-electron system (eV)
  ---------------------------------------------------
  alpha Z        PSCENC =         0.07889117
  Ewald energy   TEWEN  =       311.22449961
  -Hartree energ DENC   =      -521.25428702
  -exchange      EXHF   =         0.00000000
  -V(xc)+E(xc)   XCENC  =         8.88701637
  PAW double counting   =       335.86517578     -315.63134760
  entropy T*S    EENTRO =        -0.04523670
  eigenvalues    EBANDS =      -356.05507757
  atomic energy  EATOM  =       281.06104969
  Solvation  Ediel_sol  =         0.00000000
  ---------------------------------------------------
  free energy    TOTEN  =      -255.86931627 eV

  energy without entropy =     -255.82407957  energy(sigma->0) =     -255.84669792


--------------------------------------------------------------------------------------------------------




--------------------------------------- Iteration      1(  23)  ---------------------------------------


    POTLOK:  cpu time      1.3600: real time      1.4193
    SETDIJ:  cpu time      0.6193: real time      0.6226
    EDDIAG:  cpu time      4.4023: real time      4.7533
     EDDAV:  cpu time     20.9859: real time     22.6155
       DOS:  cpu time      0.0009: real time      0.0009
    CHARGE:  cpu time     17.2680: real time     17.6097
    MIXING:  cpu time      0.0263: real time      0.0266
    --------------------------------------------
      LOOP:  cpu time     44.6627: real time     47.0479

 eigenvalue-minimisations  :   848
 total energy-change (2. order) : 0.2406945E+03  (-0.1212078E+04)
 number of electron      14.0000002 magnetization 
 augmentation part       -0.3327289 magnetization 

 Broyden mixing:
  rms(total) = 0.15576E+01    rms(broyden)= 0.43324E+00
  rms(prec ) = 0.49193E+00
  weight for this iteration     100.00
  WARNING: grid for Broyden might be to small

 eigenvalues of (default mixing * dielectric matrix)
  average eigenvalue GAMMA=   2.3941
  9.4293  6.6763  4.2870  4.2870  3.0398  2.7793  2.3706  2.3706  1.8065  1.0275
  1.0140  1.0140  0.9667  0.7491  0.6465  0.6285  0.0000  0.0000

 Free energy of the ion-electron system (eV)
  ---------------------------------------------------
  alpha Z        PSCENC =         0.07889117
  Ewald energy   TEWEN  =       311.22449961
  -Hartree energ DENC   =      -522.02771554
  -exchange      EXHF   =         0.00000000
  -V(xc)+E(xc)   XCENC  =        14.14644604
  PAW double counting   =       335.61841990     -315.36994437
  entropy T*S    EENTRO =        -0.11193302
  eigenvalues    EBANDS =      -119.79450440
  atomic energy  EATOM  =       281.06104969
  Solvation  Ediel_sol  =         0.00000000
  ---------------------------------------------------
  free energy    TOTEN  =       -15.17479094 eV

  energy without entropy =      -15.06285792  energy(sigma->0) =      -15.11882443


--------------------------------------------------------------------------------------------------------




--------------------------------------- Iteration      1(  24)  ---------------------------------------


    POTLOK:  cpu time      1.3485: real time      1.4322
    SETDIJ:  cpu time      0.6242: real time      0.6273
    EDDIAG:  cpu time      4.3848: real time      4.7312
     EDDAV:  cpu time     23.4109: real time     25.2499
       DOS:  cpu time      0.0009: real time      0.0009
    CHARGE:  cpu time     16.9872: real time     17.3296
    MIXING:  cpu time      0.0282: real time      0.0286
    --------------------------------------------
      LOOP:  cpu time     46.7847: real time     49.3998

 eigenvalue-minimisations  :  1016
 total energy-change (2. order) :-0.1128481E+02  (-0.4612526E+01)
 number of electron      14.0000002 magnetization 
 augmentation part       -0.3418054 magnetization 

 Broyden mixing:
  rms(total) = 0.36605E+00    rms(broyden)= 0.28355E+00
  rms(prec ) = 0.24818E+00
  weight for this iteration     100.00
  WARNING: grid for Broyden might be to small

 eigenvalues of (default mixing * dielectric matrix)
  average eigenvalue GAMMA=   2.2792
  9.4719  6.6182  4.6079  3.8696  3.3337  2.7082  2.3698  2.3698  1.8081  1.0282
  1.0282  1.0018  0.9673  0.7426  0.6464  0.6285  0.1038  0.0005  0.0000

 Free energy of the ion-electron system (eV)
  ---------------------------------------------------
  alpha Z        PSCENC =         0.07889117
  Ewald energy   TEWEN  =       311.22449961
  -Hartree energ DENC   =      -517.49885734
  -exchange      EXHF   =         0.00000000
  -V(xc)+E(xc)   XCENC  =         8.93276298
  PAW double counting   =       318.03304128     -297.74010115
  entropy T*S    EENTRO =        -0.08723465
  eigenvalues    EBANDS =      -130.46365533
  atomic energy  EATOM  =       281.06104969
  Solvation  Ediel_sol  =         0.00000000
  ---------------------------------------------------
  free energy    TOTEN  =       -26.45960374 eV

  energy without entropy =      -26.37236909  energy(sigma->0) =      -26.41598641


--------------------------------------------------------------------------------------------------------




[...]
      1     -14.5809      2.00000
      2     -12.9035      2.00000
      3      -9.1971      2.00000
      4      -9.1968      2.00000
      5      -8.5424      2.00000
      6      -8.5423      2.00000
      7      -7.5046      2.00000
      8      -0.3112      0.00000
      9      -0.3109      0.00000
     10       0.0004      0.00000
     11       0.0369      0.00000
     12       0.1759      0.00000

 k-point    13 :       0.0000    0.5000    0.2500
  band No.  band energies     occupation 
      1     -14.5809      2.00000
      2     -12.9035      2.00000
      3      -9.1971      2.00000
      4      -9.1968      2.00000
      5      -8.5424      2.00000
      6      -8.5423      2.00000
      7      -7.5046      2.00000
      8      -0.3112      0.00000
      9      -0.3109      0.00000
     10      -0.0043      0.00000
     11       0.0259      0.00000
     12       0.1757      0.00000

 k-point    14 :       0.2500    0.0000    0.5000
  band No.  band energies     occupation 
      1     -14.5809      2.00000
      2     -12.9035      2.00000
      3      -9.1971      2.00000
      4      -9.1968      2.00000
      5      -8.5424      2.00000
      6      -8.5423      2.00000
      7      -7.5046      2.00000
      8      -0.3112      0.00000
      9      -0.3109      0.00000
     10      -0.0075      0.00000
     11       0.0083      0.00000
     12       0.2218      0.00000

 k-point    15 :      -0.2500    0.5000    0.0000
  band No.  band energies     occupation 
      1     -14.5809      2.00000
      2     -12.9035      2.00000
      3      -9.1971      2.00000
      4      -9.1968      2.00000
      5      -8.5424      2.00000
      6      -8.5423      2.00000
      7      -7.5046      2.00000
      8      -0.3112      0.00000
      9      -0.3109      0.00000
     10       0.0006      0.00000
     11       0.0369      0.00000
     12       0.1753      0.00000

 k-point    16 :       0.5000    0.0000    0.2500
  band No.  band energies     occupation 
      1     -14.5809      2.00000
      2     -12.9035      2.00000
      3      -9.1971      2.00000
      4      -9.1968      2.00000
      5      -8.5424      2.00000
      6      -8.5423      2.00000
      7      -7.5046      2.00000
      8      -0.3112      0.00000
      9      -0.3109      0.00000
     10      -0.0046      0.00000
     11       0.0258      0.00000
     12       0.1763      0.00000

 k-point    17 :       0.0000    0.2500    0.5000
  band No.  band energies     occupation 
      1     -14.5809      2.00000
      2     -12.9035      2.00000
      3      -9.1971      2.00000
      4      -9.1968      2.00000
      5      -8.5424      2.00000
      6      -8.5423      2.00000
      7      -7.5046      2.00000
      8      -0.3112      0.00000
      9      -0.3109      0.00000
     10      -0.0074      0.00000
     11       0.0083      0.00000
     12       0.2218      0.00000

 k-point    18 :       0.5000    0.5000    0.0000
  band No.  band energies     occupation 
      1     -14.5809      2.00000
      2     -12.9035      2.00000
      3      -9.1971      2.00000
      4      -9.1968      2.00000
      5      -8.5424      2.00000
      6      -8.5423      2.00000
      7      -7.5046      2.00000
      8      -0.3112      0.00000
      9      -0.3109      0.00000
     10       0.0100      0.00000
     11       0.0376      0.00000
     12       0.2440      0.00000

 k-point    19 :       0.0000    0.5000    0.5000
  band No.  band energies     occupation 
      1     -14.5809      2.00000
      2     -12.9035      2.00000
      3      -9.1971      2.00000
      4      -9.1968      2.00000
      5      -8.5424      2.00000
      6      -8.5423      2.00000
      7      -7.5046      2.00000
      8      -0.3112      0.00000
      9      -0.3109      0.00000
     10       0.0025      0.00000
     11       0.0128      0.00000
     12       0.2474      0.00000

 k-point    20 :       0.5000    0.0000    0.5000
  band No.  band energies     occupation 
      1     -14.5809      2.00000
      2     -12.9035      2.00000
      3      -9.1971      2.00000
      4      -9.1968      2.00000
      5      -8.5425      2.00000
      6      -8.5423      2.00000
      7      -7.5046      2.00000
      8      -0.3112      0.00000
      9      -0.3109      0.00000
     10       0.0022      0.00000
     11       0.0128      0.00000
     12       0.2487      0.00000

 k-point    21 :       0.2500    0.2500    0.2500
  band No.  band energies     occupation 
      1     -14.5809      2.00000
      2     -12.9035      2.00000
      3      -9.1971      2.00000
      4      -9.1968      2.00000
      5      -8.5424      2.00000
      6      -8.5423      2.00000
      7      -7.5046      2.00000
      8      -0.3112      0.00000
      9      -0.3109      0.00000
     10      -0.0082      0.00000
     11       0.0255      0.00000
     12       0.1923      0.00000

 k-point    22 :      -0.2500   -0.2500    0.2500
  band No.  band energies     occupation 
      1     -14.5809      2.00000
      2     -12.9035      2.00000
      3      -9.1971      2.00000
      4      -9.1968      2.00000
      5      -8.5424      2.00000
      6      -8.5423      2.00000
      7      -7.5046      2.00000
      8      -0.3112      0.00000
      9      -0.3109      0.00000
     10      -0.0082      0.00000
     11       0.0255      0.00000
     12       0.1925      0.00000

 k-point    23 :       0.5000    0.2500    0.2500
  band No.  band energies     occupation 
      1     -14.5809      2.00000
      2     -12.9035      2.00000
      3      -9.1971      2.00000
      4      -9.1968      2.00000
      5      -8.5424      2.00000
      6      -8.5423      2.00000
      7      -7.5046      2.00000
      8      -0.3112      0.00000
      9      -0.3109      0.00000
     10       0.0029      0.00000
     11       0.0274      0.00000
     12       0.1992      0.00000

 k-point    24 :       0.2500    0.5000    0.2500
  band No.  band energies     occupation 
      1     -14.5809      2.00000
      2     -12.9035      2.00000
      3      -9.1971      2.00000
      4      -9.1968      2.00000
      5      -8.5424      2.00000
      6      -8.5423      2.00000
      7      -7.5046      2.00000
      8      -0.3112      0.00000
      9      -0.3109      0.00000
     10       0.0030      0.00000
     11       0.0273      0.00000
     12       0.1989      0.00000

 k-point    25 :       0.2500    0.2500    0.5000
  band No.  band energies     occupation 
      1     -14.5809      2.00000
      2     -12.9035      2.00000
      3      -9.1971      2.00000
      4      -9.1968      2.00000
      5      -8.5424      2.00000
      6      -8.5423      2.00000
      7      -7.5046      2.00000
      8      -0.3112      0.00000
      9      -0.3109      0.00000
     10       0.0001      0.00000
     11       0.0118      0.00000
     12       0.2768      0.00000

 k-point    26 :       0.5000   -0.2500    0.2500
  band No.  band energies     occupation 
      1     -14.5809      2.00000
      2     -12.9035      2.00000
      3      -9.1971      2.00000
      4      -9.1968      2.00000
      5      -8.5424      2.00000
      6      -8.5423      2.00000
      7      -7.5046      2.00000
      8      -0.3112      0.00000
      9      -0.3109      0.00000
     10       0.0029      0.00000
     11       0.0273      0.00000
     12       0.1997      0.00000

 k-point    27 :       0.5000    0.5000    0.2500
  band No.  band energies     occupation 
      1     -14.5809      2.00000
      2     -12.9035      2.00000
      3      -9.1971      2.00000
      4      -9.1968      2.00000
      5      -8.5425      2.00000
      6      -8.5423      2.00000
      7      -7.5046      2.00000
      8      -0.3112      0.00000
      9      -0.3109      0.00000
     10       0.0112      0.00000
     11       0.0289      0.00000
     12       0.2712      0.00000

 k-point    28 :       0.2500    0.5000    0.5000
  band No.  band energies     occupation 
      1     -14.5809      2.00000
      2     -12.9035      2.00000
      3      -9.1971      2.00000
      4      -9.1968      2.00000
      5      -8.5425      2.00000
      6      -8.5423      2.00000
      7      -7.5046      2.00000
      8      -0.3112      0.00000
      9      -0.3109      0.00000
     10       0.0087      0.00000
     11       0.0153      0.00000
     12       0.2704      0.00000

 k-point    29 :       0.5000    0.2500    0.5000
  band No.  band energies     occupation 
      1     -14.5809      2.00000
      2     -12.9035      2.00000
      3      -9.1971      2.00000
      4      -9.1968      2.00000
      5      -8.5425      2.00000
      6      -8.5423      2.00000
      7      -7.5046      2.00000
      8      -0.3112      0.00000
      9      -0.3109      0.00000
     10       0.0085      0.00000
     11       0.0153      0.00000
     12       0.2713      0.00000

 k-point    30 :       0.5000    0.5000    0.5000
  band No.  band energies     occupation 
      1     -14.5809      2.00000
      2     -12.9035      2.00000
      3      -9.1971      2.00000
      4      -9.1968      2.00000
      5      -8.5425      2.00000
      6      -8.5423      2.00000
      7      -7.5046      2.00000
      8      -0.3112      0.00000
      9      -0.3109      0.00000
     10       0.0155      0.00000
     11       0.0179      0.00000
     12       0.3439      0.00000


--------------------------------------------------------------------------------------------------------


 soft charge-density along one line, spin component           1
         0         1         2         3         4         5         6         7         8         9
 total charge-density along one line

 pseudopotential strength for first ion, spin component:           1
 17.991 -18.551  -0.000  -0.000   0.000   0.000   0.011  -0.000
-18.551  50.269  -0.000   0.004  -0.000   0.000  -0.030  -0.000
 -0.000  -0.000   3.993  -0.000  -0.000 -11.775   0.000  -0.000
 -0.000   0.004  -0.000   3.990   0.000   0.000 -11.771  -0.000
  0.000  -0.000  -0.000   0.000   3.993  -0.000  -0.000 -11.775
  0.000   0.000 -11.775   0.000  -0.000  37.860  -0.000   0.000
  0.011  -0.030   0.000 -11.771  -0.000  -0.000  37.860  -0.000
 -0.000  -0.000  -0.000  -0.000 -11.775   0.000  -0.000  37.860
 -0.000  -0.000  -0.001   0.000  -0.012   0.002  -0.000   0.027
 -0.000  -0.000   0.006  -0.000   0.000  -0.019   0.000  -0.000
 -0.003  -0.000  -0.000  -0.012   0.000   0.000   0.019  -0.000
  0.000  -0.000   0.000   0.000   0.006  -0.000   0.000  -0.019
  0.000   0.000  -0.012   0.000   0.001   0.027  -0.000  -0.002
 -0.000  -0.000  -0.001   0.000   0.021   0.005  -0.000  -0.004
  0.000  -0.000  -0.007   0.000   0.000  -0.031  -0.000  -0.000
  0.003   0.009   0.000   0.026   0.000  -0.000  -0.044   0.000
 -0.000  -0.000   0.000  -0.000  -0.007  -0.000  -0.000  -0.031
 -0.000   0.000   0.021  -0.000   0.001  -0.004   0.000  -0.005
 total augmentation occupancy for first ion, spin component:           1
  1.485   0.031  -0.000  -0.001   0.000  -0.000   0.002   0.000   0.000  -0.000  -0.021   0.000   0.000   0.000   0.000  -0.001
  0.031   0.001  -0.000   0.003   0.000  -0.000   0.000   0.000  -0.000  -0.000  -0.001   0.000   0.000   0.000   0.000  -0.000
 -0.000  -0.000   1.343  -0.000   0.000   0.044   0.000   0.000   0.000   0.153  -0.000   0.000  -0.219   0.000   0.001   0.000
 -0.001   0.003  -0.000   1.313   0.000   0.000   0.038   0.000   0.000  -0.000  -0.204   0.000   0.000   0.000   0.000  -0.001
  0.000   0.000   0.000  -0.000   1.343   0.000   0.000   0.044  -0.219   0.000   0.000   0.154   0.000  -0.001   0.000  -0.000
 -0.000  -0.000   0.044   0.000   0.000   0.001   0.000   0.000   0.000   0.005  -0.000   0.000  -0.007   0.000   0.000   0.000
  0.002   0.000   0.000   0.038   0.000   0.000   0.001   0.000   0.000  -0.000  -0.006   0.000  -0.000   0.000   0.000  -0.000
  0.000   0.000   0.000   0.000   0.044   0.000   0.000   0.001  -0.007   0.000   0.000   0.005   0.000  -0.000   0.000   0.000
  0.000  -0.000   0.000   0.000  -0.219   0.000   0.000  -0.007   0.036   0.000   0.000  -0.026   0.000   0.000   0.000  -0.000
 -0.000  -0.000   0.153  -0.000   0.000   0.005  -0.000   0.000   0.000   0.021   0.000   0.000  -0.026   0.000   0.000   0.000
 -0.021  -0.001  -0.000  -0.204   0.000  -0.000  -0.006   0.000   0.000   0.000   0.032   0.000   0.000   0.000  -0.000   0.000
  0.000   0.000   0.000  -0.000   0.154   0.000  -0.000   0.005  -0.026   0.000   0.000   0.021   0.000  -0.000   0.000  -0.000
  0.000   0.000  -0.219   0.000   0.000  -0.007  -0.000   0.000   0.000  -0.026   0.000   0.000   0.036   0.000  -0.000  -0.000
  0.000   0.000   0.000   0.000  -0.001   0.000   0.000  -0.000   0.000   0.000   0.000  -0.000   0.000   0.000   0.000   0.000
  0.000   0.000   0.001   0.000   0.000   0.000   0.000   0.000   0.000   0.000  -0.000   0.000  -0.000   0.000   0.000   0.000
 -0.001  -0.000   0.000  -0.001  -0.000   0.000  -0.000   0.000  -0.000   0.000   0.000  -0.000  -0.000   0.000   0.000   0.000
  0.000   0.000   0.000   0.000   0.001   0.000  -0.000   0.000  -0.000   0.000   0.000   0.000   0.000  -0.000   0.000   0.000
  0.000   0.000  -0.001  -0.000   0.000  -0.000  -0.000   0.000   0.000  -0.000   0.000   0.000   0.000   0.000  -0.000  -0.000


------------------------ aborting loop because EDIFF is reached ----------------------------------------


    CHARGE:  cpu time      6.0191: real time      6.1243
    FORLOC:  cpu time      0.0202: real time      0.0204
    FORNL :  cpu time      0.3819: real time      0.3878
    STRESS:  cpu time     25.2068: real time     27.8597
    FORCOR:  cpu time      1.2344: real time      1.2795
    FORHAR:  cpu time      0.0942: real time      0.1022
    MIXING:  cpu time      0.0198: real time      0.0212
    OFIELD:  cpu time      0.0001: real time      0.0001

  FORCE on cell =-STRESS in cart. coord.  units (eV):
  Direction    XX          YY          ZZ          XY          YZ          ZX
  --------------------------------------------------------------------------------------
  Alpha Z     0.07927     0.07927     0.07927
  Ewald      67.43057    67.44984   177.50227    -0.00000     0.00695    -0.00000
  Hartree   143.42887   143.43935   235.44063     0.00000     0.00050    -0.00000
  E(xc)     -42.86438   -42.87067   -42.53301    -0.00000    -0.00211     0.00000
  Local    -324.24019  -324.26400  -529.77251     0.00000    -0.00647    -0.00000
  n-local    54.54825    54.54553    52.73924    -0.00001    -0.00028    -0.00001
  augment    -9.41283    -9.41334    -9.32820    -0.00000    -0.00007     0.00000
  Kinetic   111.03459   111.03163   115.87704    -0.00000    -0.00167    -0.00000
  Fock        0.00000     0.00000     0.00000     0.00000     0.00000     0.00000
  -------------------------------------------------------------------------------------
  Total       0.00415    -0.00240     0.00474     0.00000    -0.00316     0.00000
  in kB       0.00083    -0.00048     0.00095     0.00000    -0.00064     0.00000
  external pressure =        0.00 kB  Pullay stress =        0.00 kB


 VOLUME and BASIS-vectors are now :
 -----------------------------------------------------------------------------
  energy-cutoff  :      600.00
  volume of cell :     7961.63
      direct lattice vectors                 reciprocal lattice vectors
    19.971168594  0.000000000  0.000000000     0.050072183 -0.000000000 -0.000000000
     0.000000000 19.970491191 -0.000338303    -0.000000000  0.050073881  0.000000852
     0.000000000 -0.000339541 19.962265760    -0.000000000  0.000000849  0.050094514

  length of vectors
    19.971168594 19.970491194 19.962265763     0.050072183  0.050073881  0.050094514


 FORCES acting on ions
    electron-ion (+dipol)            ewald-force                    non-local-force                 convergence-correction
 -----------------------------------------------------------------------------------------------
   0.111E-09 -.123E-01 -.291E+02   0.311E-14 0.735E-02 0.300E+02   0.272E-22 0.380E-02 -.860E+00   0.465E-14 0.524E-06 -.719E-05
   -.522E-10 0.123E-01 0.291E+02   0.355E-14 -.735E-02 -.300E+02   -.913E-23 -.380E-02 0.860E+00   0.152E-14 -.524E-06 0.719E-05
   0.320E-13 -.291E+02 -.156E+02   -.611E-15 0.322E+02 0.167E+02   0.102E-20 -.300E+01 -.113E+01   0.500E-15 0.968E-05 0.213E-05
   0.252E+02 0.146E+02 -.156E+02   -.278E+02 -.161E+02 0.167E+02   0.260E+01 0.150E+01 -.113E+01   -.773E-05 -.418E-05 0.188E-05
   -.252E+02 0.146E+02 -.156E+02   0.278E+02 -.161E+02 0.167E+02   -.260E+01 0.150E+01 -.113E+01   0.773E-05 -.418E-05 0.188E-05
   0.321E-13 0.291E+02 0.156E+02   -.222E-15 -.322E+02 -.167E+02   0.752E-21 0.300E+01 0.113E+01   0.652E-15 -.968E-05 -.213E-05
   0.252E+02 -.146E+02 0.156E+02   -.278E+02 0.161E+02 -.167E+02   0.260E+01 -.150E+01 0.113E+01   -.773E-05 0.418E-05 -.188E-05
   -.252E+02 -.146E+02 0.156E+02   0.278E+02 0.161E+02 -.167E+02   -.260E+01 -.150E+01 0.113E+01   0.773E-05 0.418E-05 -.188E-05
 -----------------------------------------------------------------------------------------------
   0.603E-10 0.174E-09 -.448E-09   0.000E+00 0.000E+00 0.355E-14   0.000E+00 0.000E+00 0.444E-15   0.101E-13 -.614E-15 0.129E-13


 POSITION                                       TOTAL-FORCE (eV/Angst)
 -----------------------------------------------------------------------------------
      9.98558      9.98522     11.14531        -0.000000      0.002786      0.024937
      9.98558      9.98494      8.81662         0.000000     -0.002786     -0.024937
      9.98558     11.37403     11.66288         0.000000      0.006781     -0.001200
      8.78285      9.29074     11.66289        -0.004623     -0.001730     -0.000935
     11.18831      9.29074     11.66289         0.004623     -0.001730     -0.000935
      9.98558      8.59612      8.29904         0.000000     -0.006781      0.001200
      8.78285     10.67941      8.29904        -0.004623      0.001730      0.000935
     11.18831     10.67941      8.29904         0.004623      0.001730      0.000935
 -----------------------------------------------------------------------------------
    total drift:                                0.000000      0.000000     -0.000000


--------------------------------------------------------------------------------------------------------



  FREE ENERGIE OF THE ION-ELECTRON SYSTEM (eV)
  ---------------------------------------------------
  free  energy   TOTEN  =       -40.54515262 eV

  energy  without entropy=      -40.54515262  energy(sigma->0) =      -40.54515262

 d Force = 0.4739728E-04[-0.109E-03, 0.204E-03]  d Energy = 0.1237111E-03-0.763E-04
 d Force =-0.1669391E+00[-0.167E+00,-0.167E+00]  d Ewald  =-0.3627861E+00 0.196E+00


--------------------------------------------------------------------------------------------------------


    POTLOK:  cpu time      1.9634: real time      2.0234


--------------------------------------------------------------------------------------------------------


 Conjugate gradient step on ions:
 trial-energy change:   -0.000124  1 .order   -0.000110   -0.000334    0.000114
  (g-gl).g = 0.387E-03      g.g   = 0.362E-03  gl.gl    = 0.335E-02
 g(Force)  = 0.247E-03   g(Stress)= 0.115E-03 ortho     =-0.247E-04
 gamma     =   0.11555
 trial     =   0.92985
 opt step  =   0.72288  (harmonic =   0.69387) maximal distance =0.00161711
 next E    =   -40.545165   (d E  =  -0.00014)


--------------------------------------------------------------------------------------------------------


    WAVPRE:  cpu time      0.0536: real time      0.1544
    FEWALD:  cpu time      0.0004: real time      0.0004
    GENKIN:  cpu time      0.3784: real time      0.3801
    ORTHCH:  cpu time      0.2067: real time      0.2207
    POTLOK:  cpu time      1.9657: real time      2.0263
    EDDIAG:  cpu time      4.4265: real time      4.8049
     LOOP+:  cpu time    471.2755: real time    502.1055
