8
Lattice="20.0 0.0 0.0 0.0 20.0 0.0 0.0 0.0 20.0" Properties=species:S:1:pos:R:3:forces:R:3 energy=-299.08717433396004 free_energy=-299.08717433396004 pbc="T T T"
Si      10.00000000      10.00000000      11.16325057      -0.00000000       0.00000001       0.00004561
Si      10.00000000      10.00000000       8.83674943      -0.00000000      -0.00000001      -0.00004561
H       10.00000000      11.30252231      11.97901085      -0.00000000       0.00000329      -0.00001205
H        8.87198260       9.34873883      11.97901086      -0.00000289      -0.00000165      -0.00001204
H       11.12801740       9.34873883      11.97901086       0.00000289      -0.00000165      -0.00001204
H       10.00000000       8.69747769       8.02098915       0.00000000      -0.00000329       0.00001205
H        8.87198260      10.65126117       8.02098914      -0.00000289       0.00000165       0.00001204
H       11.12801740      10.65126117       8.02098914       0.00000289       0.00000165       0.00001204
