8
Lattice="20.0 0.0 0.0 0.0 20.0 0.0 0.0 0.0 20.0" Properties=species:S:1:pos:R:3:forces:R:3:energies:R:1 energy=-32.91723449292617 free_energy=-32.91723449292617 stress="1.040075800885606e-08 1.7368934153161452e-20 2.34935617043608e-18 1.7368934153161452e-20 1.0364458458037945e-08 -9.263289917539903e-12 2.34935617043608e-18 -9.263289917539903e-12 6.722236888026785e-09" pbc="T T T"
Si      10.00000000       9.99999999      11.16953528      -0.00000000       0.00000003      -0.00001846      -4.95563818
Si      10.00000000      10.00000001       8.83046472      -0.00000000      -0.00000003       0.00001846      -4.95563818
H       10.00000000      11.39213182      11.67123151       0.00000000      -0.00001985      -0.00000104      -3.83432636
H        8.79437847       9.30393409      11.67123152       0.00001725       0.00000993      -0.00000107      -3.83432635
H       11.20562153       9.30393409      11.67123152      -0.00001725       0.00000993      -0.00000107      -3.83432635
H       10.00000000       8.60786818       8.32876849       0.00000000       0.00001985       0.00000104      -3.83432636
H        8.79437847      10.69606591       8.32876848       0.00001725      -0.00000993       0.00000107      -3.83432635
H       11.20562153      10.69606591       8.32876848      -0.00001725      -0.00000993       0.00000107      -3.83432635
