LAMMPS data file via write_data, version 2 Apr 2025, timestep = 6560000, units = metal

1000 atoms
2 atom types

-1.12551297305456 25.118256448554263 xlo xhi
-1.12551297305456 25.118256448554263 ylo yhi
-1.12551297305456 25.118256448554263 zlo zhi

Atom Type Labels

1 H
2 Si

Masses

1 1.00784
2 28.0855

Atoms # atomic

85 1 1.3998550132852583 0.3608578038376382 0.5467586131385822 0 3 1
220 1 2.4155396792987753 1.434327944928298 2.2088581828281 0 2 0
762 2 2.3418890658574196 2.7096266218748486 3.002379977527255 0 1 0
802 2 -0.9746392347637449 -0.8312565225500821 -0.7132573544966809 1 1 0
253 1 -0.8054092526515488 0.9527266386768116 1.9949701676669913 0 2 0
869 2 0.17766862661165228 4.1114750451141875 -0.8649528174989856 1 0 0
129 1 2.0595108663923916 3.654323186853442 1.9643145081848519 -1 1 1
609 2 1.4029842349893626 2.371772849405946 5.275721784583458 1 0 0
192 1 9.999838257311923 -0.2516447998993424 0.9184637219046476 0 0 0
376 2 5.483672261869297 0.9547647203882286 3.7724102093141765 0 0 0
50 1 4.745321138426571 0.023902076904927405 2.943488329201063 0 0 0
289 1 6.84327861417657 0.8418742878404568 3.3015550037826182 0 -1 1
97 1 4.207691264354927 -0.5754526299104318 0.6322355566801843 0 -1 1
45 1 4.253257548200652 -0.007292822717974934 0.1389824106901778 0 1 0
58 1 11.097719373070353 1.6457683277639568 -1.0230243524204918 -1 4 1
113 1 7.803152816807527 1.3372870900181395 1.3330708955251174 0 0 0
232 1 7.330875031612079 1.8721854343238116 1.0630197793236889 1 -1 1
212 1 10.76299644931905 1.2468724623061354 -0.4353205802496134 0 0 0
148 1 7.9305086488033485 -0.4678414455955697 4.5155918902183325 0 2 0
796 2 9.873727750385903 2.1053676055761854 4.645629191779738 1 1 0
21 1 10.326937832018874 1.7752224836436605 3.2808659691196747 -1 2 0
173 1 9.586152186181737 -0.926162514347447 0.8403530575203013 -1 0 2
223 1 0.9871679964804811 4.878584229872125 0.16522573945380414 0 -2 0
322 2 0.9925234607207587 6.55441563466729 4.225981582276296 1 1 0
155 1 1.8239288772411015 5.81281703509736 3.171273759079437 1 -1 -1
31 1 3.877107389410292 5.701075066508718 2.2553381605282974 0 -3 1
281 1 4.287610832733326 6.33405854802128 2.4124791358917093 0 -3 1
567 2 4.674429455046474 3.077382323460313 3.413863206899215 1 1 0
18 1 5.306835730285741 3.8048634912838404 2.1736737402939963 -1 1 1
268 1 5.228158956682228 6.946792188536769 4.0098724709511515 0 1 1
22 1 6.877715893368141 6.456827712764697 2.2477605316005946 0 -1 1
34 1 7.081635359533774 6.571180017695071 2.912374506296156 0 0 0
525 2 9.907280940922977 8.197554735649046 1.566031241469212 0 0 0
137 1 10.103351489493837 3.9377172837917502 0.7818823423534853 -1 0 1
147 1 8.284319673713659 4.316385467746423 3.419855424627369 -2 -2 1
128 1 10.600558740424063 6.331442080225691 4.370513781296539 0 0 1
167 1 11.07950750103704 5.355389072330858 2.884286843728103 0 -4 1
461 2 8.673113995235719 4.232967647402513 4.790023918128509 0 1 1
132 1 9.856182364061342 7.608605487981437 2.8738566041934224 0 -1 0
259 1 9.869647807494166 4.128190024709562 1.4350084666272633 -1 2 0
62 1 2.6731403375009077 11.736537150467452 2.1605589904454328 1 2 0
230 1 1.6440186523003284 9.369142621564754 -0.7000689449873865 0 -3 1
713 2 -0.45432318248055525 11.540562205800525 -0.4662018963858262 0 0 0
260 1 1.705274065821988 8.131164748920822 1.8592137903572943 0 -1 1
203 1 2.408932135046067 9.301728032845633 3.754075572054573 -1 0 -1
559 2 1.2798295153891939 8.61523750400691 3.189241563121678 0 0 0
716 2 -0.24837493753442386 10.349447752559236 3.346867201337975 0 0 0
98 1 -0.6722148928520544 7.474733065967616 1.7403691193697486 0 1 0
272 1 0.3452428844661857 -0.9258419538305387 2.223771664368962 0 1 1
924 2 8.329510996995173 8.303515698261165 5.1439090708297055 0 0 0
15 1 3.5982992162164935 11.63758974084538 4.311097716468671 0 -4 0
170 1 6.937941186755021 9.769864878712491 0.011817681326781848 1 -4 0
110 1 4.829757562823284 11.08081750787874 0.42335466094983354 -2 4 1
197 1 4.817078095415211 11.1583026137843 1.1945152783281245 -1 3 0
112 1 7.543937624811704 10.173384143943332 -0.017432885391509778 0 2 1
257 1 5.966288708187161 11.183789937367804 4.367770592900592 0 1 -1
215 1 8.488294272403742 8.527091541382026 1.1773145069382922 -1 1 0
181 1 11.470263394333585 8.390023299712318 4.398417096156563 -1 2 1
27 1 8.194033051652916 11.159497700298068 2.1861906180781876 0 2 1
217 1 10.213481565262354 7.1530360928341015 0.7104763025253322 0 -3 1
810 2 10.98649062878909 10.29851510849914 1.1345453318987495 0 0 1
13 1 7.61975729697625 7.969584028471566 3.998818049756589 0 0 2
711 2 10.081952630002142 10.761016895878058 -1.0092407171115212 0 0 0
784 2 1.364497760812665 0.2195967558697216 -1.001664126993897 0 1 1
121 1 5.413582730189491 5.077362226934551 -0.41136294835304976 0 1 0
293 1 4.729119272011929 5.385636676458235 -0.49767326430858116 0 1 1
675 2 9.529817406112024 11.80371624033724 2.303783881433999 0 0 1
222 1 3.9517603913618915 8.824884219180218 4.9921430746589595 0 2 0
460 2 4.712086874556063 7.595527358968651 5.300257819246071 0 0 0
165 1 6.300690022849226 3.1315782640161567 -1.09430460575529 0 0 1
198 1 8.776786239252765 10.050151760334117 -1.01461469493507 0 0 1
986 2 0.9581010426860876 0.3857957543594053 8.152622060554826 1 0 0
828 2 1.1534444350898263 2.702913315861741 8.834569354221472 0 0 0
421 2 0.2266213692596808 0.2952660377968508 5.953033332894093 0 1 1
973 2 -0.05761663144119078 2.913010358461519 10.7744002257269 0 0 0
697 2 -0.7175463741650548 0.8175353652649711 11.37946084721602 1 1 0
972 2 -0.8681641314504538 -0.41228335677877004 9.424592804720964 1 0 0
526 2 2.6966300129139076 -1.1042978169802526 8.845928932223941 0 1 0
714 2 3.457609593349078 2.4212269449670365 8.699966792375067 0 0 0
858 2 3.5015658875906546 2.169697330384606 6.36201868841629 0 1 0
889 2 3.7974798202362425 0.5937076406650066 10.081403672199142 0 1 0
433 2 6.78874398519232 1.3304761654567092 6.787659954973282 0 0 0
966 2 6.051889422156004 -0.2836644382620015 9.850243647794688 0 0 0
813 2 4.878825798567249 0.2920419001139858 6.01937830365644 1 1 0
673 2 7.417628080308994 1.4111660800329018 9.048279810535927 0 0 0
708 2 6.854575261688065 3.5573739693770907 9.999769893537914 0 0 0
311 2 9.785139118740773 1.1631321884981167 8.913090118707633 0 1 0
315 2 10.77311881642621 1.2313086519187921 11.260092179388367 0 1 0
951 2 9.802554750231115 -0.8273110470320876 7.250384911326984 0 0 0
605 2 11.044483653276544 2.8392491992144784 7.982943262252899 0 0 0
733 2 8.564759224664177 0.4400268759431134 5.560467296610446 0 0 0
661 2 9.602541508914891 6.374733890887116 5.506477350267932 0 1 0
900 2 0.5669970576677532 3.879671699588645 6.729770585235991 0 0 0
616 2 -0.22760136244435714 7.083556050093616 7.954265600898166 0 0 0
522 2 1.3584932472071798 6.168851388813579 6.494327340179459 0 0 0
337 2 9.987878301880295 10.604612074265646 7.707731418398643 0 0 0
364 2 3.209543563185181 3.8168779710383074 11.977794199198627 1 0 0
974 2 3.662463050705248 6.06889971056152 6.655268762878017 0 1 0
868 2 6.902128714836708 3.619018924113681 6.280739118026486 0 0 0
753 2 4.556194559540161 4.07052699432928 10.118360663393391 0 0 0
371 2 4.446986577745415 6.034967902818921 8.920464933815273 0 0 0
737 2 6.61486255083063 6.867219711493062 8.411931308756298 0 0 0
929 2 4.608565218561085 4.070891947581034 5.575097489607788 0 0 0
500 2 3.8006677625234255 7.850847215148699 10.558408892721902 0 0 0
261 1 11.080558436107985 9.75741312377277 10.885438266442145 -1 1 1
735 2 7.829045656691026 4.765750579597918 8.164806302313494 0 0 0
800 2 9.98264294341879 4.8076219544940955 8.691337322113862 0 0 0
854 2 10.821079755729848 6.59756422303954 7.3992121705761456 0 0 0
473 2 9.587765712655338 5.2337585045237045 11.13506189341829 -1 0 0
507 2 9.236630090799544 7.541640709959903 11.330769732792245 0 1 0
620 2 -0.41297707369316017 11.787264528309302 9.2284084561686 0 0 0
527 2 1.236007916959014 11.506886280620819 7.4735702343207 1 0 0
851 2 0.006289207923883211 7.8723741329654935 10.009332309418816 0 0 0
335 2 1.886587583437914 9.156634271662726 10.53927114800714 0 0 0
825 2 2.5062990911652783 9.982804401035677 8.515229534444494 1 0 0
847 2 -0.24831034905991267 10.78341059264655 5.690711407028189 0 0 0
280 1 3.0119137522191703 8.81638155893754 7.655667900697441 0 -1 0
396 2 6.507401461907383 8.335976456703097 6.563910533499265 0 0 0
863 2 5.607399703747263 9.248832485480582 10.542425521465363 0 0 0
633 2 4.67066964080562 10.734091944722795 9.129041112723481 1 0 0
980 2 6.212845623044368 10.450927424272207 7.426589708416133 0 0 0
496 2 6.859748888088542 11.571920741227032 5.600128868009589 0 0 0
505 2 7.536765322266218 8.454094457398444 9.893674768291486 0 0 0
556 2 -0.29539789862665056 6.372554035467602 11.950273810432861 1 0 0
988 2 11.24565780014211 8.27090075919835 10.469762578053098 0 0 0
611 2 7.988998846937163 10.587403980082907 8.99746814655995 0 0 0
444 2 11.439974333202006 8.764402884014581 8.237730728451185 0 0 0
436 2 8.964313598566946 10.484527045337831 5.464971113273516 0 0 0
378 2 0.812839557907056 0.4190888488459308 15.236518633066579 0 0 0
543 2 -0.20182667355218908 2.478349834534601 15.723268056008651 0 0 0
316 2 1.1418360599302453 0.14319608988451082 12.898572770582527 1 1 0
598 2 -0.3129405055534822 2.5684007895855663 18.022042750101896 1 0 0
767 2 2.893823503359009 0.7307572076700839 16.180944452808433 1 0 0
718 2 -0.7929019504294408 -0.913628585384206 16.518601735059015 0 0 0
789 2 3.242696237748242 3.1500723768015515 16.947686806417558 0 0 0
310 2 3.043658137089233 1.4993762671112028 12.20169858687204 0 0 0
664 2 4.084671735695731 -0.3532965750029574 17.840837634571955 0 0 0
942 2 4.248662921767722 0.6634535982102241 14.035198979752781 0 0 0
308 2 6.279027063553382 1.181333700326249 14.938598271474872 0 0 0
493 2 6.2738176691996115 -0.29879031171949433 16.991618205540398 0 0 0
812 2 7.825202812077112 0.1559765845289074 13.433933254268014 0 0 0
721 2 9.236017400042932 1.7876351127948076 12.916250079198784 0 0 0
607 2 10.365755320073692 2.7203031525108172 14.75734193938618 0 0 0
539 2 9.835423470784773 1.6997095924020305 18.10336108128611 0 0 0
910 2 11.729894939162795 0.6756510639814637 17.623268850730817 0 1 0
471 2 9.045303099015934 3.258904277652591 16.631875869062277 1 0 0
288 1 8.681162047290881 -0.833380889005733 14.209988339483083 1 -3 0
231 1 10.810325319406184 -1.0753530193688903 15.01408779237108 0 -1 0
403 2 -0.4737783548173834 6.170011321561244 15.703507502730895 1 0 0
576 2 0.6941962661669288 4.40918560802682 14.704053455368703 1 0 0
365 2 -0.05552995585957965 7.151190809384985 17.691744860711417 1 0 0
509 2 2.8340705588558563 4.825963554290345 15.445065051335805 0 0 0
572 2 0.9422542184226628 4.391743051454814 12.302891484147853 1 0 0
839 2 3.5027678607743544 6.71014208210368 16.925462665339623 1 0 0
642 2 6.786654540584052 3.2126441967229464 15.86119375589377 0 0 0
608 2 5.507939608341418 3.787252500523418 17.700509322870722 0 0 0
941 2 3.8191133673090842 6.931495078745842 12.819400883420597 0 0 0
542 2 4.395022606670528 4.837924049492981 13.622014553650644 0 0 0
968 2 6.7841645247734865 4.57818542084471 13.98796764781823 0 0 -1
377 2 5.652933159954929 6.1249823420163985 17.68552742225571 0 0 -1
439 2 7.349027408844091 6.930768199500273 14.470234309584026 0 0 1
354 2 7.739247357634053 6.942278752483851 16.64039439177931 0 1 0
552 2 9.449045953835222 5.4440176404786484 17.35584815640896 0 0 0
498 2 10.8470677692916 4.938088700583483 14.401194443752663 0 0 0
240 1 9.645260941639805 5.796410188341991 14.206149256842004 0 2 1
618 2 11.42735188322883 5.9332951002263385 16.458539993444965 0 1 0
761 2 11.705751431307927 5.173480509014162 12.153772458276404 0 0 0
333 2 -0.9584720526338821 9.724220295849006 13.703087239968623 0 0 0
705 2 0.10865279800363714 7.646820419385067 13.860556730355267 0 0 0
946 2 2.2672785949853087 8.409475033414921 13.596942096102763 1 0 0
944 2 0.38466776096704747 11.52503894087243 12.912046578408248 0 0 0
392 2 2.364604013505342 10.467919038046443 12.441664792668348 0 0 0
569 2 4.344517687530811 11.793911108012741 12.4688150556102 0 0 0
404 2 3.3604908872009744 10.701223409619818 16.764981739359584 0 0 0
809 2 3.6171688612691035 8.664741946295603 15.55802948145668 1 0 0
747 2 5.7778327781275935 10.03648570770513 12.83487465213206 0 0 0
540 2 5.340436876701163 8.118439977693006 14.121131108882443 0 0 0
36 1 9.710832003203276 11.57726771853099 15.809547491813989 0 2 1
859 2 8.050438244132074 3.7009120104409545 12.008799656761717 0 0 0
472 2 9.00247350797892 8.384975552333929 13.316092079984388 0 0 0
71 1 8.398456126649144 9.349548212822382 15.871277637656531 2 0 -1
936 2 11.271136289055422 8.938456728598277 14.350212377668276 0 0 0
921 2 10.67621827826828 8.999311712363976 18.046265618702428 0 0 0
907 2 11.292886642592821 11.172925697772813 18.38171432450487 0 0 0
533 2 7.9833750787937685 10.686444822950175 13.2284953224334 0 0 0
660 2 8.3628227309607 10.926872731267029 15.489435425648116 0 0 0
422 2 8.232269276977364 8.769131938185588 18.015639119776168 0 0 -1
830 2 11.945275893530924 11.342150011760893 14.57532355919397 0 0 0
453 2 -0.9944156364578929 9.2732469403642 17.87563008922185 0 0 0
534 2 -0.2413801528831263 11.364601622763232 18.53427799197248 0 0 0
432 2 6.804239973465792 11.976388323555042 16.825282008393927 0 0 0
446 2 6.798856802870184 10.427732545624389 18.527834159267705 0 0 0
301 2 2.310166559080803 2.2053713789148848 20.751505264780306 0 1 0
751 2 0.44487608982020865 2.137226902150678 22.056883250100526 0 0 0
482 2 1.2300423215719394 2.3376833214313906 24.281713216683784 0 1 -1
234 1 11.559309000400278 1.9863259468218253 22.867274224196287 1 2 -1
162 1 8.979202786294826 -0.6782222346670379 21.062713212098714 1 -1 -1
435 2 1.014059167020628 -0.9513688303066682 19.720919970070227 0 0 -1
805 2 -0.6891303502689101 0.25715428124149464 18.636392221158374 1 1 0
46 1 3.9873542750458304 3.6325709089744045 25.08349625519464 0 0 0
940 2 3.1367141489627883 0.1636967412800141 20.120909833090813 0 1 0
835 2 3.3528055082124135 3.147951135239154 23.819257598411063 1 1 0
41 1 4.285829681168952 1.9745284435672765 23.280392153919742 1 0 -1
40 1 5.337764063723483 0.3096519733837022 22.417756034749708 -3 5 0
504 2 6.272928860629227 2.345896027408912 19.491208658274523 0 0 0
211 1 5.24007752171627 1.496131930031404 20.185763058809876 1 1 0
987 2 4.237645883172654 -0.5993428143016274 22.093002129776075 1 1 0
123 1 7.124321636125462 3.1420343374541897 22.564890418417875 0 1 0
801 2 11.334068195326731 10.165482545296022 23.317397687369244 0 0 0
23 1 11.880218629745857 2.698130678425427 20.26279906156197 -1 -1 1
171 1 10.26972852430239 1.4090067137738789 21.128194003599333 -1 -1 0
898 2 10.418604905962043 2.54272988412395 20.219585977123998 0 0 0
693 2 5.141332191879219 11.809895720482038 23.62921269329123 0 0 0
672 2 11.618480406215555 -1.084886917632995 22.64029157321643 0 0 1
76 1 8.649424081981367 0.6721446196423706 23.591112426818903 0 -1 0
29 1 8.207667676828024 0.7613628934977383 24.22772175534157 -1 1 0
56 1 10.53003163558459 -0.1333251775461891 22.149072208903682 0 -1 1
621 2 7.99787390085009 9.062246509085487 21.987229275786746 0 0 0
873 2 1.7742223976451656 3.2404779033973394 18.805259624876726 0 1 0
590 2 0.32622478496016494 5.963894777501129 23.858247082974962 0 0 -1
734 2 -0.3763980445752043 5.773151629757272 21.15045787277851 1 0 -1
778 2 1.718962884823413 5.196921410452022 20.151319818877255 0 0 0
420 2 2.5204867629263887 6.442013769774752 23.232787822959217 0 0 0
628 2 2.0837370519986202 7.097398886815203 18.751491385428636 0 0 0
373 2 10.270223952536686 8.57502575733118 22.091537161429635 0 0 -1
152 1 6.344683423334205 11.922399775543143 24.38989547471052 0 0 -1
431 2 3.29721197868143 4.5546736691261 21.912918679929177 0 1 0
105 1 3.488379029671661 6.257719689477514 24.520478283704605 1 0 0
976 2 7.05279630080301 3.75275616577097 21.24901654607664 0 1 -1
861 2 5.428022048511674 5.41682626390184 21.40585872990473 0 0 0
860 2 5.44913149876809 7.01439855390362 19.778168960197853 0 0 0
44 1 5.851801733684609 6.629700817534663 22.470640648513097 1 3 -2
464 2 8.393611227034224 -1.1107166629193537 19.709253162632585 0 1 0
382 2 7.632448037754067 7.692978152887552 20.192851060494668 0 0 0
201 1 9.981928647276641 4.699610859608824 22.62034903739344 0 -1 -1
565 2 9.318109721445605 4.367408981108947 21.27471698398905 0 0 0
307 2 9.234217199368901 6.084551881645769 19.64271976815435 0 0 0
19 1 9.43975717729994 6.026117947031685 25.07482006694383 0 0 0
72 1 10.318861624848134 7.19477700634741 22.927140907331776 0 0 -1
263 1 9.572593886602615 6.151200136172214 24.378563692082842 0 -1 1
792 2 0.46481687662770943 11.521699344112818 20.87293075956601 1 0 -1
703 2 0.7141591375632752 9.576833342103944 22.151058894326354 1 0 -1
838 2 2.804541512085668 8.601265500004962 22.19190628095869 0 0 -1
494 2 0.6238528757927047 9.85251669213726 24.616291953024344 1 0 0
768 2 -0.6670516588913795 7.850114954892252 24.96540920235013 0 0 -1
785 2 -0.9353045193990805 8.139276272541938 21.33911977626854 0 0 -1
395 2 11.036275223617503 7.8261299306049565 20.050993010262246 0 0 0
205 1 4.064943988705427 9.004721475294906 24.897751759391923 0 1 -1
632 2 7.611496445183613 11.11298375732155 20.67135899641213 0 0 0
151 1 6.506649862879298 7.722151863198523 24.70931993842722 0 0 -1
864 2 4.322088137949668 10.296543147322485 18.785148056047987 0 0 0
867 2 4.516765271999441 9.525823408424907 23.54362473948148 1 0 0
794 2 6.408553258089176 8.09694166028945 23.327195626310846 0 0 0
902 2 3.49894526970541 8.481983901767848 19.908983702723695 0 0 0
142 1 6.434591316474354 3.107523911933577 24.40063979731822 0 1 -1
285 1 2.480999459385343 11.669155457030978 24.774363510369213 0 -4 0
14 1 11.894543604227914 5.033907373998481 24.84485958115527 -1 2 -1
617 2 7.7732214294214135 0.7979736554371555 18.580100687428924 0 0 0
126 1 -0.17143645882809877 15.035587358516041 0.5808213796554453 0 1 1
531 2 1.9126486031631842 13.046088555291327 2.1160141842297473 0 0 0
1 1 2.5326941538694347 13.935816755663705 1.1429700192803085 0 -2 0
909 2 -0.29570953911283293 12.29884669798067 1.9222505122795668 0 0 0
279 1 2.2613897669350553 13.781275072106238 3.5173577756074943 1 1 1
995 2 11.885950737033141 24.817845662578435 3.0436252181909484 0 0 0
139 1 2.310320075691297 16.54573222209406 0.5560524052231148 0 1 1
667 2 2.551795821679653 16.449324427120374 -0.8542293265065821 0 0 1
901 2 3.3356637428115192 12.929002687207948 4.801802701191804 0 0 0
174 1 4.088926367457842 13.463366665427317 -0.19285197203203874 0 -4 1
255 1 4.445971020530816 13.732930432704585 4.310469124139383 0 -1 1
180 1 5.665283504999565 15.483831966241391 4.960688619567755 0 0 0
282 1 5.32984760543401 17.045683462370484 2.6597592553247087 0 0 1
83 1 5.003293197436183 16.365059391478823 2.717962110234691 -1 -2 1
111 1 5.855961228901319 13.324671104113504 1.812218326963917 0 0 0
119 1 6.3164342433969285 13.248304318330375 2.3678864737520984 0 3 1
349 2 3.7803402274872946 20.65654442074993 -1.0913440110276982 1 0 0
290 1 9.274179250782954 13.030889386952742 1.4285114377277548 0 1 0
63 1 11.309635110340636 15.402052839689139 1.8467063942672106 0 0 3
188 1 10.877002173148401 13.965449598142309 -0.33270334604837437 0 -2 1
766 2 11.86493083325617 15.787336868696476 3.168342672159106 0 0 0
579 2 10.017516499440607 16.159853512326137 4.520811881704136 1 0 0
243 1 11.414518109321126 20.02279397446174 0.2926205445454577 -1 -3 1
743 2 10.341499518659308 12.037326960716456 4.445890133876499 0 0 1
245 1 8.43415111191543 16.41228887502954 1.9067094866822942 0 2 1
207 1 8.442706624073285 16.110244931818357 2.628542918128889 0 1 1
275 1 1.7169025184908144 16.1591673422909 4.062231847755498 -1 -1 1
195 1 3.8306015639210518 22.157191000078683 -0.8431286789436492 0 -3 1
489 2 0.44998162434774747 16.5003296585432 4.782726118082729 1 0 1
369 2 1.7705536411273064 19.6804630511035 3.5198250717936244 1 0 0
905 2 1.4368772754849335 20.161174943830495 -0.6570086712172957 0 0 0
585 2 0.5538887932753311 20.075862385108785 1.5786375518769349 0 0 1
566 2 0.20636009709097536 18.90958683557281 5.189861006350096 0 0 0
185 1 2.8742060501932487 18.675474365500953 3.4164257422412927 0 -1 0
657 2 9.631371163222797 21.064314954259665 4.772379530944589 0 0 0
154 1 5.830784313079517 18.298005875983904 4.816859833473882 0 1 1
297 1 4.763800075593934 19.91629690771135 -0.25559528454349567 -1 -1 2
17 1 6.091506204592438 19.01980204433128 1.5683054907596121 0 2 1
292 1 6.514061166475297 18.771707939778004 1.09079625543824 -1 1 1
193 1 9.851723419388604 16.747358679427784 0.15633091367697882 0 2 1
283 1 10.358166272339353 18.35656214775144 1.8916436897364521 0 2 1
61 1 9.885292149886421 17.94154389830262 2.401835429121745 0 2 1
445 2 -0.7548537751734193 22.978796194114814 -0.20810769633285997 0 -1 1
399 2 -0.6564398384766315 22.38383560589064 2.0622641888955022 1 0 0
752 2 0.716278453210712 24.111097307491555 3.0939587432000817 1 0 0
340 2 0.4053208018602039 24.21801419412912 5.323889220375583 0 0 0
984 2 2.917796992446565 23.51269644785591 2.779717797692082 1 0 0
208 1 3.111755476440618 23.177230689736497 1.327252014729222 0 -2 0
284 1 5.690290334481133 23.490561474884203 1.4488652569013443 0 0 0
476 2 3.11525845017898 21.5990815445398 4.295672593920195 0 0 0
179 1 5.769338834136231 21.496644798410422 3.0229335172517295 0 -2 1
235 1 7.1865163019255185 19.732256210998507 -0.782565964245975 1 2 0
47 1 5.886423068481587 22.80232756595614 5.2438789919336415 -2 0 1
131 1 3.932596953600525 24.641507649510594 3.0403139642623405 0 0 1
682 2 5.472487346003438 21.535054580727746 4.459845943808782 0 -1 1
271 1 7.269569710661088 20.412963139115874 -1.0354445576722229 1 1 0
108 1 5.361896240922213 23.19433983781235 0.8376796183515398 0 1 0
33 1 5.448545023253145 15.329498705841262 -1.07745144361212 0 0 1
92 1 10.211162428676525 22.4473539089865 -0.6660587396529067 -2 -2 2
93 1 8.37357731367741 24.336272411705913 2.579516267728941 0 -5 0
273 1 8.770019788044166 22.44098397368137 4.495414391353216 0 -2 0
237 1 10.975810287118527 24.128664926654793 2.1750199728977053 1 -1 1
236 1 8.899690003052251 24.750281189705476 2.5390659180097384 0 -1 0
4 1 9.66302745237643 20.315730183817166 3.5589230135813033 0 -1 2
295 1 5.324163395973751 17.49038598275427 -1.0271098536075245 1 -1 2
964 2 1.9739537189332954 14.838085635137526 10.541564072637136 1 0 0
427 2 0.5047837594564328 14.967088879955776 6.702196735623342 0 0 1
912 2 2.3500634305426176 13.620968336245888 6.795121048276428 0 0 0
645 2 0.31765637919395395 13.059148563135492 10.992140341500818 0 0 0
793 2 0.5464630290972716 15.98950666321665 8.803964380754692 1 0 0
919 2 4.060669841540308 15.001745032433002 7.641400984444168 0 0 0
516 2 4.155110354266173 14.845899814952684 9.89717752672669 0 0 0
655 2 6.0365577833352395 15.365749053944215 6.436797611568338 0 0 0
438 2 5.1820188427711305 12.649827013491471 10.54493673968759 0 0 0
956 2 7.461580073788584 12.60937787362781 10.197881176275054 0 0 0
983 2 7.514767464592287 13.699135138174848 6.398245876834051 0 0 1
763 2 8.54743248013168 15.588453772440177 10.74815179746281 0 0 1
324 2 8.309161663168691 14.39207846932841 8.638004936556516 0 0 0
750 2 10.62767700372743 14.49034808000426 7.688102231499903 0 0 0
717 2 11.459162505348774 12.442527437391426 8.154438170649485 0 0 1
970 2 7.986556876773317 23.067349315439216 11.440581784725786 0 -1 0
274 1 9.34810700480522 14.703461624440346 11.564909547504136 0 -1 0
832 2 0.2895703331367929 19.727815157494575 7.359422658397943 0 0 0
440 2 1.2712128740859114 18.034761890826147 8.561319501234793 1 0 0
474 2 2.2252199694200177 19.086137539468012 10.367664029726841 1 -1 0
971 2 0.6299825897098701 20.555817795723883 11.127244967592478 0 0 0
16 1 2.931167974323974 17.195596893204062 5.93275005209349 -1 -1 2
952 2 11.804662475783548 21.56002860903076 5.572491655237999 0 -1 0
538 2 3.3637908040527567 17.301367776120877 7.371608827489599 0 0 0
415 2 5.045970557222771 16.806969423300032 10.855853549060729 0 0 0
495 2 6.240780215801971 17.915208070253456 9.220764522673496 0 0 0
823 2 4.870442322182514 19.086440743996512 7.626157296406207 0 0 0
997 2 5.958689107275914 19.573248645981614 5.6208508682617335 1 0 0
748 2 7.582029993010082 19.660064507568222 10.285550827634857 0 0 0
519 2 3.689145331190554 20.633239831635336 8.918904687063483 0 -1 0
760 2 7.408033625655845 16.700210304899798 7.662580157597898 0 0 1
568 2 8.274850272813506 19.797920495171077 6.28806424698436 0 0 0
346 2 9.15438670289808 17.701214462065366 6.28068428837068 0 0 0
837 2 11.355719165078403 18.01505761653359 7.08532892388703 0 0 0
360 2 10.660075924255437 19.024319802179946 8.967657490923214 0 0 0
772 2 10.077942381567588 17.30292159780889 10.468921582909918 0 0 1
319 2 8.816154969124767 20.32843585757564 8.525957484682332 1 0 0
833 2 11.945559158523702 20.33186872523094 10.438816614834916 0 0 -1
930 2 9.182020638494697 19.031033191138356 11.901964411413498 0 0 -1
808 2 1.8610789544757815 21.42657492181639 7.812981621716807 0 0 0
844 2 2.3386681192698333 23.013458286296228 6.182422761785108 0 0 0
666 2 0.9029877321621065 22.28771859575167 9.708143077753244 1 0 0
317 2 2.655815004109213 23.526037350974605 10.562979028177388 0 0 0
574 2 -1.053874447646046 23.59057187355286 9.7037687485141 0 -1 0
874 2 4.265835495424456 24.604169730099443 7.137685629541844 0 -1 0
546 2 6.383842607091808 21.447857331334383 11.330679301946889 0 0 0
923 2 4.76081220302926 22.45424306697202 9.961480946542798 0 -1 0
622 2 6.027165884563636 23.946667814129235 8.413260054948333 0 0 0
710 2 11.747081533719959 22.517667819986848 9.815748039965023 0 0 0
2 1 11.570957827898873 22.107383547656042 6.900568016487828 0 2 1
321 2 9.320025544997948 22.509490446405138 9.407977679713335 0 0 0
561 2 11.766055870689497 23.610228710335576 11.841691732980891 0 -1 0
643 2 8.224716399653655 23.653539963747058 7.743355831331186 0 0 0
880 2 9.687455244575112 14.023324323155343 5.49949766142557 0 0 0
731 2 6.645781799308948 25.044166355147986 11.900524732727353 0 0 0
578 2 11.864151739460032 13.992167853139788 11.741551469977903 0 0 0
469 2 11.920755871571702 16.294264782049588 11.169232283549201 0 0 0
878 2 0.6187154035352067 13.20175725299557 14.622922539465696 1 0 0
501 2 2.42703993303963 14.814340025251244 14.155761873428396 0 0 0
448 2 3.070121056308996 15.43712601709001 17.74925080953291 0 0 0
744 2 1.7840724550882374 16.223603636313328 12.477686155880148 0 0 0
701 2 9.018647620156568 22.949168875702966 16.505365293505243 0 0 0
634 2 1.3311457620180742 13.844571987710763 18.35369731338212 0 0 0
479 2 4.472434932301976 13.463783898757994 13.899450513309107 0 0 0
780 2 6.642190505541207 14.37096831107062 13.717016662834261 0 0 0
492 2 4.655905656080004 12.469968689323053 16.04421647655652 0 0 0
631 2 4.651122341025611 13.729817935013434 18.066179543294858 0 0 0
706 2 6.884643248761234 16.199703910499146 12.33593085972359 0 0 0
416 2 -0.7099584807729625 20.916182361782205 17.30286893960816 0 0 0
729 2 7.811904652423927 15.328229496835986 15.654015966897157 0 -1 0
658 2 8.124239647104709 13.773955533524052 17.524372159435302 1 0 0
943 2 10.587884949642557 13.020857837856104 13.290785707698888 0 0 0
458 2 8.302834917518988 12.801293229879994 12.499981032205806 0 0 0
118 1 10.41775979989578 14.00188035434098 14.416167817080618 0 -2 -1
116 1 10.021418970273215 15.824950790952412 13.068265382395909 0 -1 0
555 2 11.592816424997705 16.35507501223045 15.83118974605127 0 0 0
727 2 11.009614920107087 15.367388729298893 18.281819894756474 0 0 0
586 2 2.4455411525619004 16.54685710809604 15.654166211766329 0 0 0
345 2 -0.5741391581147175 17.040866822526816 12.78205884747364 1 0 0
920 2 0.4570480708503988 17.480612701453587 16.219063730549344 1 -1 0
327 2 0.6099146784722931 19.7721846303561 15.628117975574513 0 0 0
881 2 2.737954262523444 20.281495740723393 16.59245028437381 0 -1 0
32 1 -0.0008480959006860189 18.240731566554516 13.530483308372817 1 -2 1
759 2 1.4194459543519566 20.868600766558977 13.487869982523929 0 0 0
344 2 0.3146826791577224 17.53192275163876 18.413573173102783 0 0 0
550 2 3.5719048560450837 19.69641465137805 13.418353546428438 0 0 0
662 2 3.8834692876983024 18.459729296732327 15.414417879260148 1 0 0
782 2 5.962203984876887 18.820144742444974 16.55141312642045 0 0 0
580 2 7.188262699459941 16.92289010967918 17.281363076097364 0 0 0
336 2 7.3772809192659174 19.646977177558497 14.950034614489388 0 0 0
348 2 5.529933387086274 20.1521128921545 18.42954019547102 0 0 -1
575 2 9.740820467330018 16.21111437677955 14.44071941515849 0 0 0
571 2 8.232306909498487 17.844489649479556 13.585194423302664 0 -1 0
916 2 11.242055931208236 20.251470840974186 14.867527430080438 0 0 0
908 2 10.012474776144616 19.83650219455849 18.172746111216227 1 -1 0
931 2 9.234076677960536 20.59012476634524 16.100528302161365 0 0 -1
849 2 10.735618799774782 20.570882047948977 12.605479015724327 0 0 -1
339 2 2.4007011123613613 24.209981306931915 12.836879905713271 1 0 0
848 2 1.4366358966736943 22.924507920454673 14.48111780827483 1 -1 0
353 2 0.01737002615980443 23.201393481491444 16.649344219724043 1 0 -1
816 2 5.912161355378502 20.9202939652085 13.551216229844817 1 0 0
342 2 10.395835655918026 23.74840434658517 14.863267236480803 0 0 0
700 2 5.344852778699853 22.862395774488768 14.70552215558013 0 -1 0
320 2 4.6802671624503525 24.711647381533133 13.324555509147737 0 0 0
990 2 3.3780651602024125 22.362786637880056 15.91777459779536 0 0 0
979 2 3.622870441536582 23.656148738701283 17.749687934860653 0 0 0
803 2 6.715007561472512 23.466080892542024 16.590502184507734 0 0 0
879 2 5.5345886207797585 22.532356139261367 18.415070807301277 0 -1 0
975 2 9.853348901127802 22.761763624342336 12.788929952639911 0 0 0
783 2 11.866181399858075 24.752728871113284 18.493453342488444 0 0 0
685 2 10.105685100990168 13.236734148837787 18.472689282983545 0 0 0
895 2 1.2687943030170254 12.149697420627598 16.669876670585396 0 0 0
361 2 1.472750977264575 23.370245436197173 18.550724160717117 0 0 0
536 2 3.281170839530721 17.904167181442958 11.999180972255267 0 0 0