ITEM: TIMESTEP
0
ITEM: NUMBER OF ATOMS
1000
ITEM: BOX BOUNDS pp pp pp
0.0000000000000000e+00 2.1158707884739954e+01
0.0000000000000000e+00 2.1158707884739954e+01
0.0000000000000000e+00 2.1158707884739954e+01
ITEM: ATOMS id element x y z fx fy fz c_PEa
1 H 19.0028 19.7123 4.05367 1.91929 -0.629879 0.390299 -0.436816
2 H 13.252 19.2369 11.332 0.597461 -0.156495 0.447291 0.45486
3 H 5.75599 17.2595 9.88154 0.646057 0.676207 -0.446726 0.13001
4 H 20.2774 16.6606 7.60795 1.24683 0.892498 0.334677 -0.250177
5 H 2.93857 13.9702 9.32128 -0.44617 -0.226875 -0.449908 0.966683
6 H 20.699 20.5001 8.34775 -0.196845 0.3193 0.163725 -0.0521623
7 H 11.2508 18.3561 6.03257 -0.350716 -0.787968 -1.96158 0.591331
8 H 1.04357 6.65445 5.96811 -0.283947 0.258009 0.360566 -0.0927904
9 H 15.609 4.50284 16.804 1.35645 -0.184692 0.58672 0.00975474
10 H 18.8732 15.7028 17.2095 -3.48665 2.70914 -1.44454 0.642958
11 H 13.3379 8.11151 17.0189 -0.283812 -0.409958 -0.0935344 -0.251446
12 H 19.3565 0.670124 1.07684 -0.623294 0.365919 -1.55359 -0.160456
13 H 16.762 15.3631 4.32478 0.739435 -0.608134 1.12423 0.177639
14 H 5.9914 20.647 19.0732 -0.291247 0.450462 -0.0477843 -0.243792
15 H 4.52946 2.58102 16.3733 0.50093 -0.253508 -0.312597 1.1315
16 H 5.32064 1.81396 6.96683 -0.152281 -0.275323 1.39566 -0.103042
17 H 1.15825 18.5582 16.6206 0.360969 0.228309 1.0397 1.98597
18 H 1.3171 5.94672 12.7832 0.71393 -0.434587 -0.534679 0.356238
19 H 3.2854 14.1057 16.851 0.460617 0.141653 -0.974122 1.3252
20 H 9.6078 13.9912 10.3036 0.948449 -1.71346 -0.0638006 -0.505183
21 H 3.62749 15.7423 19.2068 0.877584 -0.0691149 0.406734 0.409322
22 H 12.2686 1.24301 15.3213 1.0394 -1.39963 -0.108657 -0.202128
23 H 3.86039 10.2338 13.2707 0.0736212 -0.0106281 0.373786 0.868594
24 H 7.72937 19.4034 11.6567 -0.89993 0.733794 1.09588 -0.228112
25 H 16.3751 2.90609 4.71136 -0.00330384 1.15678 0.214519 -0.472842
26 H 13.7829 11.1058 0.475598 -2.37411 0.172063 0.23196 0.389344
27 H 16.6409 6.02393 12.5144 -0.661382 -1.48348 -0.696366 0.564333
28 H 0.648423 14.3674 3.88248 0.906391 0.911153 1.14494 -0.320615
29 H 16.4124 21.0958 9.38281 -0.0418127 0.908523 -2.85649 0.1551
30 H 6.26909 2.03561 20.0744 -0.0816096 0.181078 -0.300051 0.185303
31 H 13.2839 12.7102 16.7405 -0.678385 -0.104179 -0.932309 -0.141904
32 H 11.0027 16.9461 2.97382 -1.07006 0.0794277 0.0904309 0.129651
33 H 17.3514 1.448 14.3145 -0.56808 1.77277 2.90164 -0.277674
34 H 17.8323 17.1986 16.236 0.0305379 -0.209518 -0.855883 0.280243
35 H 12.7258 18.8988 15.277 -0.0445274 -0.0459992 0.117384 -0.311419
36 H 18.0883 19.5851 14.4142 1.01893 -2.11839 5.08076 -0.0747954
37 H 1.83559 8.04908 13.0147 -0.441034 -1.79079 0.245764 1.34176
38 H 10.1634 5.35907 4.17134 0.668182 -0.0100975 0.186642 -0.153876
39 H 13.2928 9.53627 10.043 1.04417 1.46844 0.966062 -0.123222
40 H 3.84871 8.21309 18.7659 -0.393349 -0.433078 1.19968 1.23992
41 H 0.00245227 6.6511 2.57119 0.203267 0.121359 1.51577 0.0658954
42 H 7.40059 13.8206 20.8023 0.0677778 0.285824 -0.601462 0.114658
43 H 6.90583 12.0625 18.4982 0.209549 0.530527 -0.626688 0.430366
44 H 17.7285 5.75738 17.1936 -0.526268 0.509552 -1.05978 0.678944
45 H 15.407 11.7125 3.81177 -0.241905 -0.269279 0.150482 2.1233
46 H 12.1996 7.45108 15.229 0.204722 -0.783273 0.427628 -0.274251
47 H 3.35794 16.6911 10.9878 0.472853 1.87917 0.395516 0.0812699
48 H 17.3471 16.1728 19.3174 -0.658175 -0.501952 0.205269 0.508198
49 H 17.8887 2.41649 18.641 -0.353458 0.570829 0.22489 0.0620478
50 H 2.03327 19.9655 2.37059 1.3247 -0.571211 0.115036 -0.115996
51 H 9.08494 19.6254 17.0986 -0.456392 -2.32057 0.818627 -0.820709
52 H 8.76716 8.10645 11.134 0.11649 0.0120962 0.459164 -0.0385296
53 H 11.7676 2.2389 17.4085 -0.399317 -0.828635 -1.82323 -0.0270194
54 H 15.792 7.7297 4.95988 0.0108373 -1.29726 0.0937485 -0.0892113
55 H 15.931 21.0353 14.9908 -0.465182 0.489564 -0.517327 0.69664
56 H 12.1143 10.8781 9.16625 -0.972533 0.206573 0.32835 0.189717
57 H 9.61573 12.4009 16.1528 -0.410206 0.782078 0.922096 -0.477695
58 H 9.18979 9.56828 20.1156 0.00289799 0.566355 -0.0472964 0.132189
59 H 10.2192 19.9561 7.27629 -1.68511 0.10941 -1.40806 1.05505
60 H 16.1685 16.9989 2.24314 3.04466 -2.17531 -0.357233 0.172081
61 H 3.00297 0.710456 10.1249 -0.390743 0.15267 0.0125091 1.06222
62 H 7.64345 12.6661 6.59594 0.0809128 0.358187 -0.526493 0.465219
63 H 18.0561 13.1314 15.3866 0.215263 -0.0612855 0.610556 1.14713
64 H 8.78805 1.46488 12.0661 0.15695 -0.473245 0.16729 -0.0603501
65 H 6.19406 0.223538 6.1787 0.157957 -0.715864 0.109049 0.125232
66 H 11.4785 3.49041 5.37949 -0.351333 0.896039 -1.62429 0.396581
67 H 9.54863 10.7358 17.3773 -0.187042 0.516089 0.508467 0.0592168
68 H 17.1803 0.350187 20.427 1.17435 0.734364 -0.308038 -0.0291633
69 H 19.4936 14.2139 12.3646 1.57707 0.615999 -0.38437 0.95945
70 H 15.672 10.1629 11.7001 0.767783 0.333392 -0.431933 0.841134
71 H 4.93744 1.31485 17.9312 0.353331 -0.461797 0.46001 0.183728
72 H 5.62643 8.38815 3.23288 -0.375567 -1.66772 -0.961155 -0.0451476
73 H 11.1148 9.81934 16.7378 0.538526 -1.10101 1.68275 -0.714602
74 H 14.9806 3.79437 13.103 0.41122 0.2822 -0.150979 -0.495255
75 H 14.7814 20.0293 18.3268 1.19744 1.31839 -0.402478 -0.131963
76 H 6.75287 15.1917 16.7327 -0.810064 -0.016304 -1.2284 1.13579
77 H 13.4019 2.78989 4.52839 -1.09488 1.23769 -0.999036 0.472377
78 H 21.125 16.3993 12.4905 0.0987864 0.382287 0.487853 1.95938
79 H 19.4298 15.1898 20.8562 -0.199155 0.162644 -0.0520687 1.96593
80 H 3.48778 8.88345 3.49805 -0.268123 -1.13402 -0.266514 0.0531448
81 H 7.59907 14.7252 13.7138 0.839589 0.869901 -0.219664 -0.0236541
82 H 13.9774 20.2429 12.8533 -2.0266 1.18673 -1.7268 0.208688
83 H 1.58594 9.79992 4.91179 0.543874 0.771798 0.240883 -0.222327
84 H 6.64528 17.8968 19.312 -0.434234 -0.243978 0.0113448 -0.0409972
85 H 19.3891 4.7713 13.8583 0.61774 -1.3311 0.862583 0.0165407
86 H 10.7315 17.0953 12.9397 -0.439536 0.673666 0.0463882 -0.154371
87 H 0.0525425 6.25782 17.445 -0.0475923 -0.322833 0.694497 0.531266
88 H 19.8766 18.5823 10.3291 -0.580818 -0.820771 -1.26922 0.08668
89 H 18.6887 4.31525 5.73664 0.280156 0.260404 0.461224 -0.778403
90 H 1.79903 3.96078 15.9002 0.0381816 1.03816 0.202527 0.181283
91 H 20.5694 19.3558 2.03429 1.77 1.20281 -0.487685 0.325984
92 H 21.1461 13.2573 13.3172 0.0345767 -0.567247 -0.13409 0.497882
93 H 19.6934 19.9556 15.203 0.547995 0.198784 0.313092 0.339771
94 H 4.80696 6.61651 5.9623 -0.10716 0.285118 -0.699392 -0.20248
95 H 19.5173 1.59319 2.64953 0.489126 -0.496069 1.95104 -0.73412
96 H 9.94771 14.3875 0.543469 -0.365479 0.35463 -0.762259 -0.0191232
97 H 15.9528 13.8713 3.07565 -0.102261 0.294225 -0.174361 0.711176
98 H 16.7119 3.31023 15.4039 1.68926 -1.06984 0.4283 -0.0502859
99 H 12.7567 14.7739 7.32442 -0.373504 0.377749 1.56806 0.582219
100 H 6.36908 20.7157 8.66225 -0.133581 -0.932346 -0.792813 0.162911
101 H 7.80223 16.2632 14.6951 0.295176 0.0287519 -0.0131343 -0.111635
102 H 13.68 16.3684 11.6251 -0.259552 -0.0599795 -0.195085 1.14259
103 H 0.772745 4.47866 17.6116 -0.224679 0.144099 -0.57637 0.341299
104 H 6.2107 11.2098 14.6862 0.178367 -0.0625891 0.140217 0.167726
105 H 4.15793 13.6507 19.9528 0.658516 -0.0190986 0.525858 0.810191
106 H 1.36581 1.99178 6.69321 0.713884 0.368069 0.0435467 0.221394
107 H 13.1733 13.5688 2.42928 -0.436703 -0.949945 -0.0973748 0.155305
108 H 17.1642 11.8965 16.4541 -0.0655252 -0.0219444 1.22668 0.89674
109 H 20.6442 3.45729 15.7241 -1.1223 0.356226 -0.205204 -0.0705745
110 H 19.9134 15.364 3.15018 0.594362 0.696608 3.12106 -0.218272
111 H 13.521 12.9945 14.7101 -0.916906 -0.442144 0.544086 -0.343684
112 H 14.1604 5.3542 14.4261 0.0943312 0.399974 0.272228 -0.103624
113 H 10.1618 5.87822 9.47872 -0.264404 -0.198187 0.241257 -0.359212
114 H 7.07854 1.64043 14.716 0.283962 -0.371415 0.374438 0.213814
115 H 8.82025 0.22611 5.77705 0.719813 -0.74338 0.553933 0.16705
116 H 5.38929 16.9038 20.9279 -0.609693 1.02175 -0.304955 0.277864
117 H 15.6759 19.6645 0.821786 -0.143081 1.03798 -0.136233 -0.370808
118 H 10.9927 2.17248 9.21899 -0.691159 0.915754 1.36026 -0.258813
119 H 2.35454 2.74102 3.52494 -1.99341 1.95649 -4.52694 -0.00462565
120 H 4.14822 3.51432 8.74118 -1.01697 -1.19489 0.40237 0.193028
121 H 5.66889 13.2697 2.64749 1.62189 -1.3698 0.786064 0.326486
122 H 12.723 18.5401 13.4936 1.41467 0.344418 0.628245 0.0557878
123 H 10.2852 6.6877 18.3291 0.46174 0.829009 0.669184 0.317377
124 H 7.56236 17.5926 11.0614 -0.183494 1.13483 -0.942606 -0.0612622
125 H 10.5824 12.1045 13.5945 0.0588152 0.0232172 -0.074716 -0.286923
126 H 4.6142 6.43541 19.1833 -0.740097 0.146653 0.299797 0.374319
127 H 15.4549 11.7596 7.29256 0.865145 -0.198423 1.49867 0.372108
128 H 12.0519 14.0131 10.8763 -0.454896 -0.00067 -0.566784 -0.0605498
129 H 14.8442 6.28664 17.5494 1.44073 -0.317404 -0.677989 0.558743
130 H 7.63176 10.0542 11.393 -0.665259 -0.75879 0.105909 -0.210742
131 H 6.4004 8.87353 19.8573 0.136063 0.515504 0.925361 -0.0687905
132 H 20.225 11.1973 14.1495 -0.168273 0.916137 1.22546 1.7794
133 H 14.8727 3.83286 11.2171 -0.202828 0.68477 0.131186 0.181613
134 H 6.07086 4.40279 8.67026 -1.12489 2.43013 0.998913 -0.504291
135 H 1.34767 4.17296 4.03888 -0.354483 1.7185 -0.114032 -0.367273
136 H 15.4095 17.7959 19.2936 0.104345 0.154011 0.247169 0.183784
137 H 5.608 15.2225 18.999 0.432989 0.8258 -0.565767 -0.240541
138 H 16.2348 15.6811 17.7326 0.859658 -1.12893 -1.39927 0.0128813
139 H 18.9283 15.1638 8.8909 0.460747 -1.99933 1.23229 -0.0778859
140 H 13.0778 3.60285 17.4695 0.215145 0.471685 -0.280782 0.145163
141 H 8.08219 5.70791 3.7665 -0.0709515 0.601624 0.122623 -0.362089
142 H 0.385614 4.21446 7.29742 -0.192276 0.316385 0.0437213 -0.335009
143 H 8.36986 15.9046 9.62147 0.235929 0.409202 -0.29617 0.195855
144 H 17.7956 11.8422 20.0596 0.397428 1.60299 -0.910794 1.63033
145 H 13.6997 19.9654 8.99673 0.534172 -0.534193 2.63615 2.67603
146 H 8.61873 13.3788 14.9157 -1.26063 -1.04165 -0.663012 -0.289246
147 H 7.88363 20.5946 10.3065 0.373236 0.262248 -0.158476 0.163494
148 H 19.5287 0.747666 15.8477 -0.0270713 1.00344 -0.163218 0.242776
149 H 3.41912 8.08339 1.42589 0.850259 0.457434 -0.645636 0.357005
150 H 14.8092 19.3412 4.20443 -2.12317 -1.5128 0.729914 -0.148239
151 H 21.0369 12.6975 4.47788 0.104531 -0.0740363 1.24942 0.442902
152 H 20.962 17.0213 9.62441 -0.102 0.160905 -0.504632 0.881921
153 H 6.73559 18.6534 17.4336 0.496947 -0.322477 -0.552108 0.132975
154 H 0.345184 13.3232 20.0183 0.909143 0.375998 -0.720785 0.903585
155 H 14.179 2.32279 7.74308 4.62099 2.65169 3.10585 1.60659
156 H 2.49452 5.95547 16.3374 -1.12673 -1.73854 0.360349 1.93168
157 H 17.7965 8.21261 6.47944 -0.772327 1.00875 0.131634 -0.126742
158 H 14.2632 10.0733 19.4753 -0.292233 -0.879249 -0.552967 0.214556
159 H 14.2266 4.2187 0.348525 1.06606 0.55482 1.01024 0.254067
160 H 17.3486 2.75727 20.9679 0.604864 1.12318 -0.447046 -0.0893624
161 H 19.4016 4.88153 9.34335 0.232771 -0.74124 0.278725 0.0684991
162 H 5.06538 8.91946 12.4476 -1.91377 0.482275 -0.915737 0.228138
163 H 13.7777 6.06102 4.44669 -0.534265 0.697487 -0.0338211 0.447943
164 H 9.07607 7.39726 15.1585 -0.229856 1.70335 -1.59464 0.207302
165 H 11.9051 6.02731 1.25243 -0.819351 0.320441 0.549293 0.0206953
166 H 7.87486 4.9522 15.0467 1.05648 -0.289301 -0.452147 1.26294
167 H 6.28759 0.940295 0.361601 -0.0866881 -0.00465425 -0.0749871 0.312833
168 H 14.1406 17.2177 16.9442 0.899641 -0.958062 -1.16104 -0.197343
169 H 9.62002 10.7891 15.0386 0.231608 -0.418233 0.692806 -0.0490794
170 H 10.1765 7.81596 20.606 -0.143369 0.205272 -0.104596 0.0298372
171 H 11.9212 19.693 2.38075 0.295498 -0.243696 -0.440065 0.171139
172 H 4.12876 18.7867 9.11898 -0.20285 0.447936 -0.4242 0.268525
173 H 16.1802 7.37666 18.0842 0.0492563 -0.462505 -0.542895 0.888688
174 H 11.5379 1.21011 0.534203 0.0712612 -0.0890091 1.6869 -0.115645
175 H 5.69412 12.4866 7.12096 -0.993694 1.17295 0.252752 0.0349202
176 H 16.6352 6.35122 2.64889 -0.176524 -0.0765686 1.0125 -0.0949948
177 H 13.1701 10.202 6.71972 -1.55577 -0.861453 0.537117 1.00421
178 H 18.9807 20.6133 19.0552 0.261284 1.52412 0.455397 0.803551
179 H 20.1885 12.0309 2.16584 6.00982 7.77622 7.05196 1.28387
180 H 11.3845 14.4357 19.357 0.469382 0.199693 0.575948 0.275846
181 H 1.24461 17.7472 5.53927 1.02527 0.886827 0.32228 0.0933769
182 H 8.18218 16.3532 19.7698 0.193726 0.357907 -0.175378 -0.396171
183 H 17.5809 6.53657 7.57654 0.876549 0.508835 1.56719 0.19708
184 H 2.43162 14.0432 0.71912 1.2339 0.497742 -0.289154 0.452649
185 H 15.43 0.782959 2.80856 -0.386009 0.799757 -1.6152 -1.04588
186 H 8.94651 8.71597 2.99216 0.327891 -0.376724 -0.701768 0.134628
187 H 0.580496 15.8967 19.1003 1.23364 1.04301 1.73512 3.48562
188 H 20.9054 9.12309 18.685 0.381992 -0.835929 -3.17371 1.69882
189 H 4.0291 3.48023 3.69863 0.655488 0.90657 -0.228512 0.367714
190 H 6.42303 14.0487 5.13777 1.48557 -1.10034 0.0266871 0.498442
191 H 18.2154 9.13479 2.32785 5.05026 -4.94682 9.05819 0.657251
192 H 18.2954 8.36258 19.3663 -1.55052 -2.04239 -2.09752 1.09335
193 H 7.86016 7.1034 18.0974 0.826933 1.47167 0.348421 0.0325666
194 H 19.3885 17.0039 15.3223 -0.14828 -1.25087 -0.00604675 0.290874
195 H 5.44694 0.33017 14.6017 -1.09486 -0.99629 0.01292 -0.244922
196 H 9.09278 13.5404 7.49605 0.922747 0.336427 0.337644 -0.099192
197 H 4.47791 20.6707 8.90201 -0.19861 0.667895 0.555696 0.845321
198 H 2.54239 1.12944 4.71048 -0.153268 -2.00239 0.87096 0.0161269
199 H 8.78863 1.12743 15.1594 1.79827 0.0218264 -0.302967 -0.223755
200 H 2.32112 18.9136 10.9898 -0.503184 -0.465656 -0.748308 1.51176
201 H 8.61741 1.97316 6.31501 -1.47081 0.589286 -1.19614 -0.418426
202 H 3.92162 17.97 0.813957 -0.950656 0.0121217 0.15185 1.05729
203 H 11.1753 7.27472 5.09855 -0.718639 -0.161788 0.00788042 -0.0244652
204 H 15.7307 7.66978 13.3666 -1.66433 -0.961471 0.20205 0.389826
205 H 2.57646 10.1309 19.9301 1.72237 0.305863 0.829694 1.21928
206 H 14.6957 1.39725 14.9959 -0.898931 -0.206233 -0.0736611 -0.122333
207 H 15.7469 1.05696 12.0913 -3.48237 3.85579 -0.361682 -0.359381
208 H 0.0780489 12.7079 6.65001 0.86318 0.89437 0.088748 0.0744146
209 H 14.7385 5.9213 11.7467 0.466983 0.842801 0.211213 0.173918
210 H 16.1942 5.43804 10.3956 -0.435231 -0.641618 -0.663984 0.0984035
211 H 0.0792283 19.7053 11.4941 1.04194 -0.950515 -1.08567 1.6238
212 H 18.9571 7.83473 4.24243 -0.406141 -0.800273 0.0211396 0.0077079
213 H 15.6267 1.41084 19.9394 0.0163915 0.188302 -0.32092 0.0294898
214 H 18.3136 13.8621 0.943861 -0.0973688 4.41224 -0.804616 1.61167
215 H 2.36153 16.5797 1.09841 -0.440515 0.147175 -0.0702734 0.216008
216 H 0.881846 2.75791 14.6365 0.215567 -0.707133 0.027319 -0.431594
217 H 4.91252 19.0498 17.0869 0.507516 -0.713712 -0.23384 -0.129587
218 H 10.0269 16.7676 6.19316 0.52513 0.380014 -0.379598 1.16608
219 H 19.9794 10.9741 10.6163 -0.515947 2.06941 1.1319 1.10891
220 H 12.9504 16.0285 15.9389 -0.00550015 -0.345864 0.01892 -0.116994
221 H 6.55631 15.9627 1.02431 -0.0546697 -0.711962 -0.405554 0.00180449
222 H 19.7536 6.53046 5.26369 -0.220587 -1.26562 -0.0117231 -0.196436
223 H 0.82129 18.7313 3.14006 0.176586 0.235629 0.731801 0.312308
224 H 9.31673 2.63738 19.2248 -4.17971 -0.988948 -0.885939 1.31417
225 H 6.36884 11.6939 1.89291 -0.40286 0.704518 -1.98709 0.129761
226 H 6.95955 5.99377 19.831 1.66287 0.276166 1.09524 0.0652891
227 H 8.45126 0.976048 18.3985 -0.363805 -0.658575 0.0796101 0.25338
228 H 14.9529 15.1054 7.47372 0.0172843 0.583428 0.64399 0.653925
229 H 20.5064 0.908598 5.27723 -0.529202 -0.2467 -0.711873 0.749705
230 H 8.24486 18.5368 13.3566 0.950561 -0.252739 -0.0936737 -0.283908
231 H 8.47682 2.76556 16.2973 -0.421574 -0.128012 0.409497 0.309753
232 H 10.683 18.6186 15.5203 0.158082 -0.840979 0.20991 -0.392876
233 H 10.2429 5.80935 20.784 -1.63084 3.57311 1.21861 0.42024
234 H 17.3736 20.4543 7.0176 0.581886 -0.518001 -0.143817 0.184132
235 H 18.5735 16.9633 6.18124 0.923409 -0.952342 -0.334862 -0.418755
236 H 11.2868 20.8491 14.4005 0.279617 -0.340693 -0.268492 -0.425708
237 H 11.441 13.0165 17.4286 -0.278459 0.295683 -0.262059 -0.296182
238 H 6.69886 19.4333 20.4219 -0.456014 -0.112648 -0.305083 0.288872
239 H 19.0741 7.19817 17.6002 0.688496 0.808256 -1.30823 0.454551
240 H 4.13935 6.03067 10.8938 -2.31689 1.82933 -1.2181 1.02135
241 H 16.3434 2.23312 8.24509 -0.352641 0.677837 2.17618 0.170957
242 H 11.1361 12.2521 7.99481 1.55767 0.695949 0.339193 0.107114
243 H 6.28516 3.50583 11.1454 0.015813 -0.920523 -0.628634 0.155048
244 H 19.6902 20.1326 0.403366 1.90939 0.0880504 -0.566261 0.282152
245 H 12.4777 20.6561 3.93137 -0.121211 -0.283393 -1.19188 0.602369
246 H 5.42529 8.77603 15.8385 0.591127 -0.0810262 0.0183643 1.85279
247 H 14.162 16.4608 19.1737 0.382521 -0.72505 -0.310808 0.0881724
248 H 0.589334 16.4311 14.4499 -0.200672 -0.865814 -1.61841 1.90668
249 H 10.3881 5.05764 13.5712 -1.12326 0.47575 -0.151141 -0.0158097
250 H 8.72416 8.75803 7.58992 0.235537 0.239956 1.30447 -0.50902
251 H 1.73848 20.6905 11.3938 0.540717 0.779072 -0.721975 0.578078
252 H 16.3294 2.71295 10.7294 0.385909 0.298421 -0.579349 0.0952471
253 H 6.63466 7.85056 4.96499 -0.447602 0.0911845 1.54774 -0.487283
254 H 18.5445 11.4765 7.71706 -0.226757 0.630827 -0.00153315 0.277114
255 H 4.06761 13.202 15.2773 0.746453 -0.0665206 0.147875 0.346497
256 H 14.5947 7.70105 3.07598 -1.53617 -0.811765 -0.213635 0.0389016
257 H 7.40819 14.4945 2.35423 1.06797 0.306866 -0.00157399 0.525517
258 H 3.12891 7.66489 5.74162 -0.0478105 -0.272712 -0.202272 -0.357441
259 H 16.298 18.7384 17.5222 0.898567 -0.994324 -0.516947 -0.0486463
260 H 0.930686 13.1817 17.1119 0.847928 -1.60609 -0.434569 1.61557
261 H 4.14751 11.6178 8.5363 -0.00774788 0.209145 -0.19997 0.831147
262 H 6.74542 2.855 7.51507 0.457551 0.31718 -0.97015 0.000677251
263 H 7.98215 13.9193 9.34203 -0.0274013 0.0861437 0.118171 -0.0942571
264 H 1.61836 8.69189 10.5769 0.698204 0.669244 0.320212 4.63138
265 H 16.5199 13.3034 8.09675 0.607472 1.40602 -0.559398 0.0545092
266 H 8.78067 4.70832 9.24127 0.0208218 -0.916869 0.672164 0.00826855
267 H 9.67219 6.33315 6.75171 0.159189 -0.082092 -1.7151 -0.504132
268 H 3.21835 3.68646 12.9753 -0.36008 -0.471105 0.578265 0.027462
269 H 10.0644 10.9504 1.31638 0.878798 0.464578 -0.808522 0.643821
270 H 14.856 13.3402 8.87261 0.459599 0.189368 0.664756 0.115621
271 H 8.92198 16.9335 0.294825 -0.833237 0.160465 1.31498 0.530228
272 H 9.78418 11.3401 4.85396 0.096872 0.437532 0.219285 1.01384
273 H 17.9575 12.594 18.2412 0.706484 0.507022 -0.209515 1.04493
274 H 21.0053 3.5102 12.6293 -0.308073 1.30684 -0.213419 -0.110911
275 H 6.33797 9.31194 8.83556 -0.217321 0.157614 0.0395228 0.545537
276 H 9.00544 14.1267 19.8883 -0.233055 -0.20774 -1.26353 0.200393
277 H 2.04485 12.6809 15.5762 -0.170751 -0.520245 -1.27841 0.857573
278 H 2.42862 2.91241 20.1041 -0.0536346 0.518716 0.619936 0.138528
279 H 5.5208 17.4625 13.3423 -1.34589 -1.02081 0.150258 0.184303
280 H 2.0868 11.0626 13.5122 0.674138 1.06631 -0.243276 1.8339
281 H 15.5898 0.129959 7.77085 -0.342783 0.819003 0.906537 -0.200502
282 H 5.58312 3.12454 4.63011 0.754617 0.416379 0.166718 0.164841
283 H 7.74817 14.9885 11.861 0.799345 0.922192 0.267177 -0.446063
284 H 16.8614 17.532 5.00065 0.51135 0.371298 -0.101666 -0.278807
285 H 7.31315 9.24945 15.5703 0.209774 0.600618 0.498318 -0.0127435
286 H 17.2971 3.03449 2.97347 -0.376696 1.01051 0.956734 -0.394391
287 H 13.0032 11.3609 18.6861 -0.107975 -0.0516271 -0.0893953 -0.377789
288 H 7.74752 1.73066 9.05189 0.593916 0.34625 0.0325691 -0.263445
289 H 14.6897 15.4248 1.80473 -1.66128 -2.24927 -1.72019 0.152404
290 H 14.0142 13.1256 12.7207 -0.407178 -0.0974072 -0.00252576 0.0909863
291 H 10.7772 20.4538 18.8336 -0.420247 0.445831 0.291017 -0.431734
292 H 13.9685 5.83022 20.534 0.112052 0.538174 0.395602 0.399859
293 H 19.9515 18.4657 20.3307 0.589856 1.8226 0.0458258 1.79834
294 H 20.0272 10.5099 16.9598 -0.327306 0.270278 -0.487237 2.43749
295 H 14.577 3.82587 15.4482 -1.68038 0.342325 0.21648 -0.263005
296 H 12.2939 16.4443 19.3679 -0.0566437 -0.179001 -0.248194 -0.0450858
297 H 10.4051 17.1915 16.9052 0.380646 0.909235 -0.108121 -0.276545
298 H 17.7107 16.6034 8.17301 0.247487 0.862451 0.869281 -0.0788466
299 H 10.1938 15.1681 17.8588 -1.04127 -0.339981 -0.169213 -0.17279
300 H 10.5442 15.409 9.32791 -0.016565 0.171026 -0.262849 -0.0219141
301 H 16.8034 11.758 10.6948 -0.514829 -2.72399 -1.57147 0.446086
302 H 10.2673 18.9468 11.4453 -1.32079 0.177093 1.18128 0.139302
303 H 1.28646 6.17897 14.5744 0.156149 -0.560576 -0.101811 0.667104
304 H 6.63852 19.4066 14.5384 -0.597961 -0.515547 0.875426 0.0528669
305 H 4.63221 15.9364 15.4642 0.655947 -0.68595 0.385334 0.397357
306 H 16.7404 3.87302 7.02195 -0.340385 0.886153 -0.395247 0.124661
307 H 18.9156 0.346377 6.25638 0.349633 0.236263 0.834181 0.089486
308 H 3.13376 15.4961 3.18254 0.158334 0.228706 0.403052 0.252489
309 H 12.5066 10.24 20.4185 -0.302858 -1.20902 0.900822 -0.269412
310 H 1.3131 5.29449 10.7368 -0.104319 -0.0515043 -0.00757783 0.478297
311 H 8.95019 18.2702 2.50898 -0.680895 -0.477402 -0.957329 0.391053
312 H 0.382713 1.86949 8.48644 -1.02804 0.235247 -0.218133 0.21171
313 H 4.21247 20.4285 2.49364 0.239652 0.0328247 -0.891302 0.213732
314 H 19.2363 13.6182 7.15637 -0.391084 -0.506043 1.92637 -0.47858
315 H 9.11566 7.2762 12.9844 0.623977 -0.490131 0.210792 0.283099
316 H 12.3878 8.50614 1.9772 0.652345 -0.627137 0.533061 0.109237
317 H 20.4996 12.9774 18.2796 -0.282546 -3.12466 0.503546 3.56411
318 H 16.3422 5.92101 14.3675 0.0032012 0.670495 0.912982 -0.00244238
319 H 9.08492 16.3711 4.67162 0.148238 -0.231562 -1.0352 0.248473
320 H 3.96957 4.15051 0.387839 -0.365414 0.0618607 0.100136 -0.174537
321 H 14.1122 9.55877 15.055 -0.260307 -0.961843 -1.19663 -0.38882
322 H 4.81993 0.835038 12.3218 -0.0914122 -0.221144 -0.0340629 0.251194
323 H 5.9054 18.8727 12.1495 -0.853346 -0.224082 0.079865 0.0907576
324 H 7.58202 18.2831 7.91809 0.33341 -0.277197 1.2434 1.24356
325 H 2.12918 2.409 8.57893 -0.52853 -0.00117523 0.534325 0.313694
326 H 3.63546 16.8794 4.63295 -2.18355 -0.670731 0.431418 1.30661
327 H 5.12953 6.69963 2.03167 -0.16364 -0.397789 -1.47749 -0.157515
328 H 2.21393 16.8941 18.7168 0.163201 0.394464 1.14154 1.01797
329 H 15.3037 18.851 8.61149 0.575184 -0.679181 1.10296 0.955744
330 H 19.5515 2.77349 10.0325 0.517115 0.138111 0.598985 -0.175047
331 H 17.7075 9.58907 17.0624 0.309409 -0.0884168 -0.061698 1.9221
332 H 5.48746 11.6028 12.5848 -0.0523154 -0.299788 -1.77755 0.0660285
333 H 14.061 17.1659 13.9906 0.330902 0.688056 0.0140609 0.239094
334 H 19.3034 7.89182 15.4035 1.01111 -1.14158 1.8972 2.97422
335 H 8.39776 11.3879 10.056 1.12856 0.166639 0.465026 0.082879
336 H 10.5573 3.57123 15.3815 -0.431314 -0.0887511 0.864538 -0.295835
337 H 15.9525 18.116 11.8418 -0.783683 -0.806972 0.373219 2.13227
338 H 5.23717 12.7761 4.59455 0.71545 1.1395 0.175389 0.68907
339 H 16.617 16.1849 9.7197 0.121683 0.496116 0.265343 -0.343143
340 H 1.03988 10.3175 1.16663 -0.784883 -0.933751 -0.681605 0.858094
341 H 8.84913 13.4899 12.3278 -0.383488 -0.922114 0.048905 -0.204853
342 H 1.71277 15.2777 7.49532 0.2324 0.0777701 -0.380416 -0.256603
343 H 17.777 13.105 5.97339 1.00466 0.216619 0.109029 0.506286
344 H 17.2316 15.5164 1.78126 0.28989 -1.43513 -0.768274 -0.113464
345 H 9.97151 10.4744 8.4587 -0.325328 -0.178319 -0.669088 -0.39371
346 H 11.624 11.9566 20.3844 -1.09668 0.850411 0.94635 -0.101953
347 H 8.35955 19.9503 19.9045 0.141561 -0.787927 -0.207961 -0.193641
348 H 13.1372 13.6922 18.8364 0.270833 0.591276 0.110213 -0.176623
349 H 19.7278 6.8792 9.21181 0.659749 -1.50743 -1.49911 0.499627
350 H 9.65232 13.3565 3.21461 0.159591 0.963031 -0.0382074 0.471788
351 H 6.87009 11.0071 3.70192 -1.33149 1.35555 2.38232 0.374945
352 H 4.55495 16.8386 7.62676 -0.232795 0.250166 1.33443 0.514182
353 H 0.108448 0.78309 15.3467 -0.6501 -1.51721 0.381012 0.186037
354 H 5.84756 12.2228 16.2253 0.0975426 0.364782 0.24547 0.925347
355 H 18.1427 19.7402 9.3703 0.175437 -0.211325 0.177846 -0.0437947
356 H 5.98217 4.52908 0.429139 0.0352347 0.134404 1.30839 -0.113641
357 H 8.05157 11.3727 5.39975 -0.0283536 0.841073 1.12249 0.302477
358 H 3.35658 19.7249 14.8611 -0.353657 -0.538201 0.58065 1.21828
359 H 10.2458 7.53213 8.16486 0.31391 0.842564 0.252597 0.123304
360 H 13.8676 10.6567 8.44186 0.915396 0.718408 -0.419269 0.389943
361 H 19.5525 12.7774 11.0238 0.2362 -0.0935317 -1.19533 0.241014
362 H 9.70006 0.89433 3.02048 0.532025 0.387493 0.504602 1.25199
363 H 10.5883 14.9788 4.48838 -0.394111 -0.139519 -0.381298 0.309345
364 H 2.97866 17.4381 6.85995 -0.498525 -1.65383 -0.103504 0.0970124
365 H 12.2615 6.32615 6.22895 0.651072 1.17673 0.187803 0.182195
366 H 0.0414785 1.89043 20.2879 -0.0482696 -0.531887 -0.460209 0.29771
367 H 7.14582 13.088 11.0222 -0.0797623 -0.632334 1.45953 -0.323079
368 H 9.44301 18.4449 4.25399 0.286961 0.387626 1.00906 0.386722
369 H 7.42389 5.48155 7.06868 -0.14898 -0.841557 -2.15041 -0.296267
370 H 0.527342 3.6326 1.59436 1.25721 -0.446507 0.211454 -0.328916
371 H 5.64497 20.1169 10.5879 0.837619 -2.24679 -0.241755 0.638014
372 H 12.1074 9.01181 4.42597 0.109021 -0.452237 -0.730971 1.18839
373 H 12.8325 2.21263 9.34794 0.621397 1.09167 1.6123 0.276077
374 H 11.2466 2.64979 13.8931 0.475255 -0.140535 -0.401692 -0.106079
375 H 14.4322 18.0926 1.87184 -1.64312 0.901559 -0.879212 0.0668666
376 H 19.6429 11.5994 20.6761 4.58402 4.87785 -5.4703 2.9238
377 H 3.07501 13.0925 6.42863 0.228957 0.363788 0.777723 1.131
378 H 12.2023 2.34477 11.0353 -0.990881 0.685732 0.207006 -0.106352
379 H 2.99523 6.65157 8.62777 -1.15602 0.0736557 0.0571095 -0.0256576
380 H 14.6504 13.674 0.665998 -1.70056 1.20208 -0.306757 0.0687934
381 H 12.54 7.52762 8.36926 0.188081 -0.274339 -0.12169 0.590953
382 H 10.266 3.89372 1.62088 0.803086 0.866744 0.359146 0.354426
383 H 13.2419 20.7892 19.283 -0.176564 0.284729 0.648472 0.0363119
384 H 19.2656 3.25293 0.871485 0.376479 1.18506 -0.289644 -0.212462
385 H 14.7848 9.58492 0.169251 0.00164672 0.0493581 0.0143787 0.529734
386 H 7.41774 9.52631 5.98673 0.253973 -1.64711 0.163334 0.691603
387 H 19.9736 0.988373 17.6845 0.164888 -0.494461 0.686629 0.428937
388 H 6.83865 7.53906 0.568706 -0.24715 -0.361025 -0.46544 -0.0683764
389 H 0.250652 7.63328 15.6567 -0.841611 -1.25301 -0.151979 2.00914
390 H 4.56102 0.955235 5.38418 -1.40742 -1.04828 0.125346 -0.0636547
391 H 15.7912 10.1946 8.79503 0.702426 -0.59782 0.0464472 -0.0204527
392 H 13.2417 17.7994 20.1682 -0.352032 -0.754332 -0.288598 0.0710744
393 H 2.11164 20.9259 6.47141 -0.188893 0.4254 -0.0623988 0.140972
394 H 2.86391 4.91221 18.4907 0.534259 1.28539 -0.0986109 0.244854
395 H 15.9551 7.74234 0.0667257 -1.69997 -0.117384 -0.00152012 0.743328
396 H 12.4639 4.81161 13.3965 0.085466 0.111117 0.0772191 -0.591938
397 H 9.14547 17.7528 9.00551 0.355351 -0.16529 0.1449 -0.0215885
398 H 19.7924 11.5456 6.26385 0.527366 -0.890947 -0.199688 0.144427
399 H 13.6749 10.7327 16.4124 0.100341 -0.287226 0.0786179 0.0147755
400 H 19.9549 7.08683 19.4161 0.137639 -0.716736 -0.138103 0.594972
401 H 0.837128 8.00227 8.2063 -0.468601 -0.405438 0.460871 0.512602
402 H 0.592989 16.8784 3.55816 -0.138189 0.522412 0.174998 0.142798
403 H 9.17869 6.51781 1.2339 -0.296668 -0.429628 0.809127 -0.396882
404 H 7.99838 8.99765 13.7154 -0.467277 -0.207697 -0.715611 -0.464671
405 H 15.5653 2.97225 0.459268 0.219102 -0.237537 -1.01177 0.253092
406 H 20.2957 10.909 3.92847 0.360907 -0.302065 -0.651412 0.182183
407 H 6.34452 4.04095 19.5632 -0.656711 -0.710472 -0.933784 0.121076
408 H 17.5589 1.82031 6.91219 0.434803 -0.0428395 0.770379 0.148053
409 H 18.7976 9.80925 12.1735 -1.54293 1.53485 0.419752 2.50397
410 H 6.19298 13.6743 14.1679 0.915531 0.088272 1.37798 0.0331173
411 H 17.579 15.536 14.5989 0.00247656 0.724046 1.65529 0.566722
412 H 7.04718 20.1913 16.118 -0.0881487 1.48963 0.457691 -0.464735
413 H 11.9119 20.7689 11.9259 -0.469913 -0.0853433 0.423572 0.268419
414 H 4.09406 8.28709 9.30049 0.556747 -0.849277 0.296249 1.22795
415 H 15.1087 13.9275 14.3821 0.00246982 -0.685583 -0.120376 0.0257501
416 H 4.06884 11.8051 1.93857 0.365954 -0.490787 -0.389596 0.0209818
417 H 14.5521 11.0232 13.0474 0.0701879 0.277324 -0.316883 -0.0247505
418 H 10.8778 5.09875 11.6981 0.183837 -0.0501583 -0.872481 -0.132458
419 H 0.758521 10.2579 6.67045 -1.05173 -0.475467 -0.595094 0.385357
420 H 8.61806 8.38634 0.316519 0.333663 -0.256553 -0.271239 0.0793079
421 H 12.9218 4.74269 10.4756 -0.54726 -0.273854 1.51223 0.125699
422 H 3.5013 0.723243 0.624099 -0.742515 0.205313 -0.951053 -0.164202
423 H 12.1899 1.11852 4.89473 -1.68887 -0.113956 -2.69335 0.486161
424 H 2.42075 11.5093 2.97803 0.33554 0.336546 -0.0387691 0.996633
425 H 11.5348 10.6491 14.7308 -0.415474 0.678434 0.10644 -0.393784
426 H 9.55289 21.0519 8.75066 -1.18187 0.560459 -0.249328 0.397225
427 H 7.90162 6.59334 8.71728 -0.412846 0.463255 0.102528 -0.0460515
428 H 11.8159 20.7737 20.8943 -1.34489 -1.15873 -0.095963 -0.0345414
429 H 19.2715 7.92572 7.47169 0.583313 0.300042 -0.215036 0.105813
430 H 1.80435 20.49 20.5874 0.0874067 -0.398494 0.814138 0.217603
431 H 7.7633 17.9608 15.5682 -0.805132 -0.145212 0.612278 -0.410914
432 H 5.2173 5.30715 15.3752 -0.282494 -0.903901 -0.176981 1.53397
433 H 13.7601 1.11764 0.496983 0.825513 0.347897 -0.855698 -0.0988221
434 H 17.4372 13.5919 10.1169 0.746688 -0.333817 -0.236883 -0.235286
435 H 14.9878 8.91274 10.1853 0.410092 -0.377868 0.333857 0.162995
436 H 10.5638 10.0945 18.9852 0.0219325 -0.834336 -0.502563 -0.591692
437 H 18.9345 14.3775 4.65243 0.12238 1.02121 0.794984 0.145861
438 H 17.4149 10.8658 3.45041 0.866647 -1.26103 0.512194 0.742916
439 H 13.4926 2.35999 2.37396 -1.52315 -0.342523 -0.0424491 -0.175929
440 H 9.85559 2.9924 21.0309 -3.11295 -1.10716 3.93242 2.30817
441 H 21.0643 1.90724 1.3671 1.61029 -0.385764 -1.09648 -0.0283857
442 H 17.5553 14.102 19.7373 0.606866 -0.282475 -0.857354 1.32396
443 H 4.38091 1.49987 2.23656 0.498677 1.07185 -0.52063 -0.0949432
444 H 6.48806 10.1133 13.2556 0.82075 0.055712 0.107226 0.287619
445 H 13.336 20.2996 16.671 -0.591876 0.492173 -0.936957 -0.265431