ITEM: TIMESTEP
251781
ITEM: NUMBER OF ATOMS
12500
ITEM: BOX BOUNDS pp pp pp
-1.1458161786879504e+00 5.9066999784863889e+01
-1.1458161786879504e+00 5.9066999784863889e+01
-1.1458161786879504e+00 6.9514012684359869e+01
ITEM: ATOMS id type xs ys zs
1 2 0.960963 0.0402095 0.293738
2 2 0.77165 0.413001 0.296026
3 2 0.451774 0.514716 0.456372
4 2 0.899052 0.985547 0.470124
5 2 0.27493 0.130284 0.429109
6 2 0.321387 0.873185 0.21232
7 2 0.0241192 0.29884 0.564244
8 2 0.420398 0.151564 0.288808
9 2 0.214995 0.353533 0.464217
10 2 0.145029 0.0963513 0.331095
11 2 0.340975 0.202141 0.176209
12 2 0.256295 0.316282 0.226931
13 2 0.186029 0.4406 0.149613
14 2 0.0645456 0.384676 0.57402
15 2 0.544475 0.251721 0.447249
16 2 0.361086 0.138497 0.653121
17 2 0.297618 0.234404 0.151704
18 2 0.0409273 0.138775 0.857924
19 2 0.0806314 0.359241 0.488243
20 2 0.283326 0.141781 0.24036
21 2 0.0488272 0.0771614 0.206837
22 2 0.451479 0.0698245 0.490254
23 2 0.872922 0.0697805 0.606223
24 2 0.590585 0.0807859 0.460682
25 2 0.141244 0.331436 0.40608
26 2 0.724084 0.212799 0.188591
27 2 0.811271 0.115986 0.130151
28 2 0.217535 0.316907 0.328239
29 2 0.189377 0.133762 0.119186
30 2 0.163374 0.241663 0.548095
31 2 0.412499 0.147473 0.444039
32 2 0.309656 0.431641 0.168177
33 2 0.152678 0.4598 0.273193
34 2 0.235897 0.0733469 0.664801
35 2 0.141074 0.271243 0.89303
36 2 0.325115 0.94788 0.0867775
37 2 0.517289 0.0402901 0.139021
38 2 0.310314 0.546344 0.635114
39 2 0.935026 0.656822 0.233422
40 2 0.948535 0.208168 0.443719
41 2 0.775433 0.487186 0.135577
42 2 0.889887 0.676557 0.185035
43 2 0.07894 0.207068 0.128716
44 2 0.362048 0.318395 0.194008
45 2 0.982738 0.7987 0.18487
46 2 0.922506 0.464233 0.196094
47 2 0.00542134 0.709324 0.502999
48 2 0.361404 0.530512 0.466631
49 2 0.201032 0.0356825 0.123202
50 2 0.269119 0.128452 0.268894
51 2 0.539934 0.0640172 0.505861
52 2 0.267624 0.0908826 0.594014
53 2 0.347663 0.896152 0.304549
54 2 0.410288 0.440935 0.313185
55 2 0.92302 0.436453 0.513115
56 2 0.147541 0.4084 0.69252
57 2 0.496052 0.231603 0.780661
58 2 0.103688 0.247509 0.566464
59 2 0.712529 0.447295 0.399548
60 2 0.32203 0.182829 0.469201
61 2 0.0656235 0.174722 0.498855
62 2 0.356122 0.390896 0.447634
63 2 0.900373 0.408132 0.303952
64 2 0.964358 0.754501 0.0456121
65 2 0.566404 0.47242 0.74025
66 2 0.511946 0.257446 0.219965
67 2 0.289235 0.202981 0.329304
68 2 0.736086 0.336065 0.135111
69 2 0.870064 0.710522 0.392564
70 2 0.550858 0.307498 0.211613
71 2 0.307391 0.527834 0.238445
72 2 0.0389487 0.148034 0.264283
73 2 0.268644 0.0260436 0.389345
74 2 0.471981 0.354091 0.451762
75 2 0.512611 0.473033 0.256355
76 2 0.477382 0.195073 0.228289
77 2 0.397606 0.263675 0.284366
78 2 0.0455243 0.191671 0.116673
79 2 0.237732 0.0417137 0.290736
80 2 0.490918 0.232994 0.313703
81 2 0.158598 0.542287 0.0949235
82 2 0.18155 0.435158 0.229281
83 2 0.270845 0.914149 0.0997846
84 2 0.840008 0.405948 0.139877
85 2 0.150926 0.489613 0.194161
86 2 0.33094 0.317399 0.147737
87 2 0.573146 0.605145 0.274067
88 2 0.671309 0.183833 0.579878
89 2 0.396629 0.35952 0.269353
90 2 0.295669 0.142501 0.312795
91 2 0.226742 0.224473 0.288979
92 2 0.406329 0.179939 0.622082
93 2 0.38367 0.302122 0.217678
94 2 0.321726 0.20949 0.384489
95 2 0.139863 0.641027 0.130243
96 2 0.133996 0.389504 0.494805
97 2 0.812149 0.390563 0.227942
98 2 0.397423 0.422563 0.745923
99 2 0.756301 0.915493 0.477224
100 2 0.151323 0.612445 0.334323
101 2 0.353504 0.370685 0.230811
102 2 0.537116 0.0983951 0.298557
103 2 0.40294 0.0775476 0.387051
104 2 0.306815 0.999281 0.519292
105 2 0.479499 0.228771 0.505805
106 2 0.182986 0.0707544 0.817294
107 2 0.390486 0.394093 0.0504409
108 2 0.224602 0.874347 0.306299
109 2 0.216942 0.661558 0.0776901
110 2 0.421079 0.386018 0.43815
111 2 0.279262 0.435224 0.232021
112 2 0.492148 0.379516 0.65025
113 2 0.299337 0.407857 0.215371
114 2 0.293321 0.578565 0.368376
115 2 0.832624 0.971039 0.256705
116 2 0.881783 0.972301 0.325935
117 2 0.453991 0.380822 0.538763
118 2 0.295951 0.237575 0.702555
119 2 0.119053 0.454682 0.291617
120 2 0.407823 0.0949304 0.315989
121 2 0.287344 0.875302 0.323907
122 2 0.920213 0.500511 0.480224
123 2 0.833561 0.826601 0.260753
124 2 0.73701 0.386919 0.344794
125 2 0.193062 0.268199 0.316409
126 2 0.223942 0.112987 0.221038
127 2 0.280642 0.61709 0.233511
128 2 0.551163 0.358708 0.333539
129 2 0.363539 0.350593 0.554562
130 2 0.912237 0.894466 0.46035
131 2 0.0207872 0.334089 0.00157455
132 2 0.411069 0.329574 0.740659
133 2 0.729432 0.686622 0.483829
134 2 0.412993 0.552729 0.570015
135 2 0.140803 0.66787 0.841319
136 2 0.700856 0.162783 0.324977
137 2 0.128426 0.126873 0.541311
138 2 0.288089 0.104975 0.323929
139 2 0.360387 0.508177 0.241979
140 2 0.306962 0.254143 0.525846
141 2 0.922616 0.296416 0.607968
142 2 0.0128378 0.734229 0.478077
143 2 0.104566 0.0738148 0.214122
144 2 0.971532 0.5018 0.418354
145 2 0.213604 0.322298 0.18537
146 2 0.25912 0.0202871 0.270261
147 2 0.103486 0.346585 0.359036
148 2 0.364507 0.363857 0.500415
149 2 0.524004 0.212649 0.53912
150 2 0.123315 0.22874 0.356855
151 2 0.84532 0.329692 0.0281783
152 2 0.460967 0.47007 0.847523
153 2 0.300651 0.159465 0.420204
154 2 0.251893 0.299991 0.408758
155 2 0.490517 0.145928 0.790874
156 2 0.371188 0.160679 0.546387
157 2 0.448209 0.532959 0.294771
158 2 0.166807 0.468496 0.697191
159 2 0.0860264 0.124439 0.14399
160 2 0.337166 0.913247 0.249871
161 2 0.23109 0.296688 0.277486
162 2 0.973495 0.276465 0.399348
163 2 0.530898 0.577216 0.236995
164 2 0.0117754 0.0905116 0.274308
165 2 0.234319 0.127068 0.169575
166 2 0.293512 0.584395 0.52578
167 2 0.789546 0.234288 0.10112
168 2 0.318253 0.0962491 0.377826
169 2 0.929708 0.577741 0.36963
170 2 0.539557 0.303431 0.852897
171 2 0.459706 0.308072 0.270292
172 2 0.125489 0.0268446 0.839927
173 2 0.36753 0.227564 0.459322
174 2 0.366688 0.176839 0.932579
175 2 0.240243 0.243704 0.425697
176 2 0.263849 0.253001 0.86054
177 2 0.602387 0.1606 0.428342
178 2 0.882732 0.283892 0.284122
179 2 0.377355 0.782785 0.23663
180 2 0.364751 0.323769 0.581208
181 2 0.984995 0.344885 0.160984
182 2 0.517133 0.340509 0.16671
183 2 0.0517699 0.326634 0.333308
184 2 0.383731 0.268393 0.429323
185 2 0.0177847 0.946188 0.491235
186 2 0.170715 0.491225 0.287078
187 2 0.435079 0.29536 0.2463
188 2 0.172678 0.152912 0.0703045
189 2 0.338149 0.285648 0.261897
190 2 0.24442 0.210819 0.262302
191 2 0.182459 0.308599 0.705382
192 2 0.278921 0.793704 0.180029
193 2 0.58017 0.469052 0.54917
194 2 0.424195 0.623418 0.501835
195 2 0.198671 0.196019 0.451248
196 2 0.643053 0.0297058 0.0796963
197 2 0.233266 0.140198 0.0819893
198 2 0.767496 0.14254 0.684906
199 2 0.0771095 0.433921 0.687869
200 2 0.313489 0.220378 0.798215
201 2 0.334662 0.558221 0.148591
202 2 0.754575 0.291638 0.267676
203 2 0.889824 0.179031 0.113141
204 2 0.692399 0.0974518 0.434192
205 2 0.19642 0.456138 0.433707
206 2 0.26085 0.660703 0.290675
207 2 0.193142 0.894889 0.0653203
208 2 0.0778717 0.929649 0.223112
209 2 0.418018 0.878547 0.47463
210 2 0.984039 0.482036 0.811452
211 2 0.0470467 0.980931 0.554157
212 2 0.97662 0.961305 0.603043
213 2 0.358002 0.407925 0.336539
214 2 0.478699 0.193869 0.880412
215 2 0.980148 0.911836 0.267556
216 2 0.179982 0.964431 0.170831
217 2 0.154984 0.865306 0.347246
218 2 0.865945 0.225937 0.350709
219 2 0.250978 0.0881859 0.80664
220 2 0.235174 0.128726 0.386028
221 2 0.840046 0.267365 0.764466
222 2 0.812822 0.207102 0.0891952
223 2 0.175762 0.046423 0.382236
224 2 0.342575 0.847719 0.228614
225 2 0.40061 0.63131 0.298932
226 2 0.420441 0.368112 0.740007
227 2 0.223942 0.507628 0.201917
228 2 0.140875 0.198859 0.666767
229 2 0.761866 0.352106 0.282118
230 2 0.486876 0.404266 0.421586
231 2 0.211482 0.315626 0.471491
232 2 0.320518 0.231678 0.287054
233 2 0.166902 0.935557 0.54958
234 2 0.515933 0.615281 0.613481
235 2 0.29796 0.851467 0.108512
236 2 0.364203 0.985287 0.572736
237 2 0.044763 0.898257 0.307891
238 2 0.164026 0.395025 0.265439
239 2 0.948508 0.209692 0.13027
240 2 0.859584 0.420734 0.84611
241 2 0.202933 0.313136 0.297182
242 2 0.107583 0.334539 0.304101
243 2 0.761738 0.277586 0.193602
244 2 0.430836 0.427123 0.143718
245 2 0.922979 0.290784 0.5746
246 2 0.108647 0.218598 0.271844
247 2 0.450272 0.709719 0.358738
248 2 0.215488 0.38 0.0961339
249 2 0.517252 0.830477 0.320909
250 2 0.944572 0.648601 0.442597
251 2 0.66128 0.966815 0.146747
252 2 0.278612 0.90276 0.915389
253 2 0.366402 0.94377 0.905975
254 2 0.229156 0.0871567 0.504714
255 2 0.616689 0.35652 0.27428
256 2 0.120249 0.547179 0.15525
257 2 0.486174 0.0864924 0.494717
258 2 0.529231 0.904109 0.975251
259 2 0.571534 0.571112 0.293503
260 2 0.465927 0.320777 0.350177
261 2 0.108046 0.0675129 0.0903615
262 2 0.226517 0.259037 0.223553
263 2 0.350421 0.399142 0.584696
264 2 0.414305 0.845659 0.831168
265 2 0.436362 0.964087 0.758364
266 2 0.503928 0.122092 0.203571
267 2 0.283022 0.390023 0.779688
268 2 0.222228 0.418205 0.465086
269 2 0.894298 0.0195982 0.560296
270 2 0.148495 0.67882 0.319044
271 2 0.326863 0.0503296 0.225152
272 2 0.331664 0.568601 0.181796
273 2 0.502999 0.247212 0.15495
274 2 0.280641 0.0747118 0.303999
275 2 0.367827 0.407503 0.232486
276 2 0.598858 0.936533 0.49053
277 2 0.763768 0.349537 0.182694
278 2 0.617406 0.521956 0.47247
279 2 0.704598 0.236952 0.403896
280 2 0.0164532 0.334111 0.415683
281 2 0.955979 0.507644 0.167688
282 2 0.285475 0.531238 0.191611
283 2 0.325153 0.953773 0.470407
284 2 0.505525 0.920217 0.483725
285 2 0.541059 0.228552 0.474867
286 2 0.152252 0.166514 0.470452
287 2 0.108183 0.182613 0.390852
288 2 0.429637 0.726043 0.226706
289 2 0.311445 0.313051 0.26975
290 2 0.281737 0.0261907 0.858655
291 2 0.819681 0.480369 0.236189
292 2 0.242655 0.346424 0.178224
293 2 0.412463 0.86765 0.288879
294 2 0.167382 0.489492 0.347195
295 2 0.495773 0.264153 0.294823
296 2 0.980228 0.925229 0.298393
297 2 0.471513 0.231454 0.554239
298 2 0.142219 0.995896 0.230496
299 2 0.396929 0.358165 0.320168
300 2 0.597654 0.970247 0.350749
301 2 0.0458707 0.51699 0.201012
302 2 0.441681 0.117004 0.17663
303 2 0.170369 0.189951 0.646443
304 2 0.252727 0.325777 0.0690511
305 2 0.452016 0.0108784 0.404488
306 2 0.0224119 0.299472 0.159209
307 2 0.34725 0.561092 0.548022
308 2 0.174659 0.297576 0.219697
309 2 0.364473 0.682313 0.192531
310 2 0.89927 0.445709 0.0753189
311 2 0.819722 0.359157 0.724712
312 2 0.12152 0.401565 0.551496
313 2 0.273508 0.405599 0.379593
314 2 0.740653 0.0160784 0.965192
315 2 0.491932 0.371644 0.258273
316 2 0.378334 0.390768 0.132564
317 2 0.233937 0.311492 0.843164
318 2 0.0335222 0.120891 0.511529
319 2 0.16412 0.0908688 0.265007
320 2 0.433168 0.157066 0.551041
321 2 0.339574 0.788107 0.230396
322 2 0.0683373 0.284694 0.294031
323 2 0.317325 0.0832883 0.33672
324 2 0.931945 0.181731 0.396418
325 2 0.186704 0.226847 0.347531
326 2 0.413662 0.327104 0.281643
327 2 0.427635 0.0675024 0.298742
328 2 0.483738 0.184697 0.356518
329 2 0.185498 0.363413 0.22346
330 2 0.337148 0.360231 0.306105
331 2 0.1933 0.355396 0.191687
332 2 0.908541 0.584778 0.241397
333 2 0.108962 0.36125 0.0775767
334 2 0.613337 0.321693 0.376841
335 2 0.53718 0.607303 0.0657557
336 2 0.957664 0.971133 0.260567
337 2 0.968179 0.178238 0.70476
338 2 0.408212 0.351843 0.166281
339 2 0.335549 0.148792 0.195492
340 2 0.339621 0.488143 0.417923
341 2 0.178632 0.981593 0.229075
342 2 0.285241 0.37818 0.152976
343 2 0.488877 0.0134863 0.394306
344 2 0.721535 0.496105 0.14258
345 2 0.384551 0.204614 0.223474
346 2 0.316367 0.0321886 0.294659
347 2 0.518223 0.541339 0.244211
348 2 0.958666 0.412392 0.412682
349 2 0.957838 0.594148 0.87744
350 2 0.874067 0.46367 0.129823
351 2 0.310048 0.182216 0.809595
352 2 0.153709 0.956418 0.3006
353 2 0.331913 0.886942 0.610349
354 2 0.16964 0.0127159 0.592228
355 2 0.383768 0.160696 0.465536
356 2 0.708343 0.494089 0.306307
357 2 0.40909 0.518729 0.210751
358 2 0.233875 0.758241 0.654014
359 2 0.663421 0.100414 0.483599
360 2 0.0824241 0.129769 0.210511
361 2 0.893029 0.778771 0.394918
362 2 0.41987 0.30443 0.561672
363 2 0.719173 0.267042 0.421427
364 2 0.361899 0.146307 0.248889
365 2 0.532392 0.35788 0.458848
366 2 0.191103 0.538747 0.709995
367 2 0.368617 0.0144572 0.320324
368 2 0.462904 0.982469 0.0853782
369 2 0.261449 0.98127 0.34769
370 2 0.948921 0.179317 0.0799004
371 2 0.694845 0.266998 0.361233
372 2 0.0337571 0.15638 0.128281
373 2 0.162362 0.106208 0.234916
374 2 0.183128 0.361584 0.274818
375 2 0.521423 0.984681 0.308344
376 2 0.279516 0.444696 0.679766
377 2 0.308863 0.202179 0.133875
378 2 0.30942 0.676416 0.131637
379 2 0.25871 0.243792 0.298258
380 2 0.369197 0.306047 0.24846
381 2 0.267604 0.990047 0.289608
382 2 0.325838 0.0816337 0.522509
383 2 0.410633 0.405969 0.388999
384 2 0.973942 0.350745 0.386244
385 2 0.32362 0.0157945 0.419213
386 2 0.128259 0.391579 0.308743
387 2 0.2939 0.303641 0.298606
388 2 0.58557 0.473672 0.331507
389 2 0.306982 0.407168 0.834756
390 2 0.989697 0.56039 0.844651
391 2 0.428225 0.545065 0.600237
392 2 0.167164 0.329715 0.288389
393 2 0.117664 0.177117 0.16241
394 2 0.990775 0.583214 0.557081
395 2 0.234777 0.929818 0.0948759
396 2 0.53235 0.111536 0.463939
397 2 0.990668 0.820819 0.323865
398 2 0.704867 0.0126478 0.163121
399 2 0.558595 0.259595 0.17859
400 2 0.825158 0.971127 0.128895
401 2 0.514018 0.0617568 0.421044
402 2 0.268984 0.499582 0.101739
403 2 0.545252 0.407843 0.670666
404 2 0.704114 0.345886 0.314463
405 2 0.718644 0.105043 0.665068
406 2 0.537598 0.998774 0.280719
407 2 0.611524 0.427276 0.413526
408 2 0.135682 0.0669379 0.583022
409 2 0.12314 0.326609 0.857279
410 2 0.839311 0.762439 0.0918812
411 2 0.305729 0.167987 0.337604
412 2 0.960549 0.371244 0.996693
413 2 0.279012 0.664039 0.529144
414 2 0.180774 0.305522 0.797432
415 2 0.0993056 0.0395136 0.321776
416 2 0.899504 0.952339 0.731266
417 2 0.0540278 0.0789171 0.324345
418 2 0.115974 0.207802 0.328204
419 2 0.545538 0.551533 0.513624
420 2 0.081895 0.210776 0.822414
421 2 0.16775 0.0366267 0.165545
422 2 0.566179 0.956711 0.530278
423 2 0.830362 0.194847 0.499215
424 2 0.0281315 0.107185 0.324189
425 2 0.17575 0.100689 0.350563
426 2 0.0131261 0.345855 0.0936101
427 2 0.10357 0.971682 0.641402
428 2 0.0567706 0.00525714 0.342927
429 2 0.0988774 0.247242 0.17302
430 2 0.321213 0.61004 0.127929
431 2 0.407192 0.990845 0.487785
432 2 0.277611 0.428027 0.121957
433 2 0.749318 0.971658 0.160781
434 2 0.402021 0.307304 0.360275
435 2 0.115289 0.133114 0.292693
436 2 0.0286712 0.188918 0.431693
437 2 0.289164 0.303887 0.242228
438 2 0.2299 0.40777 0.194263
439 2 0.977041 0.222706 0.221118
440 2 0.250804 0.215297 0.472808
441 2 0.285067 0.0920808 0.215195
442 2 0.173977 0.506903 0.169833
443 2 0.218516 0.244233 0.589638
444 2 0.119859 0.891442 0.470356
445 2 0.530315 0.412766 0.233562
446 2 0.0452847 0.496972 0.492683
447 2 0.205038 0.0701705 0.870953
448 2 0.234089 0.452267 0.356558
449 2 0.365608 0.597029 0.552991
450 2 0.391854 0.428438 0.34104
451 2 0.634478 0.997818 0.296236
452 2 0.257465 0.57287 0.486367
453 2 0.053711 0.144011 0.154751
454 2 0.696804 0.988139 0.339655
455 2 0.573475 0.385727 0.199031
456 2 0.319722 0.477894 0.202682
457 2 0.225287 0.125893 0.327167
458 2 0.549646 0.344531 0.302362
459 2 0.354305 0.0945384 0.175341
460 2 0.435931 0.316765 0.420889
461 2 0.796275 0.791095 0.812889
462 2 0.480468 0.405227 0.0763106
463 2 0.00639341 0.952968 0.309272
464 2 0.0549881 0.240388 0.330974
465 2 0.975449 0.190858 0.813552
466 2 0.554709 0.316347 0.416744
467 2 0.393459 0.0494159 0.0382119
468 2 0.617455 0.169641 0.774504
469 2 0.150638 0.473773 0.592401
470 2 0.300636 0.174591 0.251965
471 2 0.440197 0.995838 0.433533
472 2 0.994162 0.0657057 0.187132
473 2 0.238959 0.072425 0.355757
474 2 0.374314 0.0887894 0.368164
475 2 0.411688 0.141709 0.106839
476 2 0.759281 0.151022 0.301503
477 2 0.824674 0.680942 0.443992
478 2 0.270775 0.27269 0.182816
479 2 0.289707 0.0196172 0.173899
480 2 0.72242 0.148723 0.440238
481 2 0.418491 0.15835 0.142329
482 2 0.682117 0.19914 0.228144
483 2 0.754395 0.165695 0.35077
484 2 0.38482 0.285634 0.837004
485 2 0.115598 0.277681 0.410362
486 2 0.453577 0.264244 0.232931
487 2 0.327304 0.222191 0.717716
488 2 0.86286 0.183477 0.390628
489 2 0.758265 0.602875 0.352186
490 2 0.405571 0.482584 0.473514
491 2 0.317345 0.0210221 0.544704
492 2 0.375729 0.422647 0.39571
493 2 0.340044 0.441529 0.615738
494 2 0.210698 0.498401 0.100757
495 2 0.31384 0.0948687 0.657078
496 2 0.192335 0.304035 0.737656
497 2 0.0137842 0.216518 0.732908
498 2 0.0296927 0.434046 0.380456
499 2 0.300407 0.356399 0.604752
500 2 0.604 0.484621 0.17803
501 2 0.98433 0.197488 0.1209
502 2 0.0376413 0.129055 0.104434
503 2 0.256587 0.00712747 0.160785
504 2 0.735608 0.98572 0.404531
505 2 0.496314 0.0240369 0.781171
506 2 0.231356 0.30095 0.596959
507 2 0.372965 0.313985 0.702924
508 2 0.183942 0.332113 0.126278
509 2 0.0466216 0.540682 0.821825
510 2 0.317666 0.361093 0.0565816
511 2 0.301788 0.248936 0.0999778
512 2 0.961125 0.348013 0.205232
513 2 0.897871 0.340396 0.299046
514 2 0.659486 0.342085 0.0564933
515 2 0.289686 0.0391614 0.318209
516 2 0.340302 0.397769 0.134251
517 2 0.122355 0.238227 0.900288
518 2 0.286438 0.529981 0.421419
519 2 0.162432 0.788717 0.324361
520 2 0.588167 0.450512 0.395258
521 2 0.330051 0.142123 0.296209
522 2 0.338006 0.850056 0.155378
523 2 0.0381459 0.405157 0.424888
524 2 0.13475 0.330147 0.764671
525 2 0.374508 0.759494 0.285744
526 2 0.398688 0.957189 0.752192
527 2 0.142613 0.286896 0.492091
528 2 0.507201 0.434093 0.255625
529 2 0.546138 0.184469 0.276248
530 2 0.291363 0.968532 0.129517
531 2 0.103397 0.331248 0.130336
532 2 0.483446 0.749788 0.386482
533 2 0.109549 0.541558 0.187431
534 2 0.178752 0.230078 0.247623
535 2 0.560865 0.21683 0.528274
536 2 0.940337 0.329854 0.18106
537 2 0.137182 0.137079 0.800187
538 2 0.608652 0.921085 0.247259
539 2 0.495475 0.0398276 0.343603
540 2 0.191762 0.109196 0.720093
541 2 0.925015 0.972052 0.750892
542 2 0.176189 0.372491 0.0931797
543 2 0.225879 0.445246 0.300055
544 2 0.177359 0.220899 0.626652
545 2 0.327078 0.429024 0.0926877
546 2 0.477182 0.424791 0.21583
547 2 0.383456 0.26745 0.618797
548 2 0.664274 0.356718 0.313261
549 2 0.716408 0.937855 0.697338
550 2 0.886827 0.205582 0.622636
551 2 0.257889 0.579628 0.277265
552 2 0.246401 0.384172 0.218176
553 2 0.769576 0.104439 0.0599148
554 2 0.584015 0.962655 0.0351096
555 2 0.461728 0.384768 0.787222
556 2 0.205942 0.295336 0.16293
557 2 0.256226 0.373025 0.854238
558 2 0.939913 0.392257 0.268932
559 2 0.602244 0.319627 0.277857
560 2 0.696821 0.112119 0.361624
561 2 0.831428 0.29398 0.7196
562 2 0.169708 0.404392 0.494329
563 2 0.325041 0.145861 0.479015
564 2 0.182419 0.0130259 0.283144
565 2 0.0909816 0.20033 0.210945
566 2 0.419052 0.596043 0.355009
567 2 0.416814 0.320201 0.61559
568 2 0.152927 0.895657 0.268417
569 2 0.969429 0.326408 0.299914
570 2 0.228271 0.0783356 0.414621
571 2 0.381432 0.515403 0.880734
572 2 0.0993628 0.281915 0.313713
573 2 0.551987 0.348463 0.379127
574 2 0.444456 0.436951 0.0403988
575 2 0.986648 0.118162 0.0894561
576 2 0.254807 0.106662 0.342137
577 2 0.814411 0.584848 0.335654
578 2 0.405925 0.878758 0.179002
579 2 0.681206 0.165569 0.730894
580 2 0.0830092 0.312494 0.247384
581 2 0.560883 0.167852 0.498433
582 2 0.128353 0.18869 0.255261
583 2 0.269629 0.859038 0.272544
584 2 0.478524 0.151597 0.143334
585 2 0.121068 0.538585 0.736586
586 2 0.344312 0.53952 0.393733
587 2 0.551635 0.478751 0.255106
588 2 0.0435004 0.589815 0.342204
589 2 0.925555 0.398296 0.86096
590 2 0.405383 0.816583 0.442358
591 2 0.281361 0.092168 0.383542
592 2 0.112578 0.505232 0.11263
593 2 0.0412334 0.829881 0.0808817
594 2 0.107792 0.637561 0.655553
595 2 0.929346 0.891487 0.122018
596 2 0.902609 0.16065 0.336274
597 2 0.116958 0.432196 0.203793
598 2 0.19818 0.667298 0.559179
599 2 0.107108 0.147494 0.820549
600 2 0.903508 0.308305 0.0412214
601 2 0.437617 0.202591 0.322388
602 2 0.937569 0.347789 0.374433
603 2 0.429858 0.583527 0.195845
604 2 0.308876 0.54294 0.289589
605 2 0.0395338 0.588463 0.111986
606 2 0.620715 0.519886 0.179937
607 2 0.414853 0.373144 0.406722
608 2 0.125297 0.571693 0.797708
609 2 0.174468 0.428627 0.282281
610 2 0.135206 0.33298 0.176691
611 2 0.266127 0.999761 0.129324
612 2 0.203509 0.150307 0.174005
613 2 0.364664 0.298756 0.809861
614 2 0.207594 0.258718 0.499036
615 2 0.132209 0.308459 0.676825
616 2 0.477977 0.961058 0.163944
617 2 0.178212 0.260825 0.409116
618 2 0.967386 0.00295863 0.134433
619 2 0.162785 0.360066 0.172179
620 2 0.178219 0.532077 0.478518
621 2 0.316728 0.249716 0.205026
622 2 0.0930228 0.484225 0.29688
623 2 0.520469 0.61767 0.345068
624 2 0.410826 0.484965 0.226663
625 2 0.231634 0.315805 0.516877
626 2 0.087457 0.105769 0.500976
627 2 0.384388 0.206605 0.867943
628 2 0.369391 0.83921 0.270439
629 2 0.780522 0.28665 0.418305
630 2 0.589988 0.178342 0.593657
631 2 0.47225 0.203037 0.771072
632 2 0.202352 0.216301 0.376907
633 2 0.0854809 0.309344 0.615323
634 2 0.724147 0.698979 0.264701
635 2 0.684988 0.415474 0.82943
636 2 0.299976 0.417 0.57505
637 2 0.334676 0.280291 0.877087
638 2 0.144143 0.0332774 0.239402
639 2 0.15501 0.267746 0.178304
640 2 0.361747 0.467165 0.438064
641 2 0.495612 0.00660334 0.44737
642 2 0.117303 0.394499 0.464394
643 2 0.440056 0.956051 0.431645
644 2 0.744264 0.266168 0.803121
645 2 0.326302 0.623629 0.301381
646 2 0.0513326 0.17543 0.594857
647 2 0.439542 0.0324141 0.310179
648 2 0.385557 0.46359 0.296053
649 2 0.139487 0.272462 0.27377
650 2 0.337531 0.997363 0.197721
651 2 0.239644 0.374216 0.0315482
652 2 0.102932 0.844773 0.0628936
653 2 0.339297 0.129452 0.905063
654 2 0.250624 0.366068 0.352437
655 2 0.472765 0.338584 0.865283
656 2 0.160276 0.250323 0.696688
657 2 0.245222 0.138179 0.855551
658 2 0.197883 0.490472 0.870148
659 2 0.985953 0.0115471 0.104828
660 2 0.152401 0.455002 0.563314
661 2 0.328538 0.175618 0.861738
662 2 0.256222 0.349707 0.28958
663 2 0.767257 0.89289 0.348732
664 2 0.402596 0.28048 0.384395
665 2 0.476736 0.427103 0.300194
666 2 0.982005 0.664867 0.143671
667 2 0.274345 0.307968 0.355304
668 2 0.904512 0.308447 0.238381
669 2 0.310894 0.402642 0.800989
670 2 0.840651 0.125807 0.517322
671 2 0.150392 0.579042 0.352331
672 2 0.874761 0.577371 0.514082
673 2 0.0819314 0.528554 0.344154
674 2 0.524812 0.215601 0.319008
675 2 0.419374 0.0911005 0.156767
676 2 0.190316 0.371123 0.487197
677 2 0.171262 0.815288 0.173581
678 2 0.0148879 0.641689 0.82565
679 2 0.280136 0.267396 0.254016
680 2 0.959544 0.332213 0.586304
681 2 0.912414 0.379341 0.566098
682 2 0.214525 0.105297 0.121258
683 2 0.0903841 0.640107 0.410296
684 2 0.00780989 0.665529 0.286245
685 2 0.287909 0.958131 0.179976
686 2 0.588849 0.390221 0.460367
687 2 0.439757 0.578113 0.887129
688 2 0.0625602 0.341495 0.659648
689 2 0.554121 0.243142 0.768918
690 2 0.0459472 0.0550877 0.505458
691 2 0.47411 0.20771 0.402385
692 2 0.599403 0.246294 0.490337
693 2 0.278778 0.336098 0.312785
694 2 0.220351 0.495861 0.322767
695 2 0.385536 0.261013 0.174553
696 2 0.842088 0.119023 0.764158
697 2 0.0524581 0.428224 0.246176
698 2 0.58202 0.94009 0.988125
699 2 0.255307 0.110028 0.902542
700 2 0.224842 0.314271 0.247776
701 2 0.605249 0.727368 0.673215
702 2 0.92133 0.36044 0.16595
703 2 0.611318 0.441684 0.509647
704 2 0.373754 0.324847 0.420723
705 2 0.186343 0.0220014 0.357958
706 2 0.184289 0.266285 0.123724
707 2 0.992872 0.173955 0.839643
708 2 0.1474 0.508347 0.820927
709 2 0.101542 0.48706 0.162369
710 2 0.25627 0.506884 0.508078
711 2 0.818989 0.908347 0.996738
712 2 0.306989 0.320722 0.616503
713 2 0.870648 0.244393 0.209962
714 2 0.354963 0.395155 0.304447
715 2 0.629527 0.0624006 0.283211
716 2 0.022219 0.537252 0.15518
717 2 0.249958 0.88783 0.328263
718 2 0.22134 0.902996 0.25386
719 2 0.0703445 0.338673 0.172267
720 2 0.0473976 0.375572 0.370192
721 2 0.113868 0.462871 0.558716
722 2 0.464496 0.331658 0.685984
723 2 0.166525 0.278054 0.749455
724 2 0.483797 0.102005 0.707789
725 2 0.844464 0.720611 0.27514
726 2 0.487211 0.0799017 0.44009
727 2 0.111916 0.365806 0.256231
728 2 0.587434 0.0870561 0.182505
729 2 0.237303 0.837753 0.543127
730 2 0.184954 0.199962 0.322451
731 2 0.405542 0.126844 0.000283165
732 2 0.296844 0.152712 0.367633
733 2 0.514624 0.614635 0.283014
734 2 0.133796 0.397452 0.212006
735 2 0.0994879 0.238318 0.205239
736 2 0.924555 0.710813 0.456682
737 2 0.975826 0.780209 0.237947
738 2 0.222764 0.227646 0.453146
739 2 0.139163 0.162457 0.0849711
740 2 0.433367 0.330224 0.367896
741 2 0.215328 0.789495 0.201011
742 2 0.457215 0.389367 0.259262
743 2 0.102514 0.304324 0.218607
744 2 0.42804 0.822476 0.18063
745 2 0.00131135 0.291359 0.451355
746 2 0.765074 0.41984 0.453304
747 2 0.350528 0.429125 0.256349
748 2 0.521765 0.126422 0.401916
749 2 0.925555 0.0699417 0.624792
750 2 0.0559074 0.593143 0.174107
751 2 0.845411 0.21392 0.406173
752 2 0.0826749 0.190139 0.315543
753 2 0.402092 0.295079 0.264781
754 2 0.897951 0.98178 0.0671976
755 2 0.342247 0.0738821 0.0839011
756 2 0.479462 0.452507 0.112052
757 2 0.260772 0.206936 0.188768
758 2 0.0901136 0.284674 0.566348
759 2 0.43566 0.323519 0.586842
760 2 0.392472 0.121585 0.294231
761 2 0.0320126 0.279095 0.026214
762 2 0.479094 0.200326 0.194623
763 2 0.00749671 0.141954 0.598567
764 2 0.109013 0.0980843 0.34274
765 2 0.931777 0.567566 0.198312
766 2 0.344666 0.54837 0.343447
767 2 0.994923 0.0264568 0.481934
768 2 0.287426 0.40082 0.316365
769 2 0.0711406 0.353332 0.0676438
770 2 0.426815 0.00175055 0.291043
771 2 0.511867 0.422848 0.287551
772 2 0.262495 0.640356 0.344172
773 2 0.230208 0.0331135 0.170838
774 2 0.203517 0.578234 0.254648
775 2 0.252195 0.331848 0.337086
776 2 0.669122 0.283703 0.380178
777 2 0.0881006 0.30927 0.852747
778 2 0.10484 0.565882 0.926324
779 2 0.990957 0.281265 0.572499
780 2 0.840396 0.425 0.201048
781 2 0.346395 0.622175 0.573453
782 2 0.979112 0.173953 0.279201
783 2 0.342529 0.977703 0.392308
784 2 0.870605 0.0900703 0.217158
785 2 0.441548 0.329874 0.451856
786 2 0.985526 0.874378 0.759933
787 2 0.127708 0.0453077 0.422079
788 2 0.485534 0.0218249 0.183194
789 2 0.154277 0.385546 0.792138
790 2 0.386075 0.137875 0.594381
791 2 0.246438 0.987768 0.22548
792 2 0.128618 0.418712 0.416535
793 2 0.240152 0.437476 0.114076
794 2 0.469337 0.115694 0.433573
795 2 0.561525 0.0382496 0.52245
796 2 0.179404 0.161256 0.218411
797 2 0.428259 0.251495 0.21078
798 2 0.410657 0.226937 0.0857954
799 2 0.0488 0.478501 0.902356
800 2 0.0991814 0.258527 0.0581365
801 2 0.454764 0.057298 0.440623
802 2 0.387583 0.614331 0.397275
803 2 0.938774 0.516253 0.08532
804 2 0.377803 0.0414177 0.217593
805 2 0.720859 0.148 0.178821
806 2 0.544526 0.274721 0.332597
807 2 0.12051 0.310803 0.35876
808 2 0.856172 0.342737 0.136576
809 2 0.997431 0.144732 0.449591
810 2 0.132523 0.602501 0.398782
811 2 0.189936 0.317334 0.0762209
812 2 0.207326 0.187469 0.166354
813 2 0.750174 0.189663 0.299246
814 2 0.254908 0.193998 0.342978
815 2 0.14309 0.98498 0.397727
816 2 0.55156 0.157748 0.788827
817 2 0.357118 0.466462 0.852124
818 2 0.478066 0.391978 0.3709
819 2 0.0497463 0.00154425 0.484743
820 2 0.547883 0.617205 0.183325
821 2 0.176711 0.116483 0.286972
822 2 0.220738 0.47419 0.949886
823 2 0.382923 0.716392 0.492444
824 2 0.298533 0.938407 0.208346
825 2 0.270069 0.178055 0.70937
826 2 0.255374 0.239689 0.240383
827 2 0.46087 0.281204 0.293953
828 2 0.319112 0.724764 0.256869
829 2 0.150951 0.268142 0.21146
830 2 0.921295 0.534939 0.402569
831 2 0.170495 0.198657 0.390928
832 2 0.870996 0.135013 0.614365
833 2 0.445241 0.17253 0.620528
834 2 0.934382 0.207547 0.184917
835 2 0.0285829 0.344469 0.284716
836 2 0.513934 0.176075 0.228857
837 2 0.0422838 0.978069 0.152854
838 2 0.318843 0.47302 0.0539971
839 2 0.950255 0.869871 0.14368
840 2 0.220274 0.0982142 0.189018
841 2 0.246874 0.286024 0.207241
842 2 0.207857 0.138863 0.283077
843 2 0.083022 0.588392 0.43738
844 2 0.307005 0.285179 0.19469
845 2 0.91678 0.904102 0.570373
846 2 0.363808 0.338786 0.322579
847 2 0.521061 0.260754 0.391518
848 2 0.235258 0.114751 0.760433
849 2 0.303529 0.365161 0.321743
850 2 0.328336 0.1325 0.380031
851 2 0.702388 0.321881 0.705829
852 2 0.970076 0.0518559 0.341619
853 2 0.262876 0.440303 0.71023
854 2 0.320025 0.241094 0.654056
855 2 0.207956 0.996319 0.375147
856 2 0.281805 0.989283 0.869977
857 2 0.722704 0.0423114 0.118263
858 2 0.185128 0.14815 0.688374
859 2 0.885452 0.377943 0.173575
860 2 0.579571 0.23023 0.555147
861 2 0.258735 0.176357 0.586443
862 2 0.142465 0.452185 0.184384
863 2 0.546861 0.299199 0.482695
864 2 0.614893 0.188613 0.219966
865 2 0.0519733 0.790822 0.67558
866 2 0.287622 0.118719 0.746153
867 2 0.339254 0.408721 0.654431
868 2 0.18006 0.893408 0.353995
869 2 0.976813 0.979883 0.192433
870 2 0.121744 0.439164 0.35047
871 2 0.95193 0.606011 0.658875
872 2 0.549618 0.0839735 0.0419238
873 2 0.911941 0.488607 0.245444
874 2 0.193189 0.627176 0.219332
875 2 0.355432 0.829443 0.131466
876 2 0.106425 0.331017 0.270062
877 2 0.0710309 0.655897 0.288337
878 2 0.95632 0.923103 0.43213
879 2 0.113499 0.387086 0.160525
880 2 0.022258 0.251649 0.111034
881 2 0.0481216 0.351257 0.585044
882 2 0.58286 0.950063 0.247684
883 2 0.720507 0.0694157 0.476733
884 2 0.986309 0.294245 0.286232
885 2 0.156982 0.957792 0.794131
886 2 0.199089 0.254746 0.466155
887 2 0.651091 0.930703 0.469028
888 2 0.184693 0.955724 0.117816
889 2 0.00687979 0.240201 0.0589124
890 2 0.451607 0.148308 0.387642
891 2 0.250662 0.395824 0.328023
892 2 0.166876 0.975849 0.328211
893 2 0.137358 0.0298691 0.31988
894 2 0.312878 0.562747 0.4665
895 2 0.131585 0.259235 0.649956
896 2 0.967596 0.932066 0.583373
897 2 0.375084 0.473819 0.234526
898 2 0.227527 0.428351 0.330324
899 2 0.442435 0.34599 0.397807
900 2 0.475777 0.870983 0.504413
901 2 0.254727 0.551245 0.321247
902 2 0.0348223 0.253155 0.0795229
903 2 0.567264 0.216727 0.351135
904 2 0.611978 0.378005 0.534665
905 2 0.889193 0.298438 0.497928