ITEM: TIMESTEP
290506
ITEM: NUMBER OF ATOMS
12500
ITEM: BOX BOUNDS pp pp pp
-1.1458161786879504e+00 5.9066999784863889e+01
-1.1458161786879504e+00 5.9066999784863889e+01
-1.1458161786879504e+00 7.2397547927492255e+01
ITEM: ATOMS id type xs ys zs
1 2 0.960792 0.0396748 0.300113
2 2 0.771463 0.412617 0.302196
3 2 0.451907 0.51468 0.456066
4 2 0.898999 0.985526 0.469492
5 2 0.274908 0.130183 0.430061
6 2 0.321257 0.872427 0.222012
7 2 0.0240997 0.299124 0.559734
8 2 0.420387 0.151112 0.295546
9 2 0.215021 0.353552 0.463659
10 2 0.144856 0.095769 0.336101
11 2 0.340927 0.201256 0.187446
12 2 0.256175 0.3156 0.23614
13 2 0.185624 0.439676 0.161959
14 2 0.0645474 0.384978 0.569021
15 2 0.544535 0.251686 0.447523
16 2 0.361265 0.138999 0.645017
17 2 0.297475 0.233319 0.164063
18 2 0.041249 0.139857 0.841792
19 2 0.0805719 0.359307 0.486732
20 2 0.283292 0.141132 0.249123
21 2 0.0485956 0.0763095 0.216747
22 2 0.451587 0.0698843 0.488847
23 2 0.872948 0.0700952 0.600281
24 2 0.590659 0.0807609 0.460514
25 2 0.141168 0.33129 0.407884
26 2 0.723716 0.212123 0.199107
27 2 0.810813 0.115021 0.142964
28 2 0.21744 0.316551 0.333262
29 2 0.189428 0.132746 0.132567
30 2 0.163404 0.241892 0.544159
31 2 0.41257 0.147391 0.444459
32 2 0.30936 0.430859 0.179342
33 2 0.15249 0.459312 0.280318
34 2 0.235964 0.0738349 0.656236
35 2 0.140808 0.273158 0.875803
36 2 0.325184 0.94606 0.101658
37 2 0.517797 0.0392606 0.151833
38 2 0.310674 0.547032 0.627374
39 2 0.934931 0.656302 0.24194
40 2 0.948421 0.208116 0.444133
41 2 0.775166 0.486465 0.147993
42 2 0.889797 0.67597 0.195459
43 2 0.0783395 0.205491 0.142222
44 2 0.36191 0.317685 0.20427
45 2 0.982676 0.798103 0.195314
46 2 0.922244 0.463583 0.206131
47 2 0.00540633 0.709453 0.500865
48 2 0.361505 0.530556 0.465856
49 2 0.201136 0.0348987 0.136397
50 2 0.269051 0.127827 0.276515
51 2 0.540067 0.0641777 0.503869
52 2 0.267726 0.0912061 0.588297
53 2 0.347621 0.895646 0.310591
54 2 0.410209 0.440561 0.318564
55 2 0.923015 0.436561 0.510655
56 2 0.147719 0.409189 0.682416
57 2 0.496074 0.232363 0.767861
58 2 0.103701 0.247791 0.561829
59 2 0.712485 0.447121 0.401661
60 2 0.32209 0.18284 0.468554
61 2 0.0655748 0.174797 0.496994
62 2 0.356177 0.390894 0.447704
63 2 0.900134 0.407738 0.309823
64 2 0.964325 0.753884 0.061502
65 2 0.566767 0.472927 0.728883
66 2 0.511763 0.256933 0.229264
67 2 0.289199 0.202607 0.3344
68 2 0.735587 0.335301 0.147759
69 2 0.870021 0.710336 0.394867
70 2 0.550602 0.306948 0.221136
71 2 0.307208 0.527275 0.246777
72 2 0.0387073 0.147293 0.271989
73 2 0.268609 0.0257572 0.391967
74 2 0.472063 0.35409 0.45173
75 2 0.512428 0.472524 0.263959
76 2 0.477246 0.194579 0.237554
77 2 0.397536 0.263241 0.291138
78 2 0.0448976 0.190327 0.130509
79 2 0.237635 0.0411483 0.297319
80 2 0.490889 0.232637 0.319315
81 2 0.15819 0.541307 0.109059
82 2 0.181299 0.434535 0.238296
83 2 0.270807 0.913341 0.113875
84 2 0.839572 0.405229 0.152272
85 2 0.150599 0.488876 0.204395
86 2 0.330682 0.316555 0.159911
87 2 0.573048 0.604656 0.281002
88 2 0.671362 0.184081 0.575116
89 2 0.396506 0.359046 0.276563
90 2 0.295639 0.142058 0.318563
91 2 0.22664 0.223989 0.295754
92 2 0.406563 0.180354 0.615298
93 2 0.383554 0.30148 0.22701
94 2 0.321743 0.209267 0.38727
95 2 0.139684 0.640334 0.1428
96 2 0.134011 0.389622 0.492953
97 2 0.811846 0.390024 0.23682
98 2 0.397879 0.423443 0.733816
99 2 0.756324 0.915498 0.476347
100 2 0.151224 0.612141 0.338833
101 2 0.353365 0.370111 0.23957
102 2 0.537094 0.0979805 0.304836
103 2 0.402984 0.0773285 0.389815
104 2 0.306912 0.999448 0.51664
105 2 0.479629 0.228893 0.503724
106 2 0.182883 0.0717722 0.802556
107 2 0.389467 0.393318 0.0661677
108 2 0.224538 0.873871 0.312153
109 2 0.216711 0.660868 0.0922903
110 2 0.421154 0.385997 0.438609
111 2 0.279087 0.434628 0.240717
112 2 0.492521 0.379935 0.642375
113 2 0.299154 0.407221 0.22474
114 2 0.293294 0.578326 0.371557
115 2 0.832529 0.970482 0.26452
116 2 0.881654 0.9719 0.331018
117 2 0.454215 0.381045 0.535207
118 2 0.296102 0.238315 0.692125
119 2 0.118854 0.454254 0.297988
120 2 0.407859 0.0945034 0.321658
121 2 0.287275 0.874855 0.329065
122 2 0.920158 0.500588 0.479055
123 2 0.833513 0.826155 0.268285
124 2 0.736884 0.386625 0.349047
125 2 0.192947 0.267811 0.322023
126 2 0.223796 0.112229 0.230524
127 2 0.280489 0.616508 0.242013
128 2 0.551084 0.358414 0.338227
129 2 0.363751 0.350852 0.550312
130 2 0.912222 0.894427 0.460051
131 2 0.0171674 0.332335 0.0203702
132 2 0.411432 0.330401 0.728873
133 2 0.729499 0.686648 0.482567
134 2 0.413241 0.553073 0.565083
135 2 0.141166 0.669936 0.824928
136 2 0.700749 0.162433 0.330144
137 2 0.128425 0.127039 0.537767
138 2 0.288055 0.104522 0.329192
139 2 0.360223 0.507632 0.250137
140 2 0.307094 0.254318 0.522815
141 2 0.922653 0.296791 0.601838
142 2 0.012828 0.734303 0.476906
143 2 0.104439 0.0729997 0.223749
144 2 0.971444 0.501715 0.419636
145 2 0.213426 0.321408 0.196413
146 2 0.259016 0.0196837 0.277674
147 2 0.103332 0.346305 0.362832
148 2 0.36463 0.364004 0.498379
149 2 0.524144 0.212817 0.535734
150 2 0.123188 0.228424 0.360796
151 2 0.843625 0.32804 0.0455412
152 2 0.461105 0.471106 0.831623
153 2 0.30067 0.159328 0.421572
154 2 0.251863 0.299887 0.410485
155 2 0.490174 0.146722 0.777679
156 2 0.371324 0.160893 0.542639
157 2 0.448076 0.532513 0.300838
158 2 0.16698 0.469444 0.686512
159 2 0.0858066 0.123418 0.156531
160 2 0.337121 0.912586 0.258121
161 2 0.231006 0.296122 0.284651
162 2 0.973344 0.276271 0.401545
163 2 0.530747 0.576624 0.245394
164 2 0.0115426 0.0898171 0.281541
165 2 0.234168 0.126261 0.181304
166 2 0.29371 0.584623 0.522643
167 2 0.788981 0.233282 0.115053
168 2 0.318236 0.0959771 0.380899
169 2 0.929636 0.577488 0.37279
170 2 0.539356 0.304297 0.83736
171 2 0.459599 0.307603 0.27751
172 2 0.125588 0.027817 0.824521
173 2 0.367623 0.227522 0.459058
174 2 0.362353 0.182502 0.911564
175 2 0.240224 0.24361 0.426745
176 2 0.262664 0.254997 0.842813
177 2 0.60243 0.160498 0.429445
178 2 0.882455 0.283451 0.290922
179 2 0.377261 0.78219 0.245198
180 2 0.36499 0.324087 0.575891
181 2 0.984454 0.343934 0.172716
182 2 0.516799 0.339829 0.177934
183 2 0.0515519 0.326284 0.338173
184 2 0.383779 0.268316 0.430271
185 2 0.017753 0.946198 0.489717
186 2 0.170537 0.490785 0.293586
187 2 0.434951 0.294818 0.254497
188 2 0.172706 0.152877 0.0858695
189 2 0.338087 0.28513 0.269575
190 2 0.244327 0.210187 0.270196
191 2 0.182558 0.309395 0.694732
192 2 0.278806 0.793 0.190783
193 2 0.580363 0.469207 0.545316
194 2 0.424365 0.623589 0.499689
195 2 0.198659 0.195935 0.45134
196 2 0.64265 0.0288651 0.0945264
197 2 0.23348 0.139448 0.0969427
198 2 0.767767 0.143017 0.675972
199 2 0.0772379 0.434645 0.678098
200 2 0.313221 0.221839 0.783493
201 2 0.334332 0.55744 0.160352
202 2 0.754319 0.291177 0.275059
203 2 0.889213 0.177798 0.126768
204 2 0.692336 0.0973392 0.435089
205 2 0.196396 0.456179 0.434301
206 2 0.260767 0.660221 0.296931
207 2 0.193142 0.894539 0.0806232
208 2 0.0778073 0.929147 0.232135
209 2 0.418163 0.878587 0.473741
210 2 0.985158 0.482894 0.797217
211 2 0.0470462 0.981187 0.550119
212 2 0.976621 0.961665 0.597095
213 2 0.357949 0.407618 0.341042
214 2 0.477317 0.1951 0.863565
215 2 0.980046 0.9113 0.274839
216 2 0.17995 0.963775 0.182013
217 2 0.15494 0.864893 0.351403
218 2 0.865798 0.225644 0.354833
219 2 0.250787 0.0892812 0.792201
220 2 0.235123 0.128493 0.38871
221 2 0.840579 0.268518 0.751775
222 2 0.812135 0.206031 0.103524
223 2 0.175674 0.0461229 0.385085
224 2 0.342483 0.846951 0.237616
225 2 0.400569 0.630843 0.304899
226 2 0.420858 0.368909 0.728302
227 2 0.223692 0.506945 0.211773
228 2 0.140979 0.199456 0.658022
229 2 0.761644 0.351683 0.288879
230 2 0.486954 0.404174 0.422744
231 2 0.211513 0.315658 0.470643
232 2 0.32048 0.231193 0.293806
233 2 0.166901 0.935842 0.545691
234 2 0.51626 0.615682 0.606921
235 2 0.297891 0.85068 0.12217
236 2 0.36433 0.985597 0.567976
237 2 0.0446763 0.897805 0.313575
238 2 0.163791 0.394472 0.273071
239 2 0.94785 0.208412 0.14352
240 2 0.860599 0.421546 0.83082
241 2 0.202792 0.312673 0.303472
242 2 0.107382 0.334072 0.310182
243 2 0.761354 0.276902 0.203931
244 2 0.43048 0.426333 0.15573
245 2 0.922974 0.291048 0.569802
246 2 0.108449 0.217953 0.279318
247 2 0.450302 0.709374 0.362403
248 2 0.214738 0.378638 0.110706
249 2 0.517309 0.829986 0.326207
250 2 0.944544 0.648587 0.442866
251 2 0.66116 0.966075 0.158956
252 2 0.27883 0.903857 0.897116
253 2 0.366574 0.944843 0.888123
254 2 0.229189 0.087236 0.502619
255 2 0.616498 0.356085 0.281329
256 2 0.119944 0.546371 0.166897
257 2 0.486276 0.0865594 0.493148
258 2 0.528826 0.903203 0.994268
259 2 0.571457 0.570658 0.29967
260 2 0.465906 0.32052 0.35422
261 2 0.108163 0.0666067 0.104704
262 2 0.226393 0.258298 0.233079
263 2 0.350672 0.3995 0.579151
264 2 0.414552 0.846698 0.816132
265 2 0.436554 0.964786 0.746092
266 2 0.503893 0.12148 0.213655
267 2 0.283443 0.391239 0.765787
268 2 0.222236 0.418315 0.464434
269 2 0.894305 0.0198223 0.556135
270 2 0.148408 0.678469 0.324153
271 2 0.326788 0.04961 0.234694
272 2 0.331426 0.567868 0.192268
273 2 0.502692 0.246483 0.166868
274 2 0.280545 0.0741826 0.310129
275 2 0.367656 0.406947 0.241105
276 2 0.598959 0.936545 0.48918
277 2 0.763351 0.348839 0.193422
278 2 0.617495 0.521969 0.471639
279 2 0.704538 0.236787 0.405936
280 2 0.0163315 0.333976 0.417143
281 2 0.95573 0.506849 0.178784
282 2 0.285237 0.530571 0.20183
283 2 0.325153 0.953707 0.469786
284 2 0.505638 0.920295 0.482543
285 2 0.541153 0.228583 0.474077
286 2 0.15223 0.166457 0.469787
287 2 0.108082 0.182352 0.393373
288 2 0.429595 0.725402 0.235589
289 2 0.311368 0.312529 0.277116
290 2 0.281451 0.0274517 0.84268
291 2 0.819481 0.47986 0.244665
292 2 0.242433 0.345509 0.189422
293 2 0.412481 0.867016 0.295548
294 2 0.167268 0.489246 0.351303
295 2 0.4957 0.263778 0.301158
296 2 0.98012 0.924765 0.304455
297 2 0.471689 0.231671 0.550218
298 2 0.142169 0.99523 0.239392
299 2 0.396863 0.357826 0.325368
300 2 0.597704 0.969931 0.354948
301 2 0.0456097 0.516317 0.210884
302 2 0.441473 0.116194 0.187941
303 2 0.170485 0.190445 0.638554
304 2 0.251865 0.323038 0.0851162
305 2 0.452067 0.0106844 0.406524
306 2 0.021766 0.298271 0.171483
307 2 0.347475 0.5614 0.543985
308 2 0.174336 0.296828 0.229364
309 2 0.364311 0.681622 0.202696
310 2 0.898772 0.444649 0.0901251
311 2 0.819958 0.35983 0.71404
312 2 0.121528 0.401859 0.547324
313 2 0.273479 0.405403 0.38239
314 2 0.740037 0.0142667 0.984425
315 2 0.491777 0.371164 0.265919
316 2 0.378029 0.389866 0.145125
317 2 0.234071 0.313155 0.826621
318 2 0.033478 0.120985 0.509221
319 2 0.163999 0.0902187 0.272676
320 2 0.433296 0.157264 0.547173
321 2 0.33946 0.787401 0.239238
322 2 0.0680671 0.284178 0.300622
323 2 0.317314 0.0828924 0.34148
324 2 0.931802 0.181519 0.398766
325 2 0.186589 0.226516 0.35186
326 2 0.41357 0.326668 0.288397
327 2 0.427658 0.0670373 0.30511
328 2 0.483762 0.184442 0.360454
329 2 0.185207 0.362713 0.232915
330 2 0.337071 0.359844 0.311898
331 2 0.193099 0.35449 0.202514
332 2 0.908398 0.584268 0.249609
333 2 0.107704 0.358471 0.0939514
334 2 0.613317 0.321499 0.379851
335 2 0.536984 0.606575 0.0809196
336 2 0.957569 0.97054 0.268189
337 2 0.968311 0.178866 0.694749
338 2 0.407951 0.351071 0.177502
339 2 0.335658 0.148094 0.206033
340 2 0.339658 0.488075 0.419153
341 2 0.17858 0.980938 0.238027
342 2 0.284939 0.377396 0.165583
343 2 0.488944 0.01327 0.39679
344 2 0.721277 0.495432 0.154724
345 2 0.384564 0.203906 0.232749
346 2 0.316304 0.0316614 0.301193
347 2 0.51806 0.540741 0.252276
348 2 0.95855 0.412295 0.414204
349 2 0.95872 0.595009 0.860556
350 2 0.873763 0.462877 0.142476
351 2 0.309701 0.18371 0.794392
352 2 0.153645 0.955923 0.306687
353 2 0.332062 0.887427 0.604017
354 2 0.169673 0.0130456 0.586668
355 2 0.38384 0.160673 0.465053
356 2 0.708226 0.493726 0.312031
357 2 0.408847 0.518094 0.220073
358 2 0.234172 0.758926 0.645608
359 2 0.663474 0.100439 0.48255
360 2 0.0821944 0.128877 0.220352
361 2 0.893001 0.778556 0.39712
362 2 0.42008 0.304689 0.557225
363 2 0.71913 0.266897 0.422754
364 2 0.361892 0.145709 0.257291
365 2 0.532519 0.357918 0.458527
366 2 0.191406 0.539921 0.698823
367 2 0.368618 0.0139841 0.325807
368 2 0.463352 0.980912 0.100575
369 2 0.261457 0.980853 0.352009
370 2 0.948279 0.177951 0.0950143
371 2 0.694729 0.266713 0.364922
372 2 0.0332515 0.155045 0.141543
373 2 0.162207 0.105438 0.243749
374 2 0.182943 0.361056 0.282076
375 2 0.521475 0.984218 0.314287
376 2 0.279866 0.445465 0.670034
377 2 0.308764 0.20111 0.146953
378 2 0.309209 0.675663 0.144194
379 2 0.258643 0.243301 0.304593
380 2 0.369087 0.305504 0.256581
381 2 0.267551 0.989476 0.296261
382 2 0.325941 0.0817679 0.519728
383 2 0.410636 0.405816 0.391417
384 2 0.973788 0.350563 0.388886
385 2 0.323657 0.015608 0.420639
386 2 0.128013 0.391231 0.314599
387 2 0.293828 0.303211 0.304849
388 2 0.585499 0.473349 0.336184
389 2 0.307025 0.408783 0.818669
390 2 0.990661 0.561397 0.828982
391 2 0.42857 0.545514 0.594077
392 2 0.16697 0.32921 0.295104
393 2 0.117347 0.176034 0.174465
394 2 0.990791 0.583518 0.552761
395 2 0.234941 0.92935 0.109011
396 2 0.532432 0.111526 0.463615
397 2 0.990593 0.820459 0.328846
398 2 0.704721 0.0118952 0.174665
399 2 0.558336 0.258983 0.18948
400 2 0.824959 0.970346 0.141692
401 2 0.514103 0.0616333 0.422431
402 2 0.268259 0.498526 0.116042
403 2 0.545525 0.4083 0.662064
404 2 0.703951 0.345534 0.31995
405 2 0.718773 0.105456 0.656931
406 2 0.537629 0.998285 0.287743
407 2 0.611533 0.42713 0.415043
408 2 0.135685 0.0672385 0.577775
409 2 0.123907 0.328252 0.840779
410 2 0.839236 0.761745 0.106017
411 2 0.305741 0.167637 0.342314
412 2 0.956398 0.368255 0.0142984
413 2 0.27913 0.664288 0.525815
414 2 0.180978 0.306717 0.782985
415 2 0.0991691 0.0390085 0.327067
416 2 0.899616 0.952911 0.720419
417 2 0.0538688 0.0784484 0.329523
418 2 0.115777 0.207365 0.33337
419 2 0.545739 0.551688 0.511084
420 2 0.082175 0.211918 0.807486
421 2 0.167791 0.03584 0.176994
422 2 0.566296 0.95693 0.527302
423 2 0.830311 0.194895 0.49748
424 2 0.0279402 0.106682 0.329422
425 2 0.175608 0.100274 0.354722
426 2 0.0122483 0.344651 0.107743
427 2 0.103651 0.972109 0.633935
428 2 0.0566181 0.0049033 0.347347
429 2 0.0984445 0.246019 0.184695
430 2 0.32086 0.609227 0.140555
431 2 0.407317 0.990906 0.486417
432 2 0.277225 0.426527 0.134853
433 2 0.749179 0.970921 0.172339
434 2 0.40201 0.307074 0.363947
435 2 0.115089 0.132486 0.299251
436 2 0.028575 0.188781 0.432594
437 2 0.289075 0.303249 0.250747
438 2 0.229666 0.406964 0.204728
439 2 0.976656 0.221873 0.230604
440 2 0.250864 0.215322 0.471956
441 2 0.285009 0.0913534 0.225167
442 2 0.173635 0.506116 0.181004
443 2 0.218593 0.244598 0.583957
444 2 0.119815 0.89151 0.469627
445 2 0.53011 0.412222 0.242112
446 2 0.0452588 0.497112 0.490955
447 2 0.204764 0.0715673 0.85416
448 2 0.234031 0.452023 0.360285
449 2 0.365833 0.597346 0.548757
450 2 0.391798 0.428139 0.345341
451 2 0.63449 0.997389 0.302573
452 2 0.257554 0.572972 0.484813
453 2 0.0534711 0.143014 0.166908
454 2 0.696805 0.987803 0.344232
455 2 0.573192 0.385128 0.208969
456 2 0.319475 0.477226 0.21244
457 2 0.225183 0.125395 0.33232
458 2 0.54952 0.344162 0.308302
459 2 0.354151 0.0937093 0.186877
460 2 0.435976 0.316662 0.422125
461 2 0.796546 0.791618 0.798733
462 2 0.480027 0.404327 0.091007
463 2 0.0062789 0.952488 0.314929
464 2 0.0547998 0.239937 0.336021
465 2 0.975899 0.191788 0.799111
466 2 0.554767 0.316221 0.418179
467 2 0.394648 0.0459135 0.0565104
468 2 0.617419 0.170033 0.762768
469 2 0.150678 0.474238 0.586489
470 2 0.300596 0.173951 0.26025
471 2 0.440259 0.995703 0.434438
472 2 0.99394 0.0648368 0.197752
473 2 0.238931 0.0720617 0.359701
474 2 0.37433 0.0884942 0.371675
475 2 0.410211 0.139139 0.118809
476 2 0.759127 0.150617 0.307573
477 2 0.824689 0.680865 0.444226
478 2 0.270721 0.271756 0.193969
479 2 0.289723 0.0187954 0.185303
480 2 0.722388 0.148611 0.440862
481 2 0.417734 0.158936 0.156042
482 2 0.681895 0.198595 0.237101
483 2 0.754294 0.165378 0.354909
484 2 0.384692 0.287248 0.820866
485 2 0.115504 0.277494 0.412102
486 2 0.453415 0.263675 0.241672
487 2 0.327495 0.222991 0.706639
488 2 0.862725 0.183275 0.393183
489 2 0.75822 0.602602 0.356082
490 2 0.405689 0.482653 0.472525
491 2 0.317434 0.021243 0.541025
492 2 0.375737 0.422509 0.397833
493 2 0.340352 0.442011 0.608884
494 2 0.209724 0.496717 0.113746
495 2 0.313951 0.0953808 0.648829
496 2 0.192441 0.304985 0.725695
497 2 0.0139815 0.217311 0.721677
498 2 0.0295432 0.43386 0.383299
499 2 0.300647 0.356832 0.598365
500 2 0.603701 0.483994 0.188733
501 2 0.983648 0.196138 0.134563
502 2 0.0373256 0.127789 0.118588
503 2 0.256876 0.0064673 0.172191
504 2 0.735669 0.985501 0.406528
505 2 0.496208 0.0248013 0.768434
506 2 0.231455 0.301345 0.590897
507 2 0.373348 0.314762 0.69254
508 2 0.183619 0.330708 0.140305
509 2 0.047424 0.542029 0.806697
510 2 0.316634 0.360069 0.0718054
511 2 0.301503 0.247618 0.11432
512 2 0.960659 0.347292 0.215162
513 2 0.897595 0.339975 0.305212
514 2 0.659102 0.341234 0.0721259
515 2 0.289619 0.0386782 0.323788
516 2 0.340026 0.396849 0.146665
517 2 0.122372 0.239802 0.8822
518 2 0.286446 0.529896 0.422487
519 2 0.162416 0.788363 0.329307
520 2 0.588147 0.450318 0.397482
521 2 0.330032 0.141638 0.302667
522 2 0.337896 0.84915 0.1673
523 2 0.0380266 0.405072 0.425973
524 2 0.134975 0.331206 0.751656
525 2 0.374457 0.75895 0.292328
526 2 0.398843 0.957994 0.740307
527 2 0.14261 0.286978 0.490457
528 2 0.507019 0.433587 0.263281
529 2 0.546073 0.184029 0.283377
530 2 0.291472 0.967647 0.142594
531 2 0.102589 0.329604 0.14408
532 2 0.483481 0.749528 0.389084
533 2 0.109292 0.540858 0.197833
534 2 0.178622 0.229343 0.256251
535 2 0.561006 0.216979 0.525378
536 2 0.939785 0.329094 0.191996
537 2 0.137046 0.138066 0.785958
538 2 0.608695 0.920514 0.255517
539 2 0.495509 0.0394764 0.348115
540 2 0.191763 0.109915 0.709228
541 2 0.925129 0.972686 0.739235
542 2 0.175364 0.37022 0.108781
543 2 0.225752 0.444844 0.306075
544 2 0.177431 0.221356 0.61948
545 2 0.326026 0.428168 0.1063
546 2 0.476942 0.424192 0.225048
547 2 0.383707 0.267877 0.612023
548 2 0.664133 0.356362 0.318766
549 2 0.716557 0.938327 0.68783
550 2 0.886846 0.205961 0.616028
551 2 0.257761 0.579147 0.284042
552 2 0.246332 0.383454 0.227622
553 2 0.768929 0.103348 0.0753162
554 2 0.583695 0.9618 0.0516676
555 2 0.462103 0.385668 0.773739
556 2 0.205755 0.294138 0.17513
557 2 0.256096 0.374942 0.837121
558 2 0.939636 0.39178 0.276229
559 2 0.602076 0.319196 0.284772
560 2 0.696761 0.11184 0.365348
561 2 0.831479 0.294826 0.709069
562 2 0.169713 0.40453 0.492485
563 2 0.325094 0.145884 0.477985
564 2 0.1823 0.0124254 0.290001
565 2 0.0906726 0.199326 0.221023
566 2 0.419035 0.595733 0.358724
567 2 0.417081 0.32061 0.60896
568 2 0.152844 0.895134 0.27569
569 2 0.969137 0.325974 0.306075
570 2 0.228269 0.0781311 0.416189
571 2 0.381318 0.516683 0.863053
572 2 0.0991781 0.28146 0.319421
573 2 0.55197 0.348261 0.382026
574 2 0.443897 0.435841 0.0564858
575 2 0.986188 0.117021 0.104052
576 2 0.254782 0.106275 0.346653
577 2 0.814344 0.584508 0.340197
578 2 0.405916 0.877778 0.190112
579 2 0.681412 0.165879 0.720192
580 2 0.0826193 0.3118 0.255941
581 2 0.560999 0.167939 0.496769
582 2 0.128171 0.18795 0.263491
583 2 0.269553 0.858515 0.27971
584 2 0.478438 0.151114 0.15679
585 2 0.12127 0.539804 0.724428
586 2 0.344315 0.539354 0.395885
587 2 0.551446 0.478248 0.262773
588 2 0.04339 0.589524 0.346424
589 2 0.927083 0.399301 0.845078
590 2 0.405456 0.81648 0.442704
591 2 0.281339 0.0919091 0.386384
592 2 0.112214 0.504343 0.126025
593 2 0.041199 0.829259 0.0954253
594 2 0.107885 0.638338 0.647033
595 2 0.929238 0.890798 0.134985
596 2 0.902453 0.160228 0.341015
597 2 0.116569 0.431452 0.213834
598 2 0.198321 0.667701 0.554698
599 2 0.107108 0.148478 0.805644
600 2 0.901634 0.306165 0.0581651
601 2 0.437586 0.202245 0.327724
602 2 0.937405 0.347574 0.377566
603 2 0.429604 0.582817 0.205752
604 2 0.308766 0.542476 0.295894
605 2 0.0393372 0.587726 0.125323
606 2 0.62047 0.519244 0.190577
607 2 0.414886 0.373021 0.408459
608 2 0.125704 0.573305 0.782936
609 2 0.17429 0.428155 0.289089
610 2 0.134841 0.331952 0.188308
611 2 0.26686 0.999388 0.141862
612 2 0.20332 0.149394 0.185616
613 2 0.364627 0.300256 0.794827
614 2 0.207637 0.258833 0.497098
615 2 0.132223 0.30925 0.667408
616 2 0.478148 0.959949 0.175874
617 2 0.178144 0.260648 0.410915
618 2 0.967203 0.00215245 0.147034
619 2 0.162378 0.359058 0.184029
620 2 0.178244 0.532192 0.477267
621 2 0.316738 0.248917 0.215103
622 2 0.0928426 0.483826 0.30299
623 2 0.520467 0.617327 0.349194
624 2 0.410614 0.484358 0.235388
625 2 0.231695 0.315968 0.514167
626 2 0.0874239 0.105823 0.499058
627 2 0.38357 0.208742 0.850551
628 2 0.369309 0.838553 0.277792
629 2 0.78045 0.286511 0.419737
630 2 0.590146 0.178624 0.588342
631 2 0.472283 0.203869 0.758472
632 2 0.202306 0.216014 0.38003
633 2 0.0855014 0.309769 0.608717
634 2 0.724086 0.698492 0.272075
635 2 0.685384 0.416253 0.81477
636 2 0.300224 0.417256 0.569919
637 2 0.334095 0.282706 0.858816
638 2 0.144045 0.0325879 0.247986
639 2 0.154726 0.266601 0.189913
640 2 0.361862 0.467165 0.438473
641 2 0.495689 0.0065366 0.447709
642 2 0.117257 0.394527 0.463787
643 2 0.440111 0.955913 0.432577
644 2 0.744639 0.266882 0.789934
645 2 0.326262 0.623179 0.307206
646 2 0.0513165 0.175765 0.589151
647 2 0.43958 0.031954 0.316075
648 2 0.385445 0.46316 0.3021
649 2 0.139276 0.271886 0.28111
650 2 0.337459 0.996522 0.20837
651 2 0.237409 0.369859 0.0498735
652 2 0.10283 0.844241 0.0782702
653 2 0.33654 0.133055 0.886048
654 2 0.250552 0.365774 0.35641
655 2 0.472679 0.339747 0.848787
656 2 0.160361 0.251139 0.686486
657 2 0.244447 0.139548 0.838772
658 2 0.19934 0.49546 0.851215
659 2 0.985764 0.0107354 0.118606
660 2 0.152183 0.455353 0.558604
661 2 0.327144 0.177757 0.843873
662 2 0.2561 0.349232 0.296132
663 2 0.767279 0.89251 0.352892
664 2 0.402626 0.28028 0.387128
665 2 0.476625 0.426719 0.306111
666 2 0.981884 0.664225 0.155686
667 2 0.274313 0.307679 0.359196
668 2 0.904144 0.30785 0.247036
669 2 0.311162 0.404082 0.786278
670 2 0.840619 0.125877 0.514913
671 2 0.150304 0.578762 0.356149
672 2 0.874764 0.57749 0.511566
673 2 0.081796 0.52827 0.348337
674 2 0.524784 0.215266 0.324419
675 2 0.418803 0.0900042 0.169262
676 2 0.190332 0.371243 0.485661
677 2 0.171181 0.814673 0.1845
678 2 0.0151859 0.642815 0.810537
679 2 0.280091 0.266789 0.262119
680 2 0.959554 0.332548 0.580932
681 2 0.912406 0.379602 0.56158
682 2 0.214707 0.104401 0.134527
683 2 0.0903257 0.640014 0.411778
684 2 0.00771188 0.665125 0.292689
685 2 0.287757 0.957294 0.191102
686 2 0.588933 0.390171 0.460064
687 2 0.439908 0.579166 0.869595
688 2 0.0625884 0.342135 0.651167
689 2 0.554334 0.243695 0.756909
690 2 0.0458954 0.0551691 0.503393
691 2 0.474148 0.207563 0.404473
692 2 0.599508 0.246349 0.488972
693 2 0.278715 0.335709 0.318402
694 2 0.220243 0.495521 0.327818
695 2 0.385364 0.260207 0.185603
696 2 0.842444 0.11967 0.752075
697 2 0.0521459 0.42764 0.254411
698 2 0.581602 0.939218 0.00649315
699 2 0.254567 0.112648 0.883911
700 2 0.224688 0.313655 0.25612
701 2 0.605536 0.727835 0.66443
702 2 0.920834 0.359682 0.177409
703 2 0.611457 0.441772 0.507394
704 2 0.373799 0.324748 0.421944
705 2 0.18625 0.0216282 0.361812
706 2 0.183971 0.264871 0.137566
707 2 0.993217 0.17504 0.824284
708 2 0.148446 0.510727 0.80482
709 2 0.101186 0.486246 0.173875
710 2 0.256371 0.507091 0.505652
711 2 0.818703 0.907485 0.014613
712 2 0.307208 0.321169 0.609658
713 2 0.870251 0.24357 0.219744
714 2 0.354873 0.394766 0.310242
715 2 0.629505 0.0619309 0.290066
716 2 0.0219932 0.536457 0.166808
717 2 0.249903 0.887413 0.333225
718 2 0.221224 0.902389 0.261776
719 2 0.0697856 0.337621 0.184016
720 2 0.047233 0.37534 0.373517
721 2 0.113763 0.463213 0.554166
722 2 0.464932 0.332127 0.676577
723 2 0.166595 0.279062 0.73703
724 2 0.483922 0.102589 0.69787
725 2 0.844403 0.720164 0.282031
726 2 0.487292 0.0798098 0.440701
727 2 0.11158 0.365231 0.264304
728 2 0.587471 0.0863176 0.193454
729 2 0.237424 0.8381 0.539352
730 2 0.184874 0.199525 0.32787
731 2 0.393897 0.124147 0.091627
732 2 0.296836 0.152427 0.371141
733 2 0.514537 0.614114 0.289607
734 2 0.133407 0.396763 0.221889
735 2 0.099089 0.237304 0.215639
736 2 0.92454 0.710828 0.456411
737 2 0.975751 0.779698 0.246287
738 2 0.222748 0.227581 0.453107
739 2 0.138927 0.161555 0.0999479
740 2 0.433357 0.33001 0.371227
741 2 0.215233 0.788897 0.210825
742 2 0.457057 0.388869 0.266838
743 2 0.102153 0.3035 0.228404
744 2 0.428015 0.821598 0.191525
745 2 0.00119726 0.291341 0.451417
746 2 0.765042 0.419785 0.453296
747 2 0.350386 0.428621 0.264016
748 2 0.521784 0.126233 0.404086
749 2 0.925568 0.0703091 0.618074
750 2 0.0557085 0.592447 0.184943
751 2 0.845279 0.213729 0.408106
752 2 0.0824909 0.189643 0.321225
753 2 0.401989 0.294596 0.272268
754 2 0.897743 0.981001 0.0823185
755 2 0.343474 0.0701519 0.101191
756 2 0.478989 0.451707 0.125257
757 2 0.260676 0.205999 0.199759
758 2 0.090139 0.284958 0.561715
759 2 0.435921 0.323838 0.58135
760 2 0.392497 0.121142 0.300785
761 2 0.0306856 0.277288 0.0434815
762 2 0.478844 0.199829 0.205272
763 2 0.00748115 0.142308 0.592796
764 2 0.108838 0.0976249 0.347237
765 2 0.931591 0.566988 0.208227
766 2 0.344617 0.548047 0.347597
767 2 0.994849 0.0264411 0.480864
768 2 0.287343 0.400465 0.321754
769 2 0.070128 0.35022 0.0853232
770 2 0.426858 0.0012131 0.297776
771 2 0.51175 0.422435 0.293972
772 2 0.262452 0.640009 0.348288
773 2 0.230398 0.0321623 0.182398
774 2 0.203345 0.577713 0.262354
775 2 0.252105 0.331517 0.341728
776 2 0.66907 0.283496 0.383125
777 2 0.0888922 0.310739 0.836577
778 2 0.106881 0.568851 0.906757
779 2 0.990961 0.281542 0.567702
780 2 0.840128 0.424407 0.21097
781 2 0.346645 0.622579 0.568363
782 2 0.978831 0.173367 0.286287
783 2 0.342589 0.97743 0.394819
784 2 0.870321 0.0893195 0.226637
785 2 0.44164 0.329877 0.451833
786 2 0.985667 0.875043 0.74782
787 2 0.127638 0.0451268 0.423354
788 2 0.485517 0.0210074 0.1941
789 2 0.154858 0.387092 0.777771
790 2 0.386199 0.138194 0.58875
791 2 0.246304 0.987092 0.234597
792 2 0.128527 0.418677 0.417887
793 2 0.239726 0.436305 0.127823
794 2 0.469417 0.115598 0.434457
795 2 0.561659 0.0384545 0.519843
796 2 0.179169 0.160499 0.228108
797 2 0.428088 0.25085 0.220413
798 2 0.409905 0.225545 0.100283
799 2 0.051655 0.479607 0.885181
800 2 0.0984269 0.255541 0.0742788
801 2 0.454842 0.0572107 0.441196
802 2 0.38762 0.614105 0.399321
803 2 0.938515 0.515402 0.0996724
804 2 0.377742 0.0406741 0.227431
805 2 0.720569 0.147309 0.189633
806 2 0.544483 0.274425 0.337415
807 2 0.120346 0.310519 0.362579
808 2 0.855532 0.341916 0.149357
809 2 0.997323 0.144651 0.449799
810 2 0.132445 0.602326 0.400759
811 2 0.188851 0.314793 0.0923401
812 2 0.207134 0.186533 0.178365
813 2 0.750006 0.189257 0.30543
814 2 0.254886 0.193554 0.347507
815 2 0.143043 0.984754 0.399932
816 2 0.551303 0.158357 0.776076
817 2 0.357231 0.467792 0.835509
818 2 0.478038 0.391768 0.374081
819 2 0.0497053 0.00152673 0.483458
820 2 0.547747 0.616457 0.19389
821 2 0.176542 0.115869 0.293778
822 2 0.2301 0.48328 0.929505
823 2 0.383019 0.71652 0.490727
824 2 0.298443 0.937611 0.218304
825 2 0.270096 0.17872 0.698646
826 2 0.255322 0.239013 0.249157
827 2 0.460798 0.280823 0.300307
828 2 0.319046 0.724219 0.264522
829 2 0.150677 0.267238 0.221698
830 2 0.921201 0.534807 0.40446
831 2 0.170419 0.198389 0.393457
832 2 0.870996 0.135348 0.608125
833 2 0.445484 0.172925 0.613899
834 2 0.933837 0.206626 0.195853
835 2 0.0282429 0.34397 0.291582
836 2 0.513827 0.175563 0.237905
837 2 0.0422104 0.977366 0.164639
838 2 0.319977 0.470665 0.0658933
839 2 0.950184 0.869216 0.155783
840 2 0.220185 0.0973023 0.199823
841 2 0.246793 0.285201 0.21736
842 2 0.20772 0.138228 0.290116
843 2 0.0829992 0.588386 0.437809
844 2 0.306994 0.284362 0.205179
845 2 0.916789 0.904366 0.565766
846 2 0.36375 0.33845 0.327738
847 2 0.521066 0.260595 0.394002
848 2 0.235169 0.115614 0.747806
849 2 0.303458 0.364811 0.326913
850 2 0.328331 0.132224 0.383047
851 2 0.702613 0.322251 0.696189
852 2 0.969935 0.0514119 0.346123
853 2 0.263159 0.441311 0.69924
854 2 0.320242 0.241604 0.645782
855 2 0.207937 0.996005 0.378289
856 2 0.281682 0.990524 0.853556
857 2 0.722335 0.0414872 0.131602
858 2 0.185128 0.148782 0.678683
859 2 0.885012 0.377272 0.184674
860 2 0.579624 0.23041 0.551233
861 2 0.258844 0.176667 0.580934
862 2 0.142104 0.451377 0.195178
863 2 0.546952 0.299256 0.481526
864 2 0.614766 0.188046 0.229278
865 2 0.0520488 0.791513 0.666537
866 2 0.287556 0.119501 0.734098
867 2 0.339652 0.409341 0.645958
868 2 0.179967 0.893031 0.357907
869 2 0.97668 0.979171 0.202732
870 2 0.121606 0.438892 0.354502
871 2 0.952031 0.606551 0.650556
872 2 0.548821 0.0828088 0.058727
873 2 0.911729 0.488103 0.253531
874 2 0.192989 0.626581 0.228373
875 2 0.35532 0.828556 0.144317
876 2 0.106183 0.330412 0.277549
877 2 0.0709398 0.655498 0.294691
878 2 0.956282 0.922997 0.43297
879 2 0.112948 0.385889 0.172648
880 2 0.0213367 0.250153 0.12547
881 2 0.048143 0.351569 0.579622
882 2 0.582903 0.949485 0.255999
883 2 0.720538 0.0694055 0.475937
884 2 0.985971 0.29373 0.293044
885 2 0.157085 0.958672 0.780621
886 2 0.199069 0.254706 0.465569
887 2 0.651158 0.930675 0.468462
888 2 0.184887 0.955168 0.131064
889 2 0.00604671 0.238735 0.0752184
890 2 0.451644 0.148113 0.390356
891 2 0.250587 0.39549 0.332972
892 2 0.166774 0.975379 0.333228
893 2 0.137216 0.029339 0.325245
894 2 0.313002 0.562838 0.465727
895 2 0.131587 0.259823 0.641821
896 2 0.967605 0.932406 0.578209
897 2 0.374849 0.47325 0.24294
898 2 0.227435 0.428009 0.335153
899 2 0.442451 0.345844 0.39993
900 2 0.475941 0.871099 0.502344
901 2 0.254639 0.550903 0.326288
902 2 0.0338958 0.251197 0.0952746
903 2 0.567241 0.216457 0.355267
904 2 0.61214 0.378141 0.531458
905 2 0.889116 0.298504 0.496184
906 2 0.217363 0.402337 0.0557035