 vasp.6.5.0 16Dec24 (build Jan 20 2025 08:32:48) complex                         
 executed on        HPECrayEX_GCC date 2025.07.22  01:01:39
 running  128 mpi-ranks, with    1 threads/rank, on    1 nodes
 distrk:  each k-point on  128 cores,    1 groups
 distr:  one band on NCORE=  16 cores,    8 groups


--------------------------------------------------------------------------------------------------------


 INCAR:
   SYSTEM = a-Si SPC
   NCORE = 16
   ISTART = 1
   ICHARG = 1
   ISPIN = 1
   ISYM = 1
   EDIFF = 1E-6
   NELM = 150
   EDIFFG = -0.01
   NSW = 0
   ISIF = 2
   IBRION = -1
   PREC = Accurate
   ENCUT = 1200
   KSPACING = 0.23
   KGAMMA = .TRUE.
   METAGGA = SCAN
   LASPH = .TRUE.
   LDIAG = .FALSE.
   LMIXTAU = .TRUE.
   ADDGRID = .TRUE.
   ALGO = Normal
   ISMEAR = 0
   SIGMA = 0.1
   LORBIT = 11
   NEDOS = 2000
   LWAVE = .FALSE.
   LCHARG = .FALSE.

 POTCAR:    PAW_PBE H 15Jun2001                   
 POTCAR:    PAW_PBE Si 05Jan2001                  
 POTCAR:    PAW_PBE H 15Jun2001                   
   SHA256 =  030f79b5d3ab3cf0e668861823c8fb652ff669f3e15e46930bd03bfd63a607b6 H/POTCAR              
   COPYR  = (c) Copyright 15Jun2001 Georg Kresse                                                    
   COPYR  = This file is part of the software VASP. Any use, copying, and all other rights are regul
   COPYR  = If you do not have a valid VASP license, you may not use, copy or distribute this file. 
   VRHFIN =H: ultrasoft test                                                                        
   LEXCH  = PE                                                                                      
   EATOM  =    12.4884 eV,    0.9179 Ry                                                             
                                                                                                    
   TITEL  = PAW_PBE H 15Jun2001                                                                     
   LULTRA =        F    use ultrasoft PP ?                                                          
   IUNSCR =        0    unscreen: 0-lin 1-nonlin 2-no                                               
   RPACOR =    0.000    partial core radius                                                         
   POMASS =    1.000; ZVAL   =    1.000    mass and valenz                                          
   RCORE  =    1.100    outmost cutoff radius                                                       
   RWIGS  =    0.700; RWIGS  =    0.370    wigner-seitz radius (au A)                               
   ENMAX  =  250.000; ENMIN  =  200.000 eV                                                          
   RCLOC  =    0.701    cutoff for local pot                                                        
   LCOR   =        T    correct aug charges                                                         
   LPAW   =        T    paw PP                                                                      
   EAUG   =  400.000                                                                                
   RMAX   =    1.123    core radius for proj-oper                                                   
   RAUG   =    1.200    factor for augmentation sphere                                              
   RDEP   =    1.112    radius for radial grids                                                     
   RDEPT  =    0.926    core radius for aug-charge                                                  
                                                                                                    
   Atomic configuration                                                                             
    2 entries                                                                                       
     n  l   j            E        occ.                                                              
     1  0  0.50        -6.4927   1.0000                                                             
     2  1  0.50        -3.4015   0.0000                                                             
   Description                                                                                      
     l       E           TYP  RCUT    TYP  RCUT                                                     
     0     -6.4927494     23  1.100                                                                 
     0      6.8029130     23  1.100                                                                 
     1     -4.0817478     23  1.100                                                                 
  local pseudopotential read in
  atomic valenz-charges read in
  non local Contribution for L=           0  read in
    real space projection operators read in
  non local Contribution for L=           0  read in
    real space projection operators read in
  non local Contribution for L=           1  read in
    real space projection operators read in
    PAW grid and wavefunctions read in

   number of l-projection  operators is LMAX  =           3
   number of lm-projection operators is LMMAX =           5

 POTCAR:    PAW_PBE Si 05Jan2001                  
   SHA256 =  79d9987ad8750f624c4d6acb2a16d13abf6a777132adc04dc6c8399be72b42bb Si/POTCAR             
   COPYR  = (c) Copyright 05Jan2001 Georg Kresse                                                    
   COPYR  = This file is part of the software VASP. Any use, copying, and all other rights are regul
   COPYR  = If you do not have a valid VASP license, you may not use, copy or distribute this file. 
   VRHFIN =Si: s2p2                                                                                 
   LEXCH  = PE                                                                                      
   EATOM  =   103.0669 eV,    7.5752 Ry                                                             
                                                                                                    
   TITEL  = PAW_PBE Si 05Jan2001                                                                    
   LULTRA =        F    use ultrasoft PP ?                                                          
   IUNSCR =        1    unscreen: 0-lin 1-nonlin 2-no                                               
   RPACOR =    1.500    partial core radius                                                         
   POMASS =   28.085; ZVAL   =    4.000    mass and valenz                                          
   RCORE  =    1.900    outmost cutoff radius                                                       
   RWIGS  =    2.480; RWIGS  =    1.312    wigner-seitz radius (au A)                               
   ENMAX  =  245.345; ENMIN  =  184.009 eV                                                          
   ICORE  =        2    local potential                                                             
   LCOR   =        T    correct aug charges                                                         
   LPAW   =        T    paw PP                                                                      
   EAUG   =  322.069                                                                                
   DEXC   =    0.000                                                                                
   RMAX   =    1.950    core radius for proj-oper                                                   
   RAUG   =    1.300    factor for augmentation sphere                                              
   RDEP   =    1.993    radius for radial grids                                                     
   RDEPT  =    1.837    core radius for aug-charge                                                  
                                                                                                    
   Atomic configuration                                                                             
    6 entries                                                                                       
     n  l   j            E        occ.                                                              
     1  0  0.50     -1785.8828   2.0000                                                             
     2  0  0.50      -139.4969   2.0000                                                             
     2  1  1.50       -95.5546   6.0000                                                             
     3  0  0.50       -10.8127   2.0000                                                             
     3  1  0.50        -4.0811   2.0000                                                             
     3  2  1.50        -4.0817   0.0000                                                             
   Description                                                                                      
     l       E           TYP  RCUT    TYP  RCUT                                                     
     0    -10.8127223     23  1.900                                                                 
     0     -7.6451159     23  1.900                                                                 
     1     -4.0811372     23  1.900                                                                 
     1      2.4879257     23  1.900                                                                 
     2     -4.0817478      7  1.900                                                                 
  local pseudopotential read in
  partial core-charges read in
  partial kinetic energy density read in
  atomic valenz-charges read in
  non local Contribution for L=           0  read in
    real space projection operators read in
  non local Contribution for L=           0  read in
    real space projection operators read in
  non local Contribution for L=           1  read in
    real space projection operators read in
  non local Contribution for L=           1  read in
    real space projection operators read in
    PAW grid and wavefunctions read in

   number of l-projection  operators is LMAX  =           4
   number of lm-projection operators is LMMAX =           8

 -----------------------------------------------------------------------------
|                                                                             |
|               ----> ADVICE to this user running VASP <----                  |
|                                                                             |
|     You have a (more or less) 'large supercell' and for larger cells it     |
|     might be more efficient to use real-space projection operators.         |
|     Therefore, try LREAL= Auto in the INCAR file.                           |
|     Mind: For very accurate calculation, you might also keep the            |
|     reciprocal projection scheme (i.e. LREAL=.FALSE.).                      |
|                                                                             |
 -----------------------------------------------------------------------------

 -----------------------------------------------------------------------------
|                                                                             |
|               ----> ADVICE to this user running VASP <----                  |
|                                                                             |
|     You enforced a specific xc type in the INCAR file but a different       |
|     type was found in the POTCAR file.                                      |
|     I HOPE YOU KNOW WHAT YOU ARE DOING!                                     |
|                                                                             |
 -----------------------------------------------------------------------------

  PAW_PBE H 15Jun2001                   :
 energy of atom  1       EATOM=  -12.4884
 kinetic energy error for atom=    0.0000 (will be added to EATOM!!)
  PAW_PBE Si 05Jan2001                  :
 energy of atom  2       EATOM= -103.0669
 kinetic energy error for atom=    0.0001 (will be added to EATOM!!)


 POSCAR:  H Si
  positions in cartesian coordinates
  No initial velocities read in


 exchange-correlation table for SCAN
   RHO(1)=    0.500       N(1)  =     2000
   RHO(2)=  100.500       N(2)  =     4000



--------------------------------------------------------------------------------------------------------


 ion  position               nearest neighbor table
   1  0.726  0.843  0.473-  23 0.81
   2  0.772  0.711  0.885-  19 0.84  52 1.91
   3  0.590  0.524  0.800-  31 1.51
   4  0.791  0.598  0.151-  33 1.47
   5  0.780  0.981  0.670-  38 1.49
   6  0.654  0.893  0.978-  17 0.72
   7  0.775  0.983  0.189-  48 1.54
   8  0.417  0.853  0.615-  37 1.41
   9  0.623  0.072  0.289-  39 1.49
  10  0.504  0.740  0.212-  20 0.77
  11  0.466  0.901  0.003-  15 0.73
  12  0.489  0.742  0.912-  14 0.76
  13  0.550  0.962  0.229-  18 0.77
  14  0.537  0.748  0.876-  12 0.76
  15  0.492  0.897  0.924-  11 0.73
  16  0.740  0.671  0.573-  52 1.60
  17  0.625  0.932  0.970-   6 0.72
  18  0.592  0.938  0.269-  13 0.77
  19  0.719  0.734  0.884-   2 0.84
  20  0.507  0.728  0.307-  10 0.77
  21  0.586  0.790  0.546-  24 0.75
  22  0.363  0.846  0.191-  71 1.54
  23  0.764  0.811  0.517-   1 0.81
  24  0.602  0.796  0.635-  21 0.75
  25  0.697  0.756  0.187-  26 0.76
  26  0.681  0.748  0.277-  25 0.76
  27  0.224  0.346  0.695-  44 2.24  70 2.34  77 2.43  79 2.55
  28  0.645  0.403  0.521-  34 2.36  64 2.38  31 2.42  56 2.51
  29  0.150  0.595  0.736-  75 2.31  70 2.34  85 2.38  60 2.47
  30  0.437  0.301  0.441-  79 2.37  78 2.41  64 2.43  47 2.46
  31  0.637  0.433  0.821-   3 1.51  65 2.27  28 2.42  68 2.48
  32  0.921  0.030  0.443-  38 2.19  83 2.29  50 2.35  48 2.37
  33  0.826  0.505  0.183-   4 1.47  68 2.36  62 2.37  34 2.45
  34  0.799  0.442  0.464-  81 2.36  28 2.36  33 2.45  46 2.46
  35  0.782  0.199  0.686-  38 2.33  69 2.36  56 2.36  81 2.43
  36  0.290  0.143  0.284-  79 2.34  51 2.36  40 2.42  72 2.52
  37  0.332  0.889  0.562-   8 1.41  42 2.31  71 2.36  72 2.58
  38  0.851  0.055  0.683-   5 1.49  32 2.19  53 2.32  35 2.33
  39  0.642  0.172  0.291-   9 1.49  59 2.28  56 2.29  78 2.40
  40  0.146  0.077  0.193-  36 2.42  63 2.45  50 2.56  74 2.57
  41  0.986  0.869  0.876-  76 2.30  43 2.34  82 2.34  53 2.47
  42  0.214  0.812  0.694-  37 2.31  76 2.36  60 2.38  75 2.58
  43  0.962  0.781  0.634-  41 2.34  75 2.39  52 2.41  83 2.44  76 2.98
  44  0.074  0.364  0.732-  27 2.24  66 2.37  85 2.38  57 2.46
  45  0.275  0.516  0.300-  80 2.37  61 2.40  70 2.44  49 2.45
  46  0.865  0.524  0.707-  68 2.34  52 2.36  85 2.43  34 2.46
  47  0.494  0.228  0.699-  58 2.29  56 2.42  30 2.46  65 2.47
  48  0.854  0.051  0.173-   7 1.54  32 2.37  53 2.39  59 2.41
  49  0.226  0.670  0.217-  60 2.38  45 2.45  67 2.48  71 2.50  82 3.04
  50  0.051  0.124  0.450-  32 2.35  73 2.40  40 2.56  57 2.59
  51  0.383  0.176  0.048-  36 2.36  78 2.40  58 2.42  77 2.60
  52  0.832  0.682  0.679-  16 1.60   2 1.91  46 2.36  43 2.41
  53  0.940  0.030  0.920-  38 2.32  63 2.38  48 2.39  41 2.47
  54  0.410  0.444  0.968-  65 2.30  77 2.34  80 2.42  55 2.43
  55  0.412  0.509  0.687-  64 2.35  70 2.42  54 2.43
  56  0.640  0.232  0.558-  39 2.29  35 2.36  47 2.42  28 2.51
  57  0.016  0.298  0.467-  81 2.43  44 2.46  84 2.49  50 2.59
  58  0.415  0.100  0.784-  47 2.29  72 2.38  51 2.42
  59  0.787  0.201  0.201-  39 2.28  48 2.41  69 2.46  81 2.59
  60  0.204  0.714  0.932-  42 2.38  49 2.38  82 2.45  29 2.47
  61  0.208  0.384  0.170-  77 2.27  84 2.36  45 2.40  79 2.56
  62  0.986  0.522  0.145-  33 2.37  67 2.40  84 2.45  85 2.63
  63  0.076  0.120  0.924-  53 2.38  73 2.44  40 2.45  66 2.48
  64  0.496  0.457  0.453-  80 2.30  55 2.35  28 2.38  30 2.43
  65  0.526  0.340  0.925-  31 2.27  54 2.30  78 2.44  47 2.47
  66  0.007  0.274  0.948-  44 2.37  84 2.39  63 2.48  69 2.54
  67  0.058  0.654  0.263-  82 2.37  62 2.40  75 2.45  49 2.48
  68  0.798  0.436  0.920-  46 2.34  33 2.36  69 2.44  31 2.48
  69  0.833  0.273  0.934-  35 2.36  68 2.44  59 2.46  66 2.54
  70  0.253  0.496  0.603-  29 2.34  27 2.34  55 2.42  45 2.44
  71  0.281  0.824  0.306-  22 1.54  37 2.36  74 2.44  49 2.50
  72  0.310  0.065  0.564-  58 2.38  73 2.41  36 2.52  37 2.58
  73  0.155  0.075  0.667-  76 2.34  50 2.40  72 2.41  63 2.44
  74  0.138  0.903  0.240-  71 2.44  83 2.50  82 2.54  40 2.57
  75  0.098  0.704  0.548-  29 2.31  43 2.39  67 2.45  42 2.58
  76  0.100  0.927  0.707-  83 2.26  41 2.30  73 2.34  42 2.36  43 2.98
  77  0.300  0.327  0.965-  61 2.27  54 2.34  27 2.43  51 2.60
  78  0.509  0.251  0.183-  51 2.40  39 2.40  30 2.41  65 2.44
  79  0.276  0.288  0.408-  36 2.34  30 2.37  27 2.55  61 2.56
  80  0.432  0.530  0.225-  64 2.30  45 2.37  54 2.42
  81  0.850  0.289  0.461-  34 2.36  57 2.43  35 2.43  59 2.59
  82  0.067  0.776  0.066-  41 2.34  67 2.37  60 2.45  74 2.54  49 3.04
  83  0.020  0.909  0.467-  76 2.26  32 2.29  43 2.44  74 2.50
  84  0.047  0.366  0.186-  61 2.36  66 2.39  62 2.45  57 2.49
  85  0.018  0.510  0.820-  29 2.38  44 2.38  46 2.43  62 2.63

  LATTYP: Found a simple tetragonal cell.
 ALAT       =    14.5871822212
 C/A-ratio  =     0.5449070837
  
  Lattice vectors:
  
 A1 = (  14.5871822212,   0.0000000000,   0.0000000000)
 A2 = (   0.0000000000,  14.5871822212,   0.0000000000)
 A3 = (   0.0000000000,   0.0000000000,   7.9486589237)


Analysis of symmetry for initial positions (statically):
=====================================================================
 Subroutine PRICEL returns:
 Original cell was already a primitive cell.
 

 Routine SETGRP: Setting up the symmetry group for a 
 simple tetragonal supercell.


 Subroutine GETGRP returns: Found  1 space group operations
 (whereof  1 operations were pure point group operations)
 out of a pool of 16 trial point group operations.


The static configuration has the point symmetry C_1 .


Analysis of symmetry for dynamics (positions and initial velocities):
=====================================================================
 Subroutine PRICEL returns:
 Original cell was already a primitive cell.
 

 Routine SETGRP: Setting up the symmetry group for a 
 simple tetragonal supercell.


 Subroutine GETGRP returns: Found  1 space group operations
 (whereof  1 operations were pure point group operations)
 out of a pool of 16 trial point group operations.


The dynamic configuration has the point symmetry C_1 .


 Subroutine INISYM returns: Found  1 space group operations
 (whereof  1 operations are pure point group operations),
 and found     1 'primitive' translations


----------------------------------------------------------------------------------------

                                     Primitive cell                                     

  volume of cell :    1691.3624

  direct lattice vectors                    reciprocal lattice vectors
    14.587182221  0.000000000  0.000000000     0.068553336  0.000000000  0.000000000
     0.000000000 14.587182221  0.000000000     0.000000000  0.068553336  0.000000000
     0.000000000  0.000000000  7.948658924     0.000000000  0.000000000  0.125807386

  length of vectors
    14.587182221 14.587182221  7.948658924     0.068553336  0.068553336  0.125807386

  position of ions in fractional coordinates (direct lattice)
     0.726260894  0.843185463  0.472766543
     0.772445276  0.711007777  0.885179509
     0.589660832  0.524415194  0.800416782
     0.790755872  0.597738471  0.150742410
     0.780349476  0.981251881  0.669684037
     0.654332677  0.892687827  0.977827842
     0.774981750  0.982506408  0.189000436
     0.416928363  0.853016012  0.614703694
     0.622841332  0.072055726  0.288700273
     0.503503685  0.740245774  0.212406900
     0.466250431  0.900674291  0.003240934
     0.488949812  0.741712816  0.912260806
     0.549962280  0.961673049  0.228597052
     0.536726688  0.747848339  0.876081118
     0.491654241  0.897143794  0.923691666
     0.739697348  0.670653170  0.572758253
     0.625001447  0.932222536  0.969659168
     0.591896356  0.938296361  0.269035320
     0.719357573  0.733609812  0.884126501
     0.506871710  0.728200953  0.306567438
     0.585865033  0.789974364  0.545636697
     0.363273723  0.845769924  0.190832191
     0.764157178  0.810848855  0.516517319
     0.601801627  0.795554606  0.635309685
     0.697317676  0.755827948  0.187291971
     0.681318013  0.748143119  0.277390189
     0.224432653  0.346336936  0.694534770
     0.645319285  0.402890011  0.521386065
     0.149986472  0.594582961  0.735511494
     0.437473112  0.301132867  0.440518336
     0.636840608  0.432790919  0.820573642
     0.920547903  0.030236340  0.442941386
     0.825985431  0.504797286  0.183327781
     0.799119379  0.441881091  0.464180189
     0.782358089  0.199011019  0.686480581
     0.290099207  0.143109887  0.284246691
     0.332086069  0.888814564  0.561849495
     0.850815450  0.054538155  0.683063653
     0.641864882  0.172475394  0.290578577
     0.145884241  0.077292515  0.192989788
     0.986057470  0.868920386  0.876020731
     0.214286073  0.811664640  0.693510698
     0.961817011  0.781336644  0.634072999
     0.073518654  0.363673389  0.732124759
     0.275251926  0.516015354  0.300444392
     0.864553538  0.523960000  0.706814829
     0.493579218  0.227828785  0.699421129
     0.854435066  0.051215512  0.173026672
     0.225667984  0.669560430  0.217085677
     0.051114464  0.124030808  0.450436990
     0.382605079  0.175665866  0.048370424
     0.832360892  0.681881521  0.678821428
     0.939763403  0.029659943  0.920150188
     0.410125815  0.443843088  0.968305481
     0.411933567  0.509074329  0.686884423
     0.640074269  0.231949526  0.557626141
     0.016107018  0.297832024  0.467093888
     0.415357120  0.099814342  0.784149887
     0.787465312  0.201329493  0.201358495
     0.204349953  0.713852740  0.931749629
     0.207678217  0.383758831  0.169755680
     0.986160300  0.521629187  0.145073529
     0.075944071  0.119504231  0.923875344
     0.495969673  0.456797612  0.453292818
     0.525695771  0.339567294  0.925493227
     0.007030967  0.274257217  0.948298332
     0.058308382  0.654460872  0.263405440
     0.797816866  0.436322787  0.919966509
     0.832943595  0.272640729  0.934176453
     0.253342965  0.496035484  0.602638765
     0.281269538  0.824011095  0.305709431
     0.310085247  0.064590473  0.563930349
     0.155160192  0.075274990  0.666626918
     0.138456487  0.903053091  0.239913427
     0.098073773  0.703754834  0.548415782
     0.100301071  0.926518898  0.707305478
     0.300204655  0.327296933  0.965006811
     0.509044165  0.250662530  0.183229651
     0.276266515  0.287738230  0.408292774
     0.431978562  0.529615650  0.225352480
     0.850027086  0.288664386  0.460501581
     0.066882005  0.776085458  0.065681772
     0.019701132  0.908893836  0.466725272
     0.047256077  0.366429919  0.186267899
     0.018469982  0.509835956  0.820314479

  ion indices of the primitive-cell ions
   primitive index   ion index
                 1           1
                 2           2
                 3           3
                 4           4
                 5           5
                 6           6
                 7           7
                 8           8
                 9           9
                10          10
                11          11
                12          12
                13          13
                14          14
                15          15
                16          16
                17          17
                18          18
                19          19
                20          20
                21          21
                22          22
                23          23
                24          24
                25          25
                26          26
                27          27
                28          28
                29          29
                30          30
                31          31
                32          32
                33          33
                34          34
                35          35
                36          36
                37          37
                38          38
                39          39
                40          40
                41          41
                42          42
                43          43
                44          44
                45          45
                46          46
                47          47
                48          48
                49          49
                50          50
                51          51
                52          52
                53          53
                54          54
                55          55
                56          56
                57          57
                58          58
                59          59
                60          60
                61          61
                62          62
                63          63
                64          64
                65          65
                66          66
                67          67
                68          68
                69          69
                70          70
                71          71
                72          72
                73          73
                74          74
                75          75
                76          76
                77          77
                78          78
                79          79
                80          80
                81          81
                82          82
                83          83
                84          84
                85          85

----------------------------------------------------------------------------------------


 -----------------------------------------------------------------------------
|                                                                             |
|           W    W    AA    RRRRR   N    N  II  N    N   GGGG   !!!           |
|           W    W   A  A   R    R  NN   N  II  NN   N  G    G  !!!           |
|           W    W  A    A  R    R  N N  N  II  N N  N  G       !!!           |
|           W WW W  AAAAAA  RRRRR   N  N N  II  N  N N  G  GGG   !            |
|           WW  WW  A    A  R   R   N   NN  II  N   NN  G    G                |
|           W    W  A    A  R    R  N    N  II  N    N   GGGG   !!!           |
|                                                                             |
|     The requested file  could not be found or opened for reading            |
|     k-point information. Automatic k-point generation is used as a          |
|     fallback, which may lead to unwanted results.                           |
|                                                                             |
 -----------------------------------------------------------------------------



Automatic generation of k-mesh.
 Grid dimensions derived from KSPACING:
 generate k-points for:    2    2    4

 Generating k-lattice:

  Cartesian coordinates                     Fractional coordinates (reciprocal lattice)
     0.034276668  0.000000000  0.000000000     0.500000000  0.000000000  0.000000000
     0.000000000  0.034276668  0.000000000     0.000000000  0.500000000  0.000000000
     0.000000000  0.000000000  0.031451846     0.000000000  0.000000000  0.250000000

  Length of vectors
     0.034276668  0.034276668  0.031451846

  Shift w.r.t. Gamma in fractional coordinates (k-lattice)
     0.000000000  0.000000000  0.000000000

 
 Subroutine IBZKPT returns following result:
 ===========================================
 
 Found     12 irreducible k-points:
 
 Following reciprocal coordinates:
            Coordinates               Weight
  0.000000  0.000000  0.000000      1.000000
  0.500000  0.000000  0.000000      1.000000
  0.000000  0.500000  0.000000      1.000000
  0.500000  0.500000  0.000000      1.000000
  0.000000  0.000000  0.250000      2.000000
  0.500000  0.000000  0.250000      2.000000
  0.000000  0.500000  0.250000      2.000000
  0.500000  0.500000  0.250000      2.000000
  0.000000  0.000000  0.500000      1.000000
  0.500000  0.000000  0.500000      1.000000
  0.000000  0.500000  0.500000      1.000000
  0.500000  0.500000  0.500000      1.000000
 
 Following cartesian coordinates:
            Coordinates               Weight
  0.000000  0.000000  0.000000      1.000000
  0.034277  0.000000  0.000000      1.000000
  0.000000  0.034277  0.000000      1.000000
  0.034277  0.034277  0.000000      1.000000
  0.000000  0.000000  0.031452      2.000000
  0.034277  0.000000  0.031452      2.000000
  0.000000  0.034277  0.031452      2.000000
  0.034277  0.034277  0.031452      2.000000
  0.000000  0.000000  0.062904      1.000000
  0.034277  0.000000  0.062904      1.000000
  0.000000  0.034277  0.062904      1.000000
  0.034277  0.034277  0.062904      1.000000
 


--------------------------------------------------------------------------------------------------------




 Dimension of arrays:
   k-points           NKPTS =     12   k-points in BZ     NKDIM =     12   number of bands    NBANDS=    176
   number of dos      NEDOS =   2000   number of ions     NIONS =     85
   non local maximal  LDIM  =      4   non local SUM 2l+1 LMDIM =      8
   total plane-waves  NPLWV = ******
   max r-space proj   IRMAX =      1   max aug-charges    IRDMAX= 401865
   dimension x,y,z NGX =   168 NGY =  168 NGZ =   90
   dimension x,y,z NGXF=   336 NGYF=  336 NGZF=  180
   support grid    NGXF=   672 NGYF=  672 NGZF=  360
   ions per type =              26  59
   NGX,Y,Z   is equivalent  to a cutoff of  19.15, 19.15, 18.82 a.u.
   NGXF,Y,Z  is equivalent  to a cutoff of  38.29, 38.29, 37.65 a.u.

 SYSTEM =  a-Si SPC                                
 POSCAR =   H Si                                   

 Startparameter for this run:
   NWRITE =      2    write-flag & timer
   PREC   = accura    normal or accurate (medium, high low for compatibility)
   ISTART =      1    job   : 0-new  1-cont  2-samecut
   ICHARG =      1    charge: 1-file 2-atom 10-const
   ISPIN  =      1    spin polarized calculation?
   LNONCOLLINEAR =      F non collinear calculations
   LSORBIT =      F    spin-orbit coupling
   INIWAV =      1    electr: 0-lowe 1-rand  2-diag
   LASPH  =      T    aspherical Exc in radial PAW
 Electronic Relaxation 1
   ENCUT  = 1200.0 eV  88.20 Ry    9.39 a.u.  41.20 41.20 22.45*2*pi/ulx,y,z
   ENINI  = 1200.0     initial cutoff
   ENAUG  =  400.0 eV  augmentation charge cutoff
   NELM   =    150;   NELMIN=  2; NELMDL=  0     # of ELM steps 
   EDIFF  = 0.1E-05   stopping-criterion for ELM
   LREAL  =      F    real-space projection
   NLSPLINE    = F    spline interpolate recip. space projectors
   LCOMPAT=      F    compatible to vasp.4.4
   GGA_COMPAT  = T    GGA compatible to vasp.4.4-vasp.4.6
   LMAXPAW     = -100 max onsite density
   LMAXMIX     =    2 max onsite mixed and CHGCAR
   VOSKOWN=      0    Vosko Wilk Nusair interpolation
   ROPT   =    0.00000   0.00000
 Ionic relaxation
   EDIFFG = -.1E-01   stopping-criterion for IOM
   NSW    =      0    number of steps for IOM
   NBLOCK =      1;   KBLOCK =      1    inner block; outer block 
   IBRION =     -1    ionic relax: 0-MD 1-quasi-New 2-CG
   NFREE  =      0    steps in history (QN), initial steepest desc. (CG)
   ISIF   =      2    stress and relaxation
   IWAVPR =     10    prediction:  0-non 1-charg 2-wave 3-comb
   ISYM   =      1    0-nonsym 1-usesym 2-fastsym
   LCORR  =      T    Harris-Foulkes like correction to forces

   POTIM  = 0.5000    time-step for ionic-motion
   TEIN   =    0.0    initial temperature
   TEBEG  =    0.0;   TEEND  =   0.0 temperature during run
   SMASS  =  -3.00    Nose mass-parameter (am)
   estimated Nose-frequenzy (Omega)   =  0.10E-29 period in steps = 0.13E+47 mass=  -0.486E-26a.u.
   SCALEE = 1.0000    scale energy and forces
   NPACO  =    256;   APACO  = 10.0  distance and # of slots for P.C.
   PSTRESS=    0.0 pullay stress

  Mass of Ions in am
   POMASS =   1.00 28.09
  Ionic Valenz
   ZVAL   =   1.00  4.00
  Atomic Wigner-Seitz radii
   RWIGS  =  -1.00 -1.00
  virtual crystal weights 
   VCA    =   1.00  1.00
   NELECT =     262.0000    total number of electrons
   NUPDOWN=      -1.0000    fix difference up-down

 DOS related values:
   EMIN   =  10.00;   EMAX   =-10.00  energy-range for DOS
   EFERMI =   0.00;   METHOD = LEGACY      
   ISMEAR =     0;   SIGMA  =   0.10  broadening in eV -4-tet -1-fermi 0-gaus
   EFERMI_NEDOS =   21; number of points for ismear=-14 and -15

 Electronic relaxation 2 (details)
   IALGO  =     38    algorithm
   LDIAG  =      F    sub-space diagonalisation (order eigenvalues)
   LSUBROT=      F    optimize rotation matrix (better conditioning)
   TURBO    =      0    0=normal 1=particle mesh
   IRESTART =      0    0=no restart 2=restart with 2 vectors
   NREBOOT  =      0    no. of reboots
   NMIN     =      0    reboot dimension
   EREF     =   0.00    reference energy to select bands
   IMIX   =      4    mixing-type and parameters
     AMIX     =   0.40;   BMIX     =  1.00
     AMIX_MAG =   1.60;   BMIX_MAG =  1.00
     AMIN     =   0.10
     WC   =   100.;   INIMIX=   1;  MIXPRE=   1;  MAXMIX= -45

 Intra band minimization:
   WEIMIN = 0.0000     energy-eigenvalue tresh-hold
   EBREAK =  0.14E-08  absolut break condition
   DEPER  =   0.30     relativ break condition  

   TIME   =   0.40     timestep for ELM

  volume/ion in A,a.u.               =      19.90       134.28
  Fermi-wavevector in a.u.,A,eV,Ry     =   0.879218  1.661480 10.517624  0.773024
  Thomas-Fermi vector in A             =   1.999411

 Write flags
   LWAVE        =      F    write WAVECAR
   LDOWNSAMPLE  =      F    k-point downsampling of WAVECAR
   LCHARG       =      F    write CHGCAR
   LVTOT        =      F    write LOCPOT, total local potential
   LVHAR        =      F    write LOCPOT, Hartree potential only
   WRT_POTENTIAL= false  ! write potential to hdf5 file
   LELF         =      F    write electronic localiz. function (ELF)
   LORBIT       =     11    0 simple, 1 ext, 2 COOP (PROOUT), +10 PAW based schemes


 Python interface
   PLUGINS active      =      F    recompile with -DPLUGINS to activate

 Dipole corrections
   LMONO      =      F    monopole corrections only (constant potential shift)
   LDIPOL     =      F    correct potential (dipole corrections)
   IDIPOL     =      0    1-x, 2-y, 3-z, 4-all directions 
   EPSILON    =  1.0000000 bulk dielectric constant
   LVACPOTAV  =      F  vacuum potentials using an averaging scheme for the charge density
   VACPOTFLAT =  0.1000000 required flatness to determine vacuum potential

Coulomb truncation method
  LTRUNCATE          =      F  Coulomb kernel truncation to be used
  IDIMENSIONALITY    =      3  Dimensionality of cutoff (0 molecules / 2 surfaces)
  ISURFACE           =     -1  Direction of surface normal
  LCOARSEN           =      F  Coarsen the charge grid before padding, preferred


 Exchange correlation treatment:
   METAGGA = SCAN    functional components
   XC_C    = 1    coefficients multiplying the functional components
   LIBXC   =     F    Libxc                    
   VOSKOWN =     0    Vosko Wilk Nusair interpolation
   LHFCALC =     F    Hartree Fock is set to
   LHFONE  =     F    Hartree Fock one center treatment
   AEXX    =    0.0000 exact exchange contribution

 Parameters of functionals:
   SCAN:
     P1 =  0.000000E+00
     P2 =  0.000000E+00
     P3 =  0.000000E+00

 Accuracy and mixing parameters for tau-dependent meta-GGA functionals:
   LMAXTAU = 6
   LMIXTAU = T

 Van der Waals corrections
   IVDW    =     0    specifies the selected vdW correction

 Linear response parameters
   LEPSILON=     F    determine dielectric tensor
   LRPA    =     F    only Hartree local field effects (RPA)
   LNABLA  =     F    use nabla operator in PAW spheres
   LVEL    =     F    velocity operator in full k-point grid
   CSHIFT  =0.1000    complex shift for real part using Kramers Kronig
   OMEGAMAX=  -1.0    maximum frequency
   DEG_THRESHOLD= 0.2000000E-02 threshold for treating states as degnerate
   RTIME   =   -0.100 relaxation time in fs
  (WPLASMAI=    0.000 imaginary part of plasma frequency in eV, 0.658/RTIME)
   DFIELD  = 0.0000000 0.0000000 0.0000000 field for delta impulse in time

  Optional k-point grid parameters
   LKPOINTS_OPT  =     F    use optional k-point grid
   KPOINTS_OPT_MODE=     1    mode for optional k-point grid

 Orbital magnetization related:
   ORBITALMAG=     F  switch on orbital magnetization
   LCHIMAG   =     F  perturbation theory with respect to B field
   DQ        =  0.001000  dq finite difference perturbation B field
   LLRAUG    =     F  two centre corrections for induced B field
   LBONE     =     F  B-component reconstruction in AE one-centre
   LVGVCALC  =     T  calculate vGv susceptibility
   LVGVAPPL  =     F  apply vGv susceptibility instead of pGv for G=0

 Random number generation:
   RANDOM_GENERATOR = DEFAULT
   PCG_SEED         = not used


--------------------------------------------------------------------------------------------------------


 Static calculation
 charge density and potential will be updated during run
 non-spin polarized calculation
 Variant of blocked Davidson
 perform Loewdin sub-space diagonalisation
    ordering is kept fixed
    before iterative eigenvector-optimisation
 modified Broyden-mixing scheme, WC =      100.0
 initial mixing is a Kerker type mixing with AMIX =  0.4000 and BMIX =      1.0000
 Hartree-type preconditioning will be used
 using additional bands           45
 reciprocal scheme for non local part
 use partial core corrections
 calculate Harris-corrections to forces   (improved forces if not selfconsistent)
 use gradient corrections 
 use of overlap-Matrix (Vanderbilt PP)
 Gauss-broadening in eV      SIGMA  =   0.10


--------------------------------------------------------------------------------------------------------


  energy-cutoff  :     1200.00
  volume of cell :     1691.36
      direct lattice vectors                 reciprocal lattice vectors
    14.587182221  0.000000000  0.000000000     0.068553336  0.000000000  0.000000000
     0.000000000 14.587182221  0.000000000     0.000000000  0.068553336  0.000000000
     0.000000000  0.000000000  7.948658924     0.000000000  0.000000000  0.125807386

  length of vectors
    14.587182221 14.587182221  7.948658924     0.068553336  0.068553336  0.125807386



 old parameters found on file WAVECAR:
  energy-cutoff  :     1200.00
  volume of cell :     1691.36
      direct lattice vectors                 reciprocal lattice vectors
    14.587182221  0.000000000  0.000000000     0.068553336  0.000000000  0.000000000
     0.000000000 14.587182221  0.000000000     0.000000000  0.068553336  0.000000000
     0.000000000  0.000000000  7.948658924     0.000000000  0.000000000  0.125807386

  length of vectors


 k-points in units of 2pi/SCALE and weight: read from INCAR                         
   0.00000000  0.00000000  0.00000000       0.062
   0.03427667  0.00000000  0.00000000       0.062
   0.00000000  0.03427667  0.00000000       0.062
   0.03427667  0.03427667  0.00000000       0.062
   0.00000000  0.00000000  0.03145185       0.125
   0.03427667  0.00000000  0.03145185       0.125
   0.00000000  0.03427667  0.03145185       0.125
   0.03427667  0.03427667  0.03145185       0.125
   0.00000000  0.00000000  0.06290369       0.062
   0.03427667  0.00000000  0.06290369       0.062
   0.00000000  0.03427667  0.06290369       0.062
   0.03427667  0.03427667  0.06290369       0.062

 k-points in reciprocal lattice and weights: read from INCAR                         
   0.00000000  0.00000000  0.00000000       0.062
   0.50000000  0.00000000  0.00000000       0.062
   0.00000000  0.50000000  0.00000000       0.062
   0.50000000  0.50000000  0.00000000       0.062
   0.00000000  0.00000000  0.25000000       0.125
   0.50000000  0.00000000  0.25000000       0.125
   0.00000000  0.50000000  0.25000000       0.125
   0.50000000  0.50000000  0.25000000       0.125
   0.00000000  0.00000000  0.50000000       0.062
   0.50000000  0.00000000  0.50000000       0.062
   0.00000000  0.50000000  0.50000000       0.062
   0.50000000  0.50000000  0.50000000       0.062

 position of ions in fractional coordinates (direct lattice) 
   0.72626089  0.84318546  0.47276654
   0.77244528  0.71100778  0.88517951
   0.58966083  0.52441519  0.80041678
   0.79075587  0.59773847  0.15074241
   0.78034948  0.98125188  0.66968404
   0.65433268  0.89268783  0.97782784
   0.77498175  0.98250641  0.18900044
   0.41692836  0.85301601  0.61470369
   0.62284133  0.07205573  0.28870027
   0.50350368  0.74024577  0.21240690
   0.46625043  0.90067429  0.00324093
   0.48894981  0.74171282  0.91226081
   0.54996228  0.96167305  0.22859705
   0.53672669  0.74784834  0.87608112
   0.49165424  0.89714379  0.92369167
   0.73969735  0.67065317  0.57275825
   0.62500145  0.93222254  0.96965917
   0.59189636  0.93829636  0.26903532
   0.71935757  0.73360981  0.88412650
   0.50687171  0.72820095  0.30656744
   0.58586503  0.78997436  0.54563670
   0.36327372  0.84576992  0.19083219
   0.76415718  0.81084885  0.51651732
   0.60180163  0.79555461  0.63530969
   0.69731768  0.75582795  0.18729197
   0.68131801  0.74814312  0.27739019
   0.22443265  0.34633694  0.69453477
   0.64531928  0.40289001  0.52138607
   0.14998647  0.59458296  0.73551149
   0.43747311  0.30113287  0.44051834
   0.63684061  0.43279092  0.82057364
   0.92054790  0.03023634  0.44294139
   0.82598543  0.50479729  0.18332778
   0.79911938  0.44188109  0.46418019
   0.78235809  0.19901102  0.68648058
   0.29009921  0.14310989  0.28424669
   0.33208607  0.88881456  0.56184949
   0.85081545  0.05453815  0.68306365
   0.64186488  0.17247539  0.29057858
   0.14588424  0.07729251  0.19298979
   0.98605747  0.86892039  0.87602073
   0.21428607  0.81166464  0.69351070
   0.96181701  0.78133664  0.63407300
   0.07351865  0.36367339  0.73212476
   0.27525193  0.51601535  0.30044439
   0.86455354  0.52396000  0.70681483
   0.49357922  0.22782878  0.69942113
   0.85443507  0.05121551  0.17302667
   0.22566798  0.66956043  0.21708568
   0.05111446  0.12403081  0.45043699
   0.38260508  0.17566587  0.04837042
   0.83236089  0.68188152  0.67882143
   0.93976340  0.02965994  0.92015019
   0.41012582  0.44384309  0.96830548
   0.41193357  0.50907433  0.68688442
   0.64007427  0.23194953  0.55762614
   0.01610702  0.29783202  0.46709389
   0.41535712  0.09981434  0.78414989
   0.78746531  0.20132949  0.20135850
   0.20434995  0.71385274  0.93174963
   0.20767822  0.38375883  0.16975568
   0.98616030  0.52162919  0.14507353
   0.07594407  0.11950423  0.92387534
   0.49596967  0.45679761  0.45329282
   0.52569577  0.33956729  0.92549323
   0.00703097  0.27425722  0.94829833
   0.05830838  0.65446087  0.26340544
   0.79781687  0.43632279  0.91996651
   0.83294359  0.27264073  0.93417645
   0.25334297  0.49603548  0.60263877
   0.28126954  0.82401110  0.30570943
   0.31008525  0.06459047  0.56393035
   0.15516019  0.07527499  0.66662692
   0.13845649  0.90305309  0.23991343
   0.09807377  0.70375483  0.54841578
   0.10030107  0.92651890  0.70730548
   0.30020465  0.32729693  0.96500681
   0.50904417  0.25066253  0.18322965
   0.27626652  0.28773823  0.40829277
   0.43197856  0.52961565  0.22535248
   0.85002709  0.28866439  0.46050158
   0.06688201  0.77608546  0.06568177
   0.01970113  0.90889384  0.46672527
   0.04725608  0.36642992  0.18626790
   0.01846998  0.50983596  0.82031448

 position of ions in cartesian coordinates  (Angst):
  10.59410000 12.29970000  3.75786000
  11.26780000 10.37160000  7.03599000
   8.60149000  7.64974000  6.36224000
  11.53490000  8.71932000  1.19820000
  11.38310000 14.31370000  5.32309000
   9.54487000 13.02180000  7.77242000
  11.30480000 14.33200000  1.50230000
   6.08181000 12.44310000  4.88607000
   9.08550000  1.05109000  2.29478000
   7.34470000 10.79810000  1.68835000
   6.80128000 13.13830000  0.02576108
   7.13240000 10.81950000  7.25125000
   8.02240000 14.02810000  1.81704000
   7.82933000 10.90900000  6.96367000
   7.17185000 13.08680000  7.34211000
  10.79010000  9.78294000  4.55266000
   9.11701000 13.59850000  7.70749000
   8.63410000 13.68710000  2.13847000
  10.49340000 10.70130000  7.02762000
   7.39383000 10.62240000  2.43680000
   8.54612000 11.52350000  4.33708000
   5.29914000 12.33740000  1.51686000
  11.14690000 11.82800000  4.10562000
   8.77859000 11.60490000  5.04986000
  10.17190000 11.02540000  1.48872000
   9.93851000 10.91330000  2.20488000
   3.27384000  5.05208000  5.52062000
   9.41339000  5.87703000  4.14432000
   2.18788000  8.67329000  5.84633000
   6.38150000  4.39268000  3.50153000
   9.28971000  6.31320000  6.52246000
  13.42820000  0.44106300  3.52079000
  12.04880000  7.36357000  1.45721000
  11.65690000  6.44580000  3.68961000
  11.41240000  2.90301000  5.45660000
   4.23173000  2.08757000  2.25938000
   4.84420000 12.96530000  4.46595000
  12.41100000  0.79555800  5.42944000
   9.36300000  2.51593000  2.30971000
   2.12804000  1.12748000  1.53401000
  14.38380000 12.67510000  6.96319000
   3.12583000 11.83990000  5.51248000
  14.03020000 11.39750000  5.04003000
   1.07243000  5.30497000  5.81941000
   4.01515000  7.52721000  2.38813000
  12.61140000  7.64310000  5.61823000
   7.19993000  3.32338000  5.55946000
  12.46380000  0.74709000  1.37533000
   3.29186000  9.76700000  1.72554000
   0.74561600  1.80926000  3.58037000
   5.58113000  2.56247000  0.38448000
  12.14180000  9.94673000  5.39572000
  13.70850000  0.43265500  7.31396000
   5.98258000  6.47442000  7.69673000
   6.00895000  7.42596000  5.45981000
   9.33688000  3.38349000  4.43238000
   0.23495600  4.34453000  3.71277000
   6.05889000  1.45601000  6.23294000
  11.48690000  2.93683000  1.60053000
   2.98089000 10.41310000  7.40616000
   3.02944000  5.59796000  1.34933000
  14.38530000  7.60910000  1.15314000
   1.10781000  1.74323000  7.34357000
   7.23480000  6.66339000  3.60307000
   7.66842000  4.95333000  7.35643000
   0.10256200  4.00064000  7.53770000
   0.85055500  9.54674000  2.09372000
  11.63790000  6.36472000  7.31250000
  12.15030000  3.97706000  7.42545000
   3.69556000  7.23576000  4.79017000
   4.10293000 12.02000000  2.42998000
   4.52327000  0.94219300  4.48249000
   2.26335000  1.09805000  5.29879000
   2.01969000 13.17300000  1.90699000
   1.43062000 10.26580000  4.35917000
   1.46311000 13.51530000  5.62213000
   4.37914000  4.77434000  7.67051000
   7.42552000  3.65646000  1.45643000
   4.02995000  4.19729000  3.24538000
   6.30135000  7.72560000  1.79125000
  12.39950000  4.21080000  3.66037000
   0.97562000 11.32090000  0.52208200
   0.28738400 13.25820000  3.70984000
   0.68933300  5.34518000  1.48058000
   0.26942500  7.43707000  6.52040000



--------------------------------------------------------------------------------------------------------


 k-point     1 :   0.0000 0.0000 0.0000  plane waves:  159725
 k-point     2 :   0.5000 0.0000 0.0000  plane waves:  159726
 k-point     3 :   0.0000 0.5000 0.0000  plane waves:  159726
 k-point     4 :   0.5000 0.5000 0.0000  plane waves:  159796
 k-point     5 :   0.0000 0.0000 0.2500  plane waves:  159597
 k-point     6 :   0.5000 0.0000 0.2500  plane waves:  159692
 k-point     7 :   0.0000 0.5000 0.2500  plane waves:  159692
 k-point     8 :   0.5000 0.5000 0.2500  plane waves:  159652
 k-point     9 :   0.0000 0.0000 0.5000  plane waves:  159660
 k-point    10 :   0.5000 0.0000 0.5000  plane waves:  159552
 k-point    11 :   0.0000 0.5000 0.5000  plane waves:  159552
 k-point    12 :   0.5000 0.5000 0.5000  plane waves:  159512

 maximum and minimum number of plane-waves per node :     10056     9880

 maximum number of plane-waves:    159796
 maximum index in each direction: 
   IXMAX=   41   IYMAX=   41   IZMAX=   22
   IXMIN=  -41   IYMIN=  -41   IZMIN=  -22


 parallel 3D FFT for wavefunctions:
    minimum data exchange during FFTs selected (reduces bandwidth)
 parallel 3D FFT for charge:
    minimum data exchange during FFTs selected (reduces bandwidth)


 total amount of memory used by VASP MPI-rank0   156179. kBytes
=======================================================================

   base                                    :      30000. kBytes
   nonl-proj                               :      29075. kBytes
   fftplans                                :      30763. kBytes
   grid                                    :      23712. kBytes
   one-center                              :         18. kBytes
   wavefun                                 :      42611. kBytes

     INWAV:  cpu time      7.3406: real time      7.3430
 Broyden mixing: mesh for mixing (old mesh)
   NGX = 83   NGY = 83   NGZ = 45
  (NGX  =336   NGY  =336   NGZ  =180)
  gives a total of 310005 points

 initial charge density was supplied:
 number of electron     261.9999999 magnetization 
 keeping initial charge density in first step


--------------------------------------------------------------------------------------------------------


 Maximum index for augmentation-charges        10975 (set IRDMAX)


--------------------------------------------------------------------------------------------------------


 First call to EWALD:  gamma=   0.149
 Maximum number of real-space cells   2x   2x   4
 Maximum number of reciprocal cells   3x   3x   2

    FEWALD:  cpu time      0.0130: real time      0.0131


--------------------------------------- Ionic step        1  -------------------------------------------




--------------------------------------- Iteration      1(   1)  ---------------------------------------


    POTLOK:  cpu time      0.5559: real time      0.5568
    SETDIJ:  cpu time      1.1342: real time      1.1354
    EDDIAG:  cpu time     15.0009: real time     15.0122
     EDDAV:  cpu time     74.6263: real time     74.6910
       DOS:  cpu time      0.0098: real time      0.0100
    CHARGE:  cpu time      5.5958: real time      5.6000
    MIXING:  cpu time      0.0190: real time      0.0194
    --------------------------------------------
      LOOP:  cpu time     96.9420: real time     97.0248

 eigenvalue-minimisations  :  4664
 total energy-change (2. order) :-0.7019301E+03  (-0.7724926E+00)
 number of electron     261.9999999 magnetization 
 augmentation part      -12.6367384 magnetization 

 Broyden mixing:
  rms(total) = 0.96753E+00    rms(broyden)= 0.43308E+02
  rms(prec ) = 0.10698E+01
  weight for this iteration     100.00
  WARNING: grid for Broyden might be to small

 Free energy of the ion-electron system (eV)
  ---------------------------------------------------
  alpha Z        PSCENC =        86.72673569
  Ewald energy   TEWEN  =     -4556.72332635
  -Hartree energ DENC   =     -2373.15057220
  -exchange      EXHF   =         0.00000000
  -V(xc)+E(xc)   XCENC  =      -210.33915233
  PAW double counting   =     21699.81013924   -21111.58990263
  entropy T*S    EENTRO =        -0.10160934
  eigenvalues    EBANDS =      -642.20315617
  atomic energy  EATOM  =      6405.64072510
  Solvation  Ediel_sol  =         0.00000000
  ---------------------------------------------------
  free energy    TOTEN  =      -701.93011898 eV

  energy without entropy =     -701.82850964  energy(sigma->0) =     -701.87931431


--------------------------------------------------------------------------------------------------------




--------------------------------------- Iteration      1(   2)  ---------------------------------------


    POTLOK:  cpu time      0.5475: real time      0.5614
    SETDIJ:  cpu time      1.1298: real time      1.1306
    EDDIAG:  cpu time     15.1639: real time     15.1778
     EDDAV:  cpu time     71.7300: real time     71.7970
       DOS:  cpu time      0.0038: real time      0.0038
    CHARGE:  cpu time      5.4648: real time      5.4687
    MIXING:  cpu time      0.0127: real time      0.0131
    --------------------------------------------
      LOOP:  cpu time     94.0526: real time     94.1524

 eigenvalue-minimisations  :  4368
 total energy-change (2. order) : 0.4699516E+02  (-0.8145144E+00)
 number of electron     261.9999999 magnetization 
 augmentation part      -12.5900627 magnetization 

 Broyden mixing:
  rms(total) = 0.66776E+00    rms(broyden)= 0.24803E+02
  rms(prec ) = 0.76679E+00
  weight for this iteration     100.00
  WARNING: grid for Broyden might be to small

 eigenvalues of (default mixing * dielectric matrix)
  average eigenvalue GAMMA=   0.6359
  0.6359

 Free energy of the ion-electron system (eV)
  ---------------------------------------------------
  alpha Z        PSCENC =        86.72673569
  Ewald energy   TEWEN  =     -4556.72332635
  -Hartree energ DENC   =     -2364.62951850
  -exchange      EXHF   =         0.00000000
  -V(xc)+E(xc)   XCENC  =      -204.86351468
  PAW double counting   =     26027.40489895   -25439.00029769
  entropy T*S    EENTRO =        -0.04385231
  eigenvalues    EBANDS =      -609.44681050
  atomic energy  EATOM  =      6405.64072510
  Solvation  Ediel_sol  =         0.00000000
  ---------------------------------------------------
  free energy    TOTEN  =      -654.93496029 eV

  energy without entropy =     -654.89110798  energy(sigma->0) =     -654.91303414


--------------------------------------------------------------------------------------------------------




--------------------------------------- Iteration      1(   3)  ---------------------------------------


    POTLOK:  cpu time      0.5424: real time      0.5617
    SETDIJ:  cpu time      1.1348: real time      1.1353
    EDDIAG:  cpu time     15.0974: real time     15.1093
     EDDAV:  cpu time     70.9230: real time     70.9860
       DOS:  cpu time      0.0037: real time      0.0037
    CHARGE:  cpu time      5.5447: real time      5.5490
    MIXING:  cpu time      0.0105: real time      0.0105
    --------------------------------------------
      LOOP:  cpu time     93.2565: real time     93.3555

 eigenvalue-minimisations  :  4280
 total energy-change (2. order) :-0.2030707E+01  (-0.9258673E+00)
 number of electron     261.9999999 magnetization 
 augmentation part      -12.5410039 magnetization 

 Broyden mixing:
  rms(total) = 0.50562E+00    rms(broyden)= 0.85506E+01
  rms(prec ) = 0.66964E+00
  weight for this iteration     100.00
  WARNING: grid for Broyden might be to small

 eigenvalues of (default mixing * dielectric matrix)
  average eigenvalue GAMMA=   0.5846
  0.6404  0.5289

 Free energy of the ion-electron system (eV)
  ---------------------------------------------------
  alpha Z        PSCENC =        86.72673569
  Ewald energy   TEWEN  =     -4556.72332635
  -Hartree energ DENC   =     -2367.35830697
  -exchange      EXHF   =         0.00000000
  -V(xc)+E(xc)   XCENC  =      -208.03195160
  PAW double counting   =     28743.72011324   -28155.37639300
  entropy T*S    EENTRO =        -0.03971281
  eigenvalues    EBANDS =      -605.52355044
  atomic energy  EATOM  =      6405.64072510
  Solvation  Ediel_sol  =         0.00000000
  ---------------------------------------------------
  free energy    TOTEN  =      -656.96566712 eV

  energy without entropy =     -656.92595432  energy(sigma->0) =     -656.94581072


--------------------------------------------------------------------------------------------------------




--------------------------------------- Iteration      1(   4)  ---------------------------------------


    POTLOK:  cpu time      0.5433: real time      0.5613
    SETDIJ:  cpu time      1.1315: real time      1.1326
    EDDIAG:  cpu time     15.1033: real time     15.1158
     EDDAV:  cpu time     75.3929: real time     75.4615
       DOS:  cpu time      0.0036: real time      0.0036
    CHARGE:  cpu time      5.5958: real time      5.6007
    MIXING:  cpu time      0.0106: real time      0.0106
    --------------------------------------------
      LOOP:  cpu time     97.7810: real time     97.8862

 eigenvalue-minimisations  :  4736
 total energy-change (2. order) :-0.9643039E-01  (-0.5492113E+00)
 number of electron     261.9999999 magnetization 
 augmentation part      -12.5458440 magnetization 

 Broyden mixing:
  rms(total) = 0.26522E+00    rms(broyden)= 0.13974E+02
  rms(prec ) = 0.42429E+00
  weight for this iteration     100.00
  WARNING: grid for Broyden might be to small

 eigenvalues of (default mixing * dielectric matrix)
  average eigenvalue GAMMA=   0.6839
  1.0503  0.6278  0.3736

 Free energy of the ion-electron system (eV)
  ---------------------------------------------------
  alpha Z        PSCENC =        86.72673569
  Ewald energy   TEWEN  =     -4556.72332635
  -Hartree energ DENC   =     -2369.63034131
  -exchange      EXHF   =         0.00000000
  -V(xc)+E(xc)   XCENC  =      -208.69862069
  PAW double counting   =     31976.13078557   -31387.81214154
  entropy T*S    EENTRO =        -0.03792059
  eigenvalues    EBANDS =      -602.65799341
  atomic energy  EATOM  =      6405.64072510
  Solvation  Ediel_sol  =         0.00000000
  ---------------------------------------------------
  free energy    TOTEN  =      -657.06209752 eV

  energy without entropy =     -657.02417693  energy(sigma->0) =     -657.04313722


--------------------------------------------------------------------------------------------------------




--------------------------------------- Iteration      1(   5)  ---------------------------------------


    POTLOK:  cpu time      0.5449: real time      0.5666
    SETDIJ:  cpu time      1.1310: real time      1.1317
    EDDIAG:  cpu time     15.1497: real time     15.1619
     EDDAV:  cpu time     74.1634: real time     74.2299
       DOS:  cpu time      0.0043: real time      0.0043
    CHARGE:  cpu time      5.7786: real time      5.7824
    MIXING:  cpu time      0.0107: real time      0.0107
    --------------------------------------------
      LOOP:  cpu time     96.7827: real time     96.8874

 eigenvalue-minimisations  :  4608
 total energy-change (2. order) : 0.1756959E-01  (-0.5745800E-01)
 number of electron     261.9999999 magnetization 
 augmentation part      -12.5406107 magnetization 

 Broyden mixing:
  rms(total) = 0.34951E-01    rms(broyden)= 0.19339E+01
  rms(prec ) = 0.52127E-01
  weight for this iteration     100.00
  WARNING: grid for Broyden might be to small

 eigenvalues of (default mixing * dielectric matrix)
  average eigenvalue GAMMA=   0.8541
  1.6859  0.7613  0.6230  0.3461

 Free energy of the ion-electron system (eV)
  ---------------------------------------------------
  alpha Z        PSCENC =        86.72673569
  Ewald energy   TEWEN  =     -4556.72332635
  -Hartree energ DENC   =     -2372.76815780
  -exchange      EXHF   =         0.00000000
  -V(xc)+E(xc)   XCENC  =      -208.57680449
  PAW double counting   =     34767.77368711   -34179.48192256
  entropy T*S    EENTRO =        -0.10100070
  eigenvalues    EBANDS =      -599.53446392
  atomic energy  EATOM  =      6405.64072510
  Solvation  Ediel_sol  =         0.00000000
  ---------------------------------------------------
  free energy    TOTEN  =      -657.04452793 eV

  energy without entropy =     -656.94352723  energy(sigma->0) =     -656.99402758


--------------------------------------------------------------------------------------------------------




--------------------------------------- Iteration      1(   6)  ---------------------------------------


    POTLOK:  cpu time      0.5423: real time      0.5609
    SETDIJ:  cpu time      1.1314: real time      1.1320
    EDDIAG:  cpu time     15.2754: real time     15.2880
     EDDAV:  cpu time     74.1274: real time     74.1926
       DOS:  cpu time      0.0036: real time      0.0036
    CHARGE:  cpu time      5.8014: real time      5.8051
    MIXING:  cpu time      0.0112: real time      0.0112
    --------------------------------------------
      LOOP:  cpu time     96.8927: real time     96.9934

 eigenvalue-minimisations  :  4592
 total energy-change (2. order) :-0.3333887E-02  (-0.5948731E-02)
 number of electron     261.9999999 magnetization 
 augmentation part      -12.5413683 magnetization 

 Broyden mixing:
  rms(total) = 0.25003E-01    rms(broyden)= 0.20460E+00
  rms(prec ) = 0.31678E-01
  weight for this iteration     100.00
  WARNING: grid for Broyden might be to small

 eigenvalues of (default mixing * dielectric matrix)
  average eigenvalue GAMMA=   0.9974
  2.4167  0.9617  0.3379  0.6430  0.6279

 Free energy of the ion-electron system (eV)
  ---------------------------------------------------
  alpha Z        PSCENC =        86.72673569
  Ewald energy   TEWEN  =     -4556.72332635
  -Hartree energ DENC   =     -2372.53515790
  -exchange      EXHF   =         0.00000000
  -V(xc)+E(xc)   XCENC  =      -208.85385881
  PAW double counting   =     34602.41975317   -34014.11246333
  entropy T*S    EENTRO =        -0.10005025
  eigenvalues    EBANDS =      -599.51021916
  atomic energy  EATOM  =      6405.64072510
  Solvation  Ediel_sol  =         0.00000000
  ---------------------------------------------------
  free energy    TOTEN  =      -657.04786182 eV

  energy without entropy =     -656.94781157  energy(sigma->0) =     -656.99783670


--------------------------------------------------------------------------------------------------------




--------------------------------------- Iteration      1(   7)  ---------------------------------------


    POTLOK:  cpu time      0.5522: real time      0.5647
    SETDIJ:  cpu time      1.1336: real time      1.1343
    EDDIAG:  cpu time     15.1194: real time     15.1312
     EDDAV:  cpu time     80.6410: real time     80.7083
       DOS:  cpu time      0.0037: real time      0.0037
    CHARGE:  cpu time      5.7295: real time      5.7340
    MIXING:  cpu time      0.0109: real time      0.0109
    --------------------------------------------
      LOOP:  cpu time    103.1903: real time    103.2871

 eigenvalue-minimisations  :  5280
 total energy-change (2. order) :-0.6087187E-03  (-0.4480629E-03)
 number of electron     261.9999999 magnetization 
 augmentation part      -12.5412241 magnetization 

 Broyden mixing:
  rms(total) = 0.17865E-01    rms(broyden)= 0.76329E-01
  rms(prec ) = 0.20937E-01
  weight for this iteration     100.00
  WARNING: grid for Broyden might be to small

 eigenvalues of (default mixing * dielectric matrix)
  average eigenvalue GAMMA=   1.0219
  2.5627  1.1276  0.3356  0.8382  0.6337  0.6337

 Free energy of the ion-electron system (eV)
  ---------------------------------------------------
  alpha Z        PSCENC =        86.72673569
  Ewald energy   TEWEN  =     -4556.72332635
  -Hartree energ DENC   =     -2372.59679098
  -exchange      EXHF   =         0.00000000
  -V(xc)+E(xc)   XCENC  =      -208.87711894
  PAW double counting   =     34588.79922218   -34000.48453066
  entropy T*S    EENTRO =        -0.09944475
  eigenvalues    EBANDS =      -599.43394183
  atomic energy  EATOM  =      6405.64072510
  Solvation  Ediel_sol  =         0.00000000
  ---------------------------------------------------
  free energy    TOTEN  =      -657.04847054 eV

  energy without entropy =     -656.94902579  energy(sigma->0) =     -656.99874817


--------------------------------------------------------------------------------------------------------




--------------------------------------- Iteration      1(   8)  ---------------------------------------


    POTLOK:  cpu time      0.5450: real time      0.5639
    SETDIJ:  cpu time      1.1333: real time      1.1343
    EDDIAG:  cpu time     15.1408: real time     15.1523
     EDDAV:  cpu time     76.5137: real time     76.5800
       DOS:  cpu time      0.0061: real time      0.0061
    CHARGE:  cpu time      5.7358: real time      5.7405
    MIXING:  cpu time      0.0111: real time      0.0111
    --------------------------------------------
      LOOP:  cpu time     99.0857: real time     99.1881

 eigenvalue-minimisations  :  4832
 total energy-change (2. order) :-0.5134658E-03  (-0.2017385E-03)
 number of electron     261.9999999 magnetization 
 augmentation part      -12.5402867 magnetization 

 Broyden mixing:
  rms(total) = 0.78778E-02    rms(broyden)= 0.57629E-01
  rms(prec ) = 0.91220E-02
  weight for this iteration     100.00
  WARNING: grid for Broyden might be to small

 eigenvalues of (default mixing * dielectric matrix)
  average eigenvalue GAMMA=   1.0032
  2.5776  1.3510  0.9137  0.3357  0.6511  0.6381  0.5550

 Free energy of the ion-electron system (eV)
  ---------------------------------------------------
  alpha Z        PSCENC =        86.72673569
  Ewald energy   TEWEN  =     -4556.72332635
  -Hartree energ DENC   =     -2372.78754395
  -exchange      EXHF   =         0.00000000
  -V(xc)+E(xc)   XCENC  =      -208.82135883
  PAW double counting   =     34581.99994058   -33993.67630758
  entropy T*S    EENTRO =        -0.10042773
  eigenvalues    EBANDS =      -599.30742093
  atomic energy  EATOM  =      6405.64072510
  Solvation  Ediel_sol  =         0.00000000
  ---------------------------------------------------
  free energy    TOTEN  =      -657.04898400 eV

  energy without entropy =     -656.94855628  energy(sigma->0) =     -656.99877014


--------------------------------------------------------------------------------------------------------




--------------------------------------- Iteration      1(   9)  ---------------------------------------


    POTLOK:  cpu time      0.5442: real time      0.5641
    SETDIJ:  cpu time      1.1336: real time      1.1349
    EDDIAG:  cpu time     15.1387: real time     15.1514
     EDDAV:  cpu time     75.6619: real time     75.7276
       DOS:  cpu time      0.0041: real time      0.0041
    CHARGE:  cpu time      5.7388: real time      5.7440
    MIXING:  cpu time      0.0114: real time      0.0114
    --------------------------------------------
      LOOP:  cpu time     98.2328: real time     98.3376

 eigenvalue-minimisations  :  4760
 total energy-change (2. order) :-0.2093831E-03  (-0.4290641E-04)
 number of electron     261.9999999 magnetization 
 augmentation part      -12.5401053 magnetization 

 Broyden mixing:
  rms(total) = 0.34410E-02    rms(broyden)= 0.70553E-01
  rms(prec ) = 0.44837E-02
  weight for this iteration     100.00
  WARNING: grid for Broyden might be to small

 eigenvalues of (default mixing * dielectric matrix)
  average eigenvalue GAMMA=   1.0721
  2.7274  1.7753  1.0815  0.3352  0.8523  0.6488  0.6328  0.5232

 Free energy of the ion-electron system (eV)
  ---------------------------------------------------
  alpha Z        PSCENC =        86.72673569
  Ewald energy   TEWEN  =     -4556.72332635
  -Hartree energ DENC   =     -2372.90765221
  -exchange      EXHF   =         0.00000000
  -V(xc)+E(xc)   XCENC  =      -208.80731466
  PAW double counting   =     34574.73225272   -33986.40328594
  entropy T*S    EENTRO =        -0.10013646
  eigenvalues    EBANDS =      -599.20719128
  atomic energy  EATOM  =      6405.64072510
  Solvation  Ediel_sol  =         0.00000000
  ---------------------------------------------------
  free energy    TOTEN  =      -657.04919339 eV

  energy without entropy =     -656.94905693  energy(sigma->0) =     -656.99912516


--------------------------------------------------------------------------------------------------------




--------------------------------------- Iteration      1(  10)  ---------------------------------------


    POTLOK:  cpu time      0.5455: real time      0.5612
    SETDIJ:  cpu time      1.1331: real time      1.1336
    EDDIAG:  cpu time     15.1701: real time     15.1830
     EDDAV:  cpu time     75.9132: real time     75.9826
       DOS:  cpu time      0.0041: real time      0.0041
    CHARGE:  cpu time      5.7627: real time      5.7675
    MIXING:  cpu time      0.0116: real time      0.0116
    --------------------------------------------
      LOOP:  cpu time     98.5401: real time     98.6434

 eigenvalue-minimisations  :  4776
 total energy-change (2. order) :-0.4267348E-04  (-0.1073946E-04)
 number of electron     261.9999999 magnetization 
 augmentation part      -12.5400045 magnetization 

 Broyden mixing:
  rms(total) = 0.13871E-02    rms(broyden)= 0.28582E-01
  rms(prec ) = 0.17363E-02
  weight for this iteration     100.00
  WARNING: grid for Broyden might be to small

 eigenvalues of (default mixing * dielectric matrix)
  average eigenvalue GAMMA=   1.1629
  2.9737  2.3892  1.2154  0.9677  0.3351  0.7705  0.6398  0.6167  0.5578

 Free energy of the ion-electron system (eV)
  ---------------------------------------------------
  alpha Z        PSCENC =        86.72673569
  Ewald energy   TEWEN  =     -4556.72332635
  -Hartree energ DENC   =     -2372.94646897
  -exchange      EXHF   =         0.00000000
  -V(xc)+E(xc)   XCENC  =      -208.80200232
  PAW double counting   =     34572.42033409   -33984.08888412
  entropy T*S    EENTRO =        -0.10022183
  eigenvalues    EBANDS =      -599.17612734
  atomic energy  EATOM  =      6405.64072510
  Solvation  Ediel_sol  =         0.00000000
  ---------------------------------------------------
  free energy    TOTEN  =      -657.04923606 eV

  energy without entropy =     -656.94901423  energy(sigma->0) =     -656.99912514


--------------------------------------------------------------------------------------------------------




--------------------------------------- Iteration      1(  11)  ---------------------------------------


    POTLOK:  cpu time      0.5453: real time      0.5649
    SETDIJ:  cpu time      1.1322: real time      1.1336
    EDDIAG:  cpu time     15.1344: real time     15.1475
     EDDAV:  cpu time     75.0150: real time     75.0830
       DOS:  cpu time      0.0037: real time      0.0037
    CHARGE:  cpu time      5.8195: real time      5.8240
    MIXING:  cpu time      0.0114: real time      0.0114
    --------------------------------------------
      LOOP:  cpu time     97.6615: real time     97.7682

 eigenvalue-minimisations  :  4680
 total energy-change (2. order) :-0.1849982E-04  (-0.4058079E-05)
 number of electron     261.9999999 magnetization 
 augmentation part      -12.5399664 magnetization 

 Broyden mixing:
  rms(total) = 0.68175E-03    rms(broyden)= 0.15311E-01
  rms(prec ) = 0.86448E-03
  weight for this iteration     100.00
  WARNING: grid for Broyden might be to small

 eigenvalues of (default mixing * dielectric matrix)
  average eigenvalue GAMMA=   1.1962
  3.3304  2.5457  1.2693  1.0330  0.9539  0.3351  0.6966  0.6316  0.5669  0.5992

 Free energy of the ion-electron system (eV)
  ---------------------------------------------------
  alpha Z        PSCENC =        86.72673569
  Ewald energy   TEWEN  =     -4556.72332635
  -Hartree energ DENC   =     -2372.95487828
  -exchange      EXHF   =         0.00000000
  -V(xc)+E(xc)   XCENC  =      -208.79802614
  PAW double counting   =     34570.79093182   -33982.45779141
  entropy T*S    EENTRO =        -0.10028880
  eigenvalues    EBANDS =      -599.17333619
  atomic energy  EATOM  =      6405.64072510
  Solvation  Ediel_sol  =         0.00000000
  ---------------------------------------------------
  free energy    TOTEN  =      -657.04925456 eV

  energy without entropy =     -656.94896576  energy(sigma->0) =     -656.99911016


--------------------------------------------------------------------------------------------------------




--------------------------------------- Iteration      1(  12)  ---------------------------------------


    POTLOK:  cpu time      0.5437: real time      0.5616
    SETDIJ:  cpu time      1.1335: real time      1.1345
    EDDIAG:  cpu time     15.1494: real time     15.1622
     EDDAV:  cpu time     76.0938: real time     76.1595
       DOS:  cpu time      0.0038: real time      0.0038
    CHARGE:  cpu time      5.7972: real time      5.8010
    MIXING:  cpu time      0.0116: real time      0.0116
    --------------------------------------------
      LOOP:  cpu time     98.7329: real time     98.8342

 eigenvalue-minimisations  :  4792
 total energy-change (2. order) :-0.4941285E-05  (-0.9194046E-06)
 number of electron     261.9999999 magnetization 
 augmentation part      -12.5400400 magnetization 

 Broyden mixing:
  rms(total) = 0.32733E-03    rms(broyden)= 0.14427E-01
  rms(prec ) = 0.55940E-03
  weight for this iteration     100.00
  WARNING: grid for Broyden might be to small

 eigenvalues of (default mixing * dielectric matrix)
  average eigenvalue GAMMA=   1.2232
  3.6181  2.5599  1.4085  1.2169  1.0660  0.3351  0.8106  0.6535  0.6223  0.5699
  0.5946

 Free energy of the ion-electron system (eV)
  ---------------------------------------------------
  alpha Z        PSCENC =        86.72673569
  Ewald energy   TEWEN  =     -4556.72332635
  -Hartree energ DENC   =     -2372.93840741
  -exchange      EXHF   =         0.00000000
  -V(xc)+E(xc)   XCENC  =      -208.80419069
  PAW double counting   =     34569.86323634   -33981.52993987
  entropy T*S    EENTRO =        -0.10021586
  eigenvalues    EBANDS =      -599.18387645
  atomic energy  EATOM  =      6405.64072510
  Solvation  Ediel_sol  =         0.00000000
  ---------------------------------------------------
  free energy    TOTEN  =      -657.04925950 eV

  energy without entropy =     -656.94904364  energy(sigma->0) =     -656.99915157


--------------------------------------------------------------------------------------------------------




--------------------------------------- Iteration      1(  13)  ---------------------------------------


    POTLOK:  cpu time      0.5454: real time      0.5612
    SETDIJ:  cpu time      1.1337: real time      1.1342
    EDDIAG:  cpu time     15.1279: real time     15.1406
     EDDAV:  cpu time     65.8578: real time     65.9126
       DOS:  cpu time      0.0036: real time      0.0036
    --------------------------------------------
      LOOP:  cpu time     82.6688: real time     82.7526

 eigenvalue-minimisations  :  3736
 total energy-change (2. order) :-0.6009250E-06  (-0.2744027E-06)
 number of electron     261.9999999 magnetization 
 augmentation part      -12.5400400 magnetization 

 Free energy of the ion-electron system (eV)
  ---------------------------------------------------
  alpha Z        PSCENC =        86.72673569
  Ewald energy   TEWEN  =     -4556.72332635
  -Hartree energ DENC   =     -2372.93371371
  -exchange      EXHF   =         0.00000000
  -V(xc)+E(xc)   XCENC  =      -208.80667154
  PAW double counting   =     34569.41598472   -33981.08270058
  entropy T*S    EENTRO =        -0.10024249
  eigenvalues    EBANDS =      -599.18605095
  atomic energy  EATOM  =      6405.64072510
  Solvation  Ediel_sol  =         0.00000000
  ---------------------------------------------------
  free energy    TOTEN  =      -657.04926010 eV

  energy without entropy =     -656.94901761  energy(sigma->0) =     -656.99913886


--------------------------------------------------------------------------------------------------------




 average (electrostatic) potential at core
  the test charge radii are     0.5201  0.9892
  (the norm of the test charge is              1.0000)
       1 -35.7035       2 -37.5707       3 -35.4089       4 -35.6611       5 -35.4851
       6 -36.2274       7 -35.3389       8 -36.0192       9 -35.5283      10 -35.7792
      11 -35.9234      12 -35.9761      13 -35.9115      14 -35.9896      15 -35.9856
      16 -35.4799      17 -36.2865      18 -35.8923      19 -37.0335      20 -35.7706
      21 -36.1440      22 -35.1327      23 -35.8827      24 -36.1522      25 -35.9465
      26 -35.9790      27 -89.3468      28 -89.2153      29 -88.9736      30 -89.4000
      31 -88.9913      32 -88.9887      33 -89.2826      34 -89.5264      35 -89.2006
      36 -89.4034      37 -88.9679      38 -89.1748      39 -89.0055      40 -89.3590
      41 -89.0059      42 -89.1517      43 -89.2977      44 -89.1099      45 -89.1416
      46 -89.4925      47 -89.2352      48 -89.3662      49 -89.4078      50 -89.1003
      51 -89.4767      52 -89.9551      53 -89.5402      54 -89.0542      55 -89.5278
      56 -89.2254      57 -89.2380      58 -89.0795      59 -89.3284      60 -89.1711
      61 -89.1402      62 -89.4989      63 -89.4317      64 -89.4041      65 -89.1002
      66 -89.2733      67 -89.3873      68 -89.3242      69 -89.4607      70 -89.1088
      71 -89.1959      72 -89.6535      73 -89.2286      74 -89.2725      75 -89.2913
      76 -88.6448      77 -89.2253      78 -89.3028      79 -89.3079      80 -88.8631
      81 -89.2205      82 -89.1445      83 -89.0131      84 -89.2482      85 -89.2966



 E-fermi :   3.0173     XC(G=0):  -8.3526     alpha+bet : -8.7910

 WARNING: Could not determine fundamental gap because eigenvalues are not
     sorted.

 Fermi energy:         3.0172702813

 k-point     1 :       0.0000    0.0000    0.0000
  band No.  band energies     occupation 
      1      -9.3133      2.00000
      2      -9.0418      2.00000
      3      -8.6818      2.00000
      4      -8.5103      2.00000
      5      -8.3175      2.00000
      6      -7.9509      2.00000
      7      -7.8785      2.00000
      8      -7.5461      2.00000
      9      -7.4693      2.00000
     10      -7.2956      2.00000
     11      -7.2104      2.00000
     12      -7.1271      2.00000
     13      -7.0421      2.00000
     14      -6.9356      2.00000
     15      -6.8913      2.00000
     16      -6.8031      2.00000
     17      -6.6471      2.00000
     18      -6.5871      2.00000
     19      -6.5049      2.00000
     20      -6.3913      2.00000
     21      -6.3470      2.00000
     22      -6.1904      2.00000
     23      -6.0938      2.00000
     24      -6.0063      2.00000
     25      -5.9209      2.00000
     26      -5.8551      2.00000
     27      -5.7173      2.00000
     28      -5.4949      2.00000
     29      -5.3406      2.00000
     30      -5.2467      2.00000
     31      -5.1446      2.00000
     32      -5.0859      2.00000
     33      -4.9965      2.00000
     34      -4.7493      2.00000
     35      -4.7390      2.00000
     36      -4.6050      2.00000
     37      -4.5463      2.00000
     38      -4.4271      2.00000
     39      -4.3241      2.00000
     40      -4.2463      2.00000
     41      -4.1941      2.00000
     42      -3.9588      2.00000
     43      -3.9043      2.00000
     44      -3.7974      2.00000
     45      -3.7072      2.00000
     46      -3.6363      2.00000
     47      -3.5618      2.00000
     48      -3.5240      2.00000
     49      -3.4461      2.00000
     50      -3.3637      2.00000
     51      -3.1769      2.00000
     52      -3.1453      2.00000
     53      -3.0327      2.00000
     54      -2.9924      2.00000
     55      -2.8705      2.00000
     56      -2.6877      2.00000
     57      -2.6034      2.00000
     58      -2.5805      2.00000
     59      -2.5416      2.00000
     60      -2.4131      2.00000
     61      -2.2604      2.00000
     62      -2.2111      2.00000
     63      -2.1216      2.00000
     64      -2.1006      2.00000
     65      -1.8343      2.00000
     66      -1.6914      2.00000
     67      -1.6274      2.00000
     68      -1.4737      2.00000
     69      -1.3459      2.00000
     70      -1.3048      2.00000
     71      -1.2098      2.00000
     72      -1.0705      2.00000
     73      -1.0432      2.00000
     74      -1.0291      2.00000
     75      -0.8877      2.00000
     76      -0.8310      2.00000
     77      -0.7441      2.00000
     78      -0.6638      2.00000
     79      -0.5624      2.00000
     80      -0.5481      2.00000
     81      -0.4752      2.00000
     82      -0.3711      2.00000
     83      -0.3419      2.00000
     84      -0.1904      2.00000
     85      -0.1390      2.00000
     86      -0.0669      2.00000
     87      -0.0463      2.00000
     88      -0.0074      2.00000
[...]
   -.439E+02 0.644E+02 0.110E+02   0.428E+02 -.623E+02 -.120E+02   0.356E+00 -.299E+01 0.131E+01   0.113E-03 -.390E-03 -.328E-04
   -.943E+02 0.329E+01 -.651E+01   0.950E+02 -.690E+01 0.677E+01   -.249E+01 0.437E+01 -.973E+00   0.398E-05 0.161E-03 -.769E-04
   0.779E+02 0.443E+02 -.157E+02   -.792E+02 -.465E+02 0.139E+02   -.832E-01 0.207E+01 0.246E+01   -.523E-03 -.406E-03 -.751E-04
   0.207E+02 0.644E+02 0.232E+02   -.205E+02 -.662E+02 -.216E+02   -.127E+01 0.158E+01 -.189E+01   0.387E-03 -.299E-03 -.779E-04
   -.267E+02 0.278E+02 0.207E+02   0.268E+02 -.265E+02 -.197E+02   -.655E+00 -.160E+01 -.236E+00   -.852E-04 -.324E-03 -.137E-03
   0.830E+02 0.237E+02 -.442E+02   -.802E+02 -.244E+02 0.422E+02   -.315E+01 0.103E+01 0.253E+01   -.798E-03 -.521E-03 0.237E-03
   -.808E+02 0.102E+02 -.168E+02   0.809E+02 -.770E+01 0.166E+02   -.642E+00 -.231E+01 0.444E-01   0.175E-03 -.617E-04 0.102E-03
   0.891E+02 0.210E+02 0.133E+02   -.856E+02 -.195E+02 -.129E+02   -.360E+01 -.136E+01 -.933E+00   -.119E-02 -.614E-03 0.125E-03
   0.134E+02 -.107E+02 0.993E+01   -.124E+02 0.104E+02 -.857E+01   -.290E+01 -.196E+00 -.154E+01   -.435E-03 0.203E-03 0.780E-04
   -.219E+02 -.516E+02 0.415E+01   0.239E+02 0.509E+02 -.461E+01   -.186E+01 0.101E+01 0.477E+00   0.738E-04 0.448E-03 -.213E-03
   0.343E+02 -.521E+02 0.159E+02   -.344E+02 0.527E+02 -.145E+02   0.814E+00 -.503E+00 -.153E+01   -.422E-03 0.101E-02 -.960E-04
   -.250E+02 0.575E+02 -.763E+01   0.245E+02 -.590E+02 0.794E+01   0.119E+01 0.207E+01 -.766E+00   -.541E-04 -.629E-03 0.232E-03
   0.564E+02 0.573E+02 0.119E+02   -.588E+02 -.578E+02 -.110E+02   0.147E+01 0.402E+00 -.274E+00   -.478E-03 -.357E-03 0.841E-04
   -.688E+02 -.134E+02 -.646E+00   0.674E+02 0.126E+02 0.579E+00   0.127E+01 0.651E+00 0.401E+00   -.160E-03 0.187E-03 -.227E-03
   0.341E+01 -.723E+01 0.121E+02   -.439E+01 0.546E+01 -.116E+02   0.169E+01 0.274E+01 -.126E+01   -.281E-03 -.105E-03 -.136E-03
   -.297E+02 0.796E+02 0.815E+01   0.306E+02 -.790E+02 -.764E+01   -.120E+01 -.778E-01 -.711E+00   0.194E-03 -.358E-03 -.328E-03
   0.657E+02 -.403E+02 0.160E+01   -.640E+02 0.383E+02 -.219E+01   -.188E+01 0.952E+00 -.590E+00   -.801E-03 0.457E-03 0.425E-03
   0.541E+02 0.384E+02 -.215E+02   -.535E+02 -.379E+02 0.206E+02   -.182E+00 -.141E+01 0.125E+01   -.607E-03 -.293E-03 0.199E-03
   -.320E+02 -.790E+02 -.498E+01   0.328E+02 0.752E+02 0.497E+01   -.470E+00 0.384E+01 -.250E+00   0.191E-03 -.154E-03 0.583E-03
   -.480E+02 -.102E+03 -.128E+02   0.466E+02 0.101E+03 0.120E+02   0.577E+00 0.531E-01 0.115E+01   0.684E-04 -.428E-03 -.198E-03
   0.115E+02 0.559E+02 -.164E+02   -.122E+02 -.565E+02 0.151E+02   0.319E+00 0.116E+01 0.197E+01   0.262E-03 -.282E-03 -.390E-04
   0.433E+01 -.793E+01 0.386E+01   -.603E+01 0.750E+01 -.415E+01   0.124E+01 -.362E+00 -.278E+00   -.352E-03 -.356E-04 -.661E-04
   -.495E+02 0.943E+02 -.139E+02   0.531E+02 -.957E+02 0.132E+02   -.319E+01 0.114E+01 0.953E+00   -.933E-04 0.109E-03 -.254E-03
   0.329E+02 0.189E+02 0.161E+02   -.341E+02 -.207E+02 -.159E+02   0.249E+01 0.247E+01 -.408E+00   -.892E-04 -.272E-03 -.805E-04
   -.809E+02 -.955E+01 0.787E-01   0.781E+02 0.984E+01 0.360E+00   0.159E+01 -.761E+00 -.964E+00   -.303E-03 0.640E-04 0.149E-03
   0.394E+01 -.196E+02 0.351E+01   -.343E+01 0.194E+02 -.417E+01   -.500E+00 0.266E+00 0.228E+01   -.420E-04 0.218E-03 -.679E-04
   0.239E+02 -.459E+02 -.132E+02   -.262E+02 0.442E+02 0.130E+02   0.267E+01 0.716E+00 -.753E+00   -.505E-03 0.550E-03 -.106E-03
   -.200E+02 0.868E+01 -.948E+01   0.189E+02 -.875E+01 0.978E+01   0.121E+01 0.631E+00 0.334E+00   -.229E-04 -.124E-03 0.121E-03
   -.487E+02 -.805E+02 0.127E+02   0.466E+02 0.791E+02 -.133E+02   0.215E+01 0.695E+00 0.941E+00   0.690E-03 0.130E-03 -.544E-03
   -.411E+02 0.340E+01 -.165E+02   0.402E+02 -.363E+00 0.162E+02   0.838E+00 -.378E+01 0.652E+00   0.629E-03 -.149E-03 0.114E-03
   0.176E+02 0.159E+02 -.781E+01   -.163E+02 -.148E+02 0.659E+01   -.166E+01 -.166E+01 0.108E+01   -.364E-03 -.107E-03 0.644E-04
   0.530E+02 -.225E+01 -.778E+01   -.512E+02 0.423E+01 0.690E+01   -.823E+00 -.122E+01 0.977E+00   -.522E-03 0.173E-04 -.218E-03
   0.439E+02 -.368E+02 -.168E+02   -.443E+02 0.371E+02 0.165E+02   -.961E+00 -.119E+01 0.421E+00   -.161E-03 0.664E-03 0.179E-03
   0.376E+02 0.108E+02 -.117E+02   -.377E+02 -.107E+02 0.111E+02   0.717E+00 0.498E+00 0.903E+00   -.284E-03 -.103E-03 0.195E-03
   -.240E+02 -.512E+02 0.919E+00   0.247E+02 0.504E+02 0.982E-01   0.350E+00 0.124E+01 -.139E+01   -.492E-03 0.438E-03 -.122E-03
   -.833E+02 0.541E+01 0.143E+02   0.851E+02 -.308E+01 -.142E+02   -.169E+01 -.213E+01 -.339E+00   -.357E-04 0.659E-04 0.281E-05
   -.673E+02 0.445E+02 0.233E+01   0.673E+02 -.437E+02 -.114E+01   -.626E-01 -.157E+01 -.110E+01   0.336E-03 -.274E-03 0.315E-03
   -.467E+02 -.479E+00 -.194E+02   0.446E+02 -.183E+01 0.180E+02   0.131E+01 0.247E+01 0.164E+01   0.264E-03 -.138E-03 0.119E-03
   -.249E+02 -.342E+00 0.237E+02   0.249E+02 -.101E+01 -.237E+02   -.552E+00 0.111E+01 -.111E+00   0.649E-04 -.116E-03 -.232E-03
   0.551E+01 0.390E+01 0.186E+02   -.555E+01 -.555E+01 -.155E+02   -.102E+00 0.174E+01 -.278E+01   -.411E-03 -.112E-03 0.104E-03
   -.309E+02 0.425E+01 -.271E+02   0.302E+02 -.559E+01 0.253E+02   0.187E+01 0.108E+01 0.219E+01   0.162E-03 -.102E-03 0.197E-03
   -.109E+02 0.220E+02 0.115E+02   0.115E+02 -.188E+02 -.101E+02   -.195E+00 -.355E+01 -.206E+01   0.523E-04 -.313E-03 -.121E-04
   -.392E+02 0.354E+02 0.703E+01   0.385E+02 -.364E+02 -.725E+01   0.973E+00 0.711E+00 -.417E+00   0.406E-03 -.182E-03 -.592E-04
   -.126E+01 0.103E+02 -.106E+02   0.310E+01 -.110E+02 0.834E+01   -.219E+01 0.148E+01 0.225E+01   0.935E-04 -.166E-03 0.556E-04
   -.703E+02 -.981E+02 0.168E+02   0.697E+02 0.101E+03 -.161E+02   0.141E+00 -.244E+01 -.150E+01   -.760E-04 -.633E-04 0.258E-03
   0.178E+02 0.961E+00 0.131E+02   -.165E+02 -.248E+00 -.117E+02   -.633E+00 -.132E+01 -.170E+01   -.180E-03 -.149E-05 -.229E-03
   0.479E+02 -.167E+01 -.722E+01   -.460E+02 0.173E+01 0.565E+01   -.101E+01 0.798E+00 0.163E+01   -.246E-03 -.235E-03 -.879E-04
   0.491E+02 0.366E+02 0.447E+02   -.481E+02 -.348E+02 -.411E+02   -.919E+00 -.275E+01 -.442E+01   -.578E-03 -.288E-03 -.292E-03
   0.168E+02 -.113E+02 -.132E+02   -.159E+02 0.115E+02 0.128E+02   -.851E+00 0.269E-01 0.126E+01   -.594E-03 0.192E-03 -.105E-04
   0.238E+02 -.391E+02 -.353E+01   -.222E+02 0.392E+02 0.185E+01   -.149E+01 0.441E-01 0.194E+01   -.519E-03 0.619E-03 0.105E-03
 -----------------------------------------------------------------------------------------------
   -.527E+00 -.477E+01 -.267E+01   0.121E-12 -.711E-14 -.320E-13   0.543E+00 0.480E+01 0.266E+01   -.374E-02 -.132E-02 0.262E-03


 POSITION                                       TOTAL-FORCE (eV/Angst)
 -----------------------------------------------------------------------------------
     10.59410     12.29970      3.75786         1.375094     -0.870315      0.792438
     11.26780     10.37160      7.03599        -1.430968      0.673658      0.065524
      8.60149      7.64974      6.36224         0.282783      0.062151      0.414317
     11.53490      8.71932      1.19820        -0.286442      0.315111      0.290351
     11.38310     14.31370      5.32309        -0.270793     -0.001733      0.439140
      9.54487     13.02180      7.77242         0.593590     -0.615623      0.000342
     11.30480     14.33200      1.50230         0.475242      0.448218     -0.398659
      6.08181     12.44310      4.88607         1.511059     -0.380608      0.396694
      9.08550      1.05109      2.29478         0.192332      0.339035      0.035527
      7.34470     10.79810      1.68835         0.074920     -0.143248      0.967794
      6.80128     13.13830      0.02576        -0.230627      0.061495      0.188438
      7.13240     10.81950      7.25125         0.565079     -0.052598     -0.252302
      8.02240     14.02810      1.81704         0.683730     -0.619448      0.485946
      7.82933     10.90900      6.96367        -0.551145     -0.207752      0.233518
      7.17185     13.08680      7.34211        -0.053310      0.074132     -0.159987
     10.79010      9.78294      4.55266         1.235347      0.467895      0.750328
      9.11701     13.59850      7.70749        -0.319336      0.603308     -0.147198
      8.63410     13.68710      2.13847        -0.900722      0.271550     -0.373074
     10.49340     10.70130      7.02762         1.058258     -0.483205      0.255601
      7.39383     10.62240      2.43680        -0.082306      0.265386     -0.898152
      8.54612     11.52350      4.33708         0.054914      0.034631      0.461754
      5.29914     12.33740      1.51686        -0.821269     -0.134104     -0.080724
     11.14690     11.82800      4.10562        -1.233248      1.349683     -0.919260
      8.77859     11.60490      5.04986        -0.213454     -0.054928     -0.435612
     10.17190     11.02540      1.48872        -0.211625     -0.118568      0.607238
      9.93851     10.91330      2.20488         0.222362      0.074950     -0.700116
      3.27384      5.05208      5.52062         1.365933     -0.628185     -0.605726
      9.41339      5.87703      4.14432        -0.067019     -0.584082      0.940698
      2.18788      8.67329      5.84633        -0.466641      0.361710      0.711207
      6.38150      4.39268      3.50153        -0.313748      0.615830      0.050702
      9.28971      6.31320      6.52246         1.294445      0.418487     -0.435564
     13.42820      0.44106      3.52079         1.743447      0.286658     -1.832530
     12.04880      7.36357      1.45721         0.567482      0.010146      0.208707
     11.65690      6.44580      3.68961        -0.068994      0.152431     -0.586973
     11.41240      2.90301      5.45660         0.175726      0.879318     -0.389123
      4.23173      2.08757      2.25938        -0.790509     -1.003927      0.429911
      4.84420     12.96530      4.46595        -1.817642      0.875713     -0.743462
     12.41100      0.79556      5.42944        -1.496272      0.009340      0.769910
      9.36300      2.51593      2.30971        -1.133716     -0.205086     -0.412055
      2.12804      1.12748      1.53401        -0.628975     -0.396192      0.749306
     14.38380     12.67510      6.96319        -0.342247      0.355230      0.592826
      3.12583     11.83990      5.51248        -0.646102      0.032740     -0.085378
     14.03020     11.39750      5.04003        -0.291399      0.068797     -0.489308
      1.07243      5.30497      5.81941        -2.040565     -0.514619     -0.252292
      4.01515      7.52721      2.38813         0.072876      0.407575      0.042910
     12.61140      7.64310      5.61823         0.788207      0.009747     -0.151913
      7.19993      3.32338      5.55946         0.786760      0.748194     -0.517360
     12.46380      0.74709      1.37533        -0.851178     -0.032100      0.671382
      3.29186      9.76700      1.72554        -0.035722     -0.166191      0.302224
      0.74562      1.80926      3.58037         0.808037      1.090598     -0.857502
      5.58113      2.56247      0.38448        -0.321939      0.610856     -0.185478
     12.14180      9.94673      5.39572        -0.372525     -1.052587     -1.269757
     13.70850      0.43266      7.31396         0.458722     -0.949019      0.460747
      5.98258      6.47442      7.69673         0.367701      0.218946     -0.313566
      6.00895      7.42596      5.45981        -0.894714     -0.278281      0.404358
      9.33688      3.38349      4.43238        -0.323181      0.651196      0.813322
      0.23496      4.34453      3.71277        -0.431273     -0.825813     -0.588913
      6.05889      1.45601      6.23294         0.114553      0.075718      0.267999
     11.48690      2.93683      1.60053         1.384620      0.786659     -0.187540
      2.98089     10.41310      7.40616        -1.243018     -0.506392     -0.595560
      3.02944      5.59796      1.34933         0.024961      0.029156      1.782431
     14.38530      7.60910      1.15314         0.555417     -0.981347     -0.959905
      1.10781      1.74323      7.34357         0.134030      0.562980      0.657857
      7.23480      6.66339      3.60307         0.177996     -0.654877      0.467950
      7.66842      4.95333      7.35643        -0.020718     -0.920306      0.334481
      0.10256      4.00064      7.53770        -0.463330     -0.618741     -0.083682
      0.85056      9.54674      2.09372         1.006784      0.724357      0.091465
     11.63790      6.36472      7.31250        -1.472161     -0.918378      0.204432
     12.15030      3.97706      7.42545         0.658023      0.632775      0.376117
      3.69556      7.23576      4.79017         1.136784      0.572522     -0.435103
      4.10293     12.02000      2.42998         0.046698      0.116893     -0.293839
      4.52327      0.94219      4.48249        -0.076051     -0.877837      0.081864
      2.26335      1.09805      5.29879        -0.714351      0.232227      0.302204
      2.01969     13.17300      1.90699        -0.557635     -0.202410     -0.025435
      1.43062     10.26580      4.35917        -0.184570      0.179471      0.249342
      1.46311     13.51530      5.62213         1.225783     -0.222130      0.425293
      4.37914      4.77434      7.67051         0.342023     -0.515115     -0.747314
      7.42552      3.65646      1.45643         0.334278     -0.240669     -0.664856
      4.02995      4.19729      3.24538        -0.399598      0.856623      0.075387
      6.30135      7.72560      1.79125        -0.604100     -0.113929     -0.783276
     12.39950      4.21080      3.66037         0.676460     -0.659438     -0.471342
      0.97562     11.32090      0.52208         0.846538      0.924229      0.159146
      0.28738     13.25820      3.70984         0.084487     -1.061203     -0.945697
      0.68933      5.34518      1.48058         0.070982      0.188934      0.923425
      0.26943      7.43707      6.52040         0.100676      0.083723      0.342980
 -----------------------------------------------------------------------------------
    total drift:                                0.012699      0.022491     -0.013150


--------------------------------------------------------------------------------------------------------



  FREE ENERGIE OF THE ION-ELECTRON SYSTEM (eV)
  ---------------------------------------------------
  free  energy   TOTEN  =      -657.04926010 eV

  energy  without entropy=     -656.94901761  energy(sigma->0) =     -656.99913886



--------------------------------------------------------------------------------------------------------


    POTLOK:  cpu time      1.6700: real time      1.6708


--------------------------------------------------------------------------------------------------------


     LOOP+:  cpu time   1393.8220: real time   1395.2292
    4ORBIT:  cpu time      0.0000: real time      0.0000



 total charge

# of ion       s       p       d       tot
------------------------------------------
    1        0.573   0.024   0.000   0.598
    2        0.558   0.028   0.000   0.586
    3        0.558   0.015   0.000   0.573
    4        0.575   0.016   0.000   0.591
    5        0.570   0.016   0.000   0.585
    6        0.635   0.035   0.000   0.670
    7        0.547   0.013   0.000   0.560
    8        0.601   0.020   0.000   0.621
    9        0.565   0.017   0.000   0.581
   10        0.590   0.029   0.000   0.619
   11        0.623   0.034   0.000   0.657
   12        0.599   0.030   0.000   0.629
   13        0.595   0.029   0.000   0.624
   14        0.605   0.029   0.000   0.634
   15        0.620   0.035   0.000   0.655
   16        0.523   0.012   0.000   0.534
   17        0.627   0.037   0.000   0.664
   18        0.595   0.029   0.000   0.624
   19        0.534   0.022   0.000   0.556
   20        0.596   0.028   0.000   0.624
   21        0.605   0.031   0.000   0.636
   22        0.550   0.013   0.000   0.563
   23        0.576   0.025   0.000   0.602
   24        0.607   0.030   0.000   0.637
   25        0.603   0.029   0.000   0.632
   26        0.598   0.030   0.000   0.628
   27        0.755   0.917   0.000   1.672
   28        0.752   0.908   0.000   1.660
   29        0.752   0.933   0.000   1.686
   30        0.769   0.874   0.000   1.643
   31        0.748   0.949   0.000   1.697
   32        0.750   1.007   0.000   1.758
   33        0.736   0.960   0.000   1.697
   34        0.748   0.900   0.000   1.648
   35        0.744   0.947   0.000   1.690
   36        0.754   0.893   0.000   1.648
   37        0.745   0.978   0.000   1.723
   38        0.742   1.024   0.000   1.766
   39        0.740   1.000   0.000   1.740
   40        0.753   0.844   0.000   1.597
   41        0.756   0.938   0.000   1.695
   42        0.764   0.895   0.000   1.659
   43        0.758   0.893   0.000   1.651
   44        0.751   0.945   0.000   1.696
   45        0.755   0.884   0.000   1.640
   46        0.750   0.908   0.000   1.658
   47        0.756   0.896   0.000   1.651
   48        0.736   0.939   0.000   1.675
   49        0.762   0.853   0.000   1.615
   50        0.757   0.868   0.000   1.625
   51        0.763   0.861   0.000   1.624
   52        0.785   0.841   0.000   1.626
   53        0.747   0.916   0.000   1.663
   54        0.758   0.922   0.000   1.680
   55        0.796   0.819   0.000   1.615
   56        0.758   0.908   0.000   1.666
   57        0.752   0.851   0.000   1.602
   58        0.795   0.853   0.000   1.648
   59        0.745   0.908   0.000   1.653
   60        0.760   0.886   0.000   1.646
   61        0.760   0.913   0.000   1.673
   62        0.751   0.870   0.000   1.621
   63        0.751   0.873   0.000   1.624
   64        0.760   0.908   0.000   1.668
   65        0.752   0.934   0.000   1.686
   66        0.752   0.882   0.000   1.634
   67        0.752   0.887   0.000   1.640
   68        0.746   0.915   0.000   1.661
   69        0.745   0.875   0.000   1.620
   70        0.752   0.926   0.000   1.679
   71        0.739   0.905   0.000   1.644
   72        0.757   0.838   0.000   1.595
   73        0.749   0.914   0.000   1.663
   74        0.752   0.843   0.000   1.594
   75        0.761   0.872   0.000   1.633
   76        0.764   0.987   0.000   1.751
   77        0.762   0.903   0.000   1.666
   78        0.749   0.902   0.000   1.651
   79        0.759   0.873   0.000   1.632
   80        0.805   0.855   0.000   1.660
   81        0.752   0.883   0.000   1.635
   82        0.761   0.875   0.000   1.636
   83        0.765   0.923   0.000   1.688
   84        0.748   0.893   0.000   1.641
   85        0.754   0.878   0.000   1.631
--------------------------------------------------
tot         59.821  53.902   0.000 113.723


 total amount of memory used by VASP MPI-rank0   156179. kBytes
=======================================================================

   base                                    :      30000. kBytes
   nonl-proj                               :      29075. kBytes
   fftplans                                :      30763. kBytes
   grid                                    :      23712. kBytes
   one-center                              :         18. kBytes
   wavefun                                 :      42611. kBytes

  
  
 General timing and accounting informations for this job:
 ========================================================
  
                  Total CPU time used (sec):     1446.468
                            User time (sec):     1439.937
                          System time (sec):        6.531
                         Elapsed time (sec):     1447.855
  
                   Maximum memory used (kb):      352008.
                   Average memory used (kb):          N/A
  
                          Minor page faults:       199107
                          Major page faults:         1133
                 Voluntary context switches:         2523
