 vasp.6.5.0 16Dec24 (build Jan 20 2025 08:32:48) complex                         
 executed on        HPECrayEX_GCC date 2025.07.31  10:22:09
 running   64 mpi-ranks, with    1 threads/rank, on    1 nodes
 distrk:  each k-point on   64 cores,    1 groups
 distr:  one band on NCORE=  16 cores,    4 groups


--------------------------------------------------------------------------------------------------------


 INCAR:
   SYSTEM = a-Si SPC
   NCORE = 16
   ISTART = 1
   ICHARG = 1
   ISPIN = 1
   ISYM = 1
   EDIFF = 1E-6
   NELM = 150
   EDIFFG = -0.01
   NSW = 0
   ISIF = 2
   IBRION = -1
   PREC = Accurate
   ENCUT = 1200
   KSPACING = 0.23
   KGAMMA = .TRUE.
   METAGGA = SCAN
   LASPH = .TRUE.
   LDIAG = .FALSE.
   LMIXTAU = .TRUE.
   ADDGRID = .TRUE.
   ALGO = Normal
   ISMEAR = 0
   SIGMA = 0.1
   LORBIT = 11
   NEDOS = 2000
   LWAVE = .FALSE.
   LCHARG = .FALSE.

 POTCAR:    PAW_PBE Si 05Jan2001                  
 POTCAR:    PAW_PBE Si 05Jan2001                  
   SHA256 =  79d9987ad8750f624c4d6acb2a16d13abf6a777132adc04dc6c8399be72b42bb Si/POTCAR             
   COPYR  = (c) Copyright 05Jan2001 Georg Kresse                                                    
   COPYR  = This file is part of the software VASP. Any use, copying, and all other rights are regul
   COPYR  = If you do not have a valid VASP license, you may not use, copy or distribute this file. 
   VRHFIN =Si: s2p2                                                                                 
   LEXCH  = PE                                                                                      
   EATOM  =   103.0669 eV,    7.5752 Ry                                                             
                                                                                                    
   TITEL  = PAW_PBE Si 05Jan2001                                                                    
   LULTRA =        F    use ultrasoft PP ?                                                          
   IUNSCR =        1    unscreen: 0-lin 1-nonlin 2-no                                               
   RPACOR =    1.500    partial core radius                                                         
   POMASS =   28.085; ZVAL   =    4.000    mass and valenz                                          
   RCORE  =    1.900    outmost cutoff radius                                                       
   RWIGS  =    2.480; RWIGS  =    1.312    wigner-seitz radius (au A)                               
   ENMAX  =  245.345; ENMIN  =  184.009 eV                                                          
   ICORE  =        2    local potential                                                             
   LCOR   =        T    correct aug charges                                                         
   LPAW   =        T    paw PP                                                                      
   EAUG   =  322.069                                                                                
   DEXC   =    0.000                                                                                
   RMAX   =    1.950    core radius for proj-oper                                                   
   RAUG   =    1.300    factor for augmentation sphere                                              
   RDEP   =    1.993    radius for radial grids                                                     
   RDEPT  =    1.837    core radius for aug-charge                                                  
                                                                                                    
   Atomic configuration                                                                             
    6 entries                                                                                       
     n  l   j            E        occ.                                                              
     1  0  0.50     -1785.8828   2.0000                                                             
     2  0  0.50      -139.4969   2.0000                                                             
     2  1  1.50       -95.5546   6.0000                                                             
     3  0  0.50       -10.8127   2.0000                                                             
     3  1  0.50        -4.0811   2.0000                                                             
     3  2  1.50        -4.0817   0.0000                                                             
   Description                                                                                      
     l       E           TYP  RCUT    TYP  RCUT                                                     
     0    -10.8127223     23  1.900                                                                 
     0     -7.6451159     23  1.900                                                                 
     1     -4.0811372     23  1.900                                                                 
     1      2.4879257     23  1.900                                                                 
     2     -4.0817478      7  1.900                                                                 
  local pseudopotential read in
  partial core-charges read in
  partial kinetic energy density read in
  atomic valenz-charges read in
  non local Contribution for L=           0  read in
    real space projection operators read in
  non local Contribution for L=           0  read in
    real space projection operators read in
  non local Contribution for L=           1  read in
    real space projection operators read in
  non local Contribution for L=           1  read in
    real space projection operators read in
    PAW grid and wavefunctions read in

   number of l-projection  operators is LMAX  =           4
   number of lm-projection operators is LMMAX =           8

 -----------------------------------------------------------------------------
|                                                                             |
|               ----> ADVICE to this user running VASP <----                  |
|                                                                             |
|     You have a (more or less) 'large supercell' and for larger cells it     |
|     might be more efficient to use real-space projection operators.         |
|     Therefore, try LREAL= Auto in the INCAR file.                           |
|     Mind: For very accurate calculation, you might also keep the            |
|     reciprocal projection scheme (i.e. LREAL=.FALSE.).                      |
|                                                                             |
 -----------------------------------------------------------------------------

 -----------------------------------------------------------------------------
|                                                                             |
|               ----> ADVICE to this user running VASP <----                  |
|                                                                             |
|     You enforced a specific xc type in the INCAR file but a different       |
|     type was found in the POTCAR file.                                      |
|     I HOPE YOU KNOW WHAT YOU ARE DOING!                                     |
|                                                                             |
 -----------------------------------------------------------------------------

  PAW_PBE Si 05Jan2001                  :
 energy of atom  1       EATOM= -103.0669
 kinetic energy error for atom=    0.0001 (will be added to EATOM!!)


 POSCAR:  Si
  positions in cartesian coordinates
  No initial velocities read in


 exchange-correlation table for SCAN
   RHO(1)=    0.500       N(1)  =     2000
   RHO(2)=  100.500       N(2)  =     4000



--------------------------------------------------------------------------------------------------------


 ion  position               nearest neighbor table
   1  0.000  0.008  0.301-   8 2.26  73 2.26  95 2.33
   2  0.000  1.000  0.414-  96 2.35   5 2.36  66 2.36  95 2.37
   3  0.375  0.625  0.414-  20 2.35  17 2.36  77 2.36   6 2.37
   4  0.125  0.249  0.356-   8 2.33  10 2.36  93 2.36   5 2.37
   5  0.125  0.125  0.414-  13 2.35   2 2.36  11 2.36   4 2.37
   6  0.375  0.749  0.356-  24 2.33  31 2.36  25 2.36   3 2.37
   7  0.250  0.008  0.301-   9 2.26   8 2.26  25 2.33
   8  0.125  0.117  0.301-   1 2.26   7 2.26   4 2.33
   9  0.375  0.117  0.301-   7 2.26  75 2.26  15 2.33
  10  0.250  0.376  0.356-  26 2.33   4 2.36  15 2.36  17 2.37
  11  0.250  1.000  0.414-  27 2.35  16 2.36   5 2.36  25 2.37
  12  0.250  0.375  0.471-  57 2.34  13 2.35  14 2.35  17 2.35
  13  0.125  0.250  0.471-  40 2.34  12 2.35  94 2.35   5 2.35
  14  0.375  0.250  0.471-  41 2.34  30 2.35  12 2.35  16 2.35
  15  0.375  0.249  0.356-   9 2.33  29 2.36  10 2.36  16 2.37
  16  0.375  0.125  0.414-  14 2.35  11 2.36  76 2.36  15 2.37
  17  0.250  0.500  0.414-  12 2.35   3 2.36  19 2.36  10 2.37
  18  0.125  0.749  0.356-  23 2.33  25 2.36  95 2.36  19 2.37
  19  0.125  0.625  0.414-  28 2.35  22 2.36  17 2.36  18 2.37
  20  0.375  0.750  0.471-  55 2.34  32 2.35  27 2.35   3 2.35
  21  0.000  0.508  0.301-  23 2.26  88 2.26  93 2.33
  22  0.000  0.500  0.414-  94 2.35  19 2.36  82 2.36  93 2.37
  23  0.125  0.617  0.301-  21 2.26  26 2.26  18 2.33
  24  0.375  0.617  0.301-  26 2.26  80 2.26   6 2.33
  25  0.250  0.876  0.356-   7 2.33  18 2.36   6 2.36  11 2.37
  26  0.250  0.508  0.301-  24 2.26  23 2.26  10 2.33
  27  0.250  0.875  0.471-  39 2.34  28 2.35  20 2.35  11 2.35
  28  0.125  0.750  0.471-  54 2.34  27 2.35  96 2.35  19 2.35
  29  0.500  0.376  0.356-  80 2.33  15 2.36  78 2.36  77 2.37
  30  0.500  0.375  0.471- 118 2.34  14 2.35  69 2.35  77 2.35
  31  0.500  0.876  0.356-  75 2.33   6 2.36  92 2.36  76 2.37
  32  0.500  0.875  0.471-  97 2.34  20 2.35  84 2.35  76 2.35
  33  0.375  0.250  0.586-  41 2.35  61 2.36  42 2.36  34 2.37
  34  0.375  0.126  0.644-  38 2.33  35 2.36  98 2.36  33 2.37
  35  0.250  0.999  0.644-  50 2.33  34 2.36  47 2.36  56 2.37
  36  0.250  0.367  0.699-  37 2.26  38 2.26  53 2.33
  37  0.125  0.258  0.699-  36 2.26 113 2.26  47 2.33
  38  0.375  0.258  0.699-  62 2.26  36 2.26  34 2.33
  39  0.250  0.000  0.529-  27 2.34  41 2.35  40 2.35  56 2.35
  40  0.125  0.125  0.529-  13 2.34  43 2.35  39 2.35  46 2.35
  41  0.375  0.125  0.529-  14 2.34  39 2.35  97 2.35  33 2.35
  42  0.250  0.375  0.586-  57 2.35  46 2.36  33 2.36  53 2.37
  43  0.000  0.000  0.529-  96 2.34  40 2.35 105 2.35 128 2.35
  44  0.000  0.999  0.644-  99 2.33  47 2.36 112 2.36 128 2.37
  45  0.000  0.499  0.644- 113 2.33  60 2.36 102 2.36 127 2.37
  46  0.125  0.250  0.586-  40 2.35  42 2.36 127 2.36  47 2.37
  47  0.125  0.126  0.644-  37 2.33  44 2.36  35 2.36  46 2.37
  48  0.375  0.750  0.586-  55 2.35  63 2.36  56 2.36  49 2.37
  49  0.375  0.626  0.644-  52 2.33  53 2.36 119 2.36  48 2.37
  50  0.250  0.867  0.699-  51 2.26  52 2.26  35 2.33
  51  0.125  0.758  0.699-  50 2.26  99 2.26  60 2.33
  52  0.375  0.758  0.699-  64 2.26  50 2.26  49 2.33
  53  0.250  0.499  0.644-  36 2.33  49 2.36  60 2.36  42 2.37
  54  0.125  0.625  0.529-  28 2.34  58 2.35  57 2.35  59 2.35
  55  0.375  0.625  0.529-  20 2.34  57 2.35 118 2.35  48 2.35
  56  0.250  0.875  0.586-  39 2.35  59 2.36  48 2.36  35 2.37
  57  0.250  0.500  0.529-  12 2.34  55 2.35  54 2.35  42 2.35
  58  0.000  0.500  0.529-  94 2.34  54 2.35 121 2.35 127 2.35
  59  0.125  0.750  0.586-  54 2.35  56 2.36 128 2.36  60 2.37
  60  0.125  0.626  0.644-  51 2.33  45 2.36  53 2.36  59 2.37
  61  0.500  0.375  0.586- 118 2.35  33 2.36 100 2.36 119 2.37
  62  0.500  0.367  0.699-  38 2.26 109 2.26 119 2.33
  63  0.500  0.875  0.586-  97 2.35  48 2.36 115 2.36  98 2.37
  64  0.500  0.867  0.699-  52 2.26 125 2.26  98 2.33
  65  0.875  0.249  0.356-  73 2.33  93 2.36  74 2.36  66 2.37
  66  0.875  0.125  0.414-  70 2.35  67 2.36   2 2.36  65 2.37
  67  0.750  1.000  0.414-  83 2.35  66 2.36  79 2.36  89 2.37
  68  0.750  0.375  0.471- 123 2.34  69 2.35  70 2.35  86 2.35
  69  0.625  0.250  0.471- 104 2.34  68 2.35  30 2.35  79 2.35
  70  0.875  0.250  0.471- 105 2.34  94 2.35  68 2.35  66 2.35
  71  0.750  0.008  0.301-  73 2.26  72 2.26  89 2.33
  72  0.625  0.117  0.301-  75 2.26  71 2.26  78 2.33
  73  0.875  0.117  0.301-  71 2.26   1 2.26  65 2.33
  74  0.750  0.376  0.356-  90 2.33  78 2.36  65 2.36  86 2.37
  75  0.500  0.008  0.301-  72 2.26   9 2.26  31 2.33
  76  0.500  1.000  0.414-  32 2.35  79 2.36  16 2.36  31 2.37
  77  0.500  0.500  0.414-  30 2.35  91 2.36   3 2.36  29 2.37
  78  0.625  0.249  0.356-  72 2.33  74 2.36  29 2.36  79 2.37
  79  0.625  0.125  0.414-  69 2.35  76 2.36  67 2.36  78 2.37
  80  0.500  0.508  0.301-  87 2.26  24 2.26  29 2.33
  81  0.875  0.749  0.356-  88 2.33  95 2.36  89 2.36  82 2.37
  82  0.875  0.625  0.414-  85 2.35  86 2.36  22 2.36  81 2.37
  83  0.750  0.875  0.471- 103 2.34  84 2.35  85 2.35  67 2.35
  84  0.625  0.750  0.471- 120 2.34  83 2.35  32 2.35  91 2.35
  85  0.875  0.750  0.471- 121 2.34  96 2.35  83 2.35  82 2.35
  86  0.750  0.500  0.414-  68 2.35  82 2.36  91 2.36  74 2.37
  87  0.625  0.617  0.301-  80 2.26  90 2.26  92 2.33
  88  0.875  0.617  0.301-  90 2.26  21 2.26  81 2.33
  89  0.750  0.876  0.356-  71 2.33  92 2.36  81 2.36  67 2.37
  90  0.750  0.508  0.301-  88 2.26  87 2.26  74 2.33
  91  0.625  0.625  0.414-  84 2.35  77 2.36  86 2.36  92 2.37
  92  0.625  0.749  0.356-  87 2.33  89 2.36  31 2.36  91 2.37
  93  1.000  0.376  0.356-  21 2.33  65 2.36   4 2.36  22 2.37
  94  1.000  0.375  0.471-  58 2.34  70 2.35  13 2.35  22 2.35
  95  1.000  0.876  0.356-   1 2.33  81 2.36  18 2.36   2 2.37
  96  1.000  0.875  0.471-  43 2.34  85 2.35  28 2.35   2 2.35
  97  0.500  0.000  0.529-  32 2.34 104 2.35  41 2.35  63 2.35
  98  0.500  0.999  0.644-  64 2.33 101 2.36  34 2.36  63 2.37
  99  1.000  0.867  0.699- 126 2.26  51 2.26  44 2.33
 100  0.625  0.250  0.586- 104 2.35 106 2.36  61 2.36 101 2.37
 101  0.625  0.126  0.644- 109 2.33  98 2.36 107 2.36 100 2.37
 102  0.875  0.626  0.644- 126 2.33 117 2.36  45 2.36 114 2.37
 103  0.750  0.000  0.529-  83 2.34 105 2.35 104 2.35 122 2.35
 104  0.625  0.125  0.529-  69 2.34  97 2.35 103 2.35 100 2.35
 105  0.875  0.125  0.529-  70 2.34 103 2.35  43 2.35 111 2.35
 106  0.750  0.375  0.586- 123 2.35 100 2.36 111 2.36 117 2.37
 107  0.750  0.999  0.644- 124 2.33 112 2.36 101 2.36 122 2.37
 108  0.750  0.367  0.699- 109 2.26 110 2.26 117 2.33
 109  0.625  0.258  0.699- 108 2.26  62 2.26 101 2.33
 110  0.875  0.258  0.699- 113 2.26 108 2.26 112 2.33
 111  0.875  0.250  0.586- 105 2.35 127 2.36 106 2.36 112 2.37
 112  0.875  0.126  0.644- 110 2.33 107 2.36  44 2.36 111 2.37
 113  1.000  0.367  0.699- 110 2.26  37 2.26  45 2.33
 114  0.875  0.750  0.586- 121 2.35 128 2.36 122 2.36 102 2.37
 115  0.625  0.750  0.586- 120 2.35 122 2.36  63 2.36 116 2.37
 116  0.625  0.626  0.644- 125 2.33 119 2.36 117 2.36 115 2.37
 117  0.750  0.499  0.644- 108 2.33 102 2.36 116 2.36 106 2.37
 118  0.500  0.500  0.529-  30 2.34 120 2.35  55 2.35  61 2.35
 119  0.500  0.499  0.644-  62 2.33 116 2.36  49 2.36  61 2.37
 120  0.625  0.625  0.529-  84 2.34 118 2.35 123 2.35 115 2.35
 121  0.875  0.625  0.529-  85 2.34 123 2.35  58 2.35 114 2.35
 122  0.750  0.875  0.586- 103 2.35 115 2.36 114 2.36 107 2.37
 123  0.750  0.500  0.529-  68 2.34 121 2.35 120 2.35 106 2.35
 124  0.750  0.867  0.699- 125 2.26 126 2.26 107 2.33
 125  0.625  0.758  0.699- 124 2.26  64 2.26 116 2.33
 126  0.875  0.758  0.699-  99 2.26 124 2.26 102 2.33
 127  1.000  0.375  0.586-  58 2.35 111 2.36  46 2.36  45 2.37
 128  1.000  0.875  0.586-  43 2.35 114 2.36  59 2.36  44 2.37

  LATTYP: Found a simple orthorhombic cell.
 ALAT       =    10.8600000000
 B/A-ratio  =     1.4142135624
 C/A-ratio  =     3.0790574932
  
  Lattice vectors:
  
 A1 = (   0.0000000000, -10.8600000000,   0.0000000000)
 A2 = (  15.3583592874,   0.0000000000,   0.0000000000)
 A3 = (   0.0000000000,   0.0000000000,  33.4385643765)


Analysis of symmetry for initial positions (statically):
=====================================================================
 Subroutine PRICEL returns following result:
 
  LATTYP: Found a simple orthorhombic cell.
 ALAT       =     3.8395898218
 B/A-ratio  =     1.4142135624
 C/A-ratio  =     8.7088897325
  
  Lattice vectors:
  
 A1 = (   3.8395898218,   0.0000000000,   0.0000000000)
 A2 = (   0.0000000000,   5.4300000000,   0.0000000000)
 A3 = (   0.0000000000,   0.0000000000,  33.4385643765)
 
   8 primitive cells build up your supercell.
 

 Routine SETGRP: Setting up the symmetry group for a 
 simple orthorhombic supercell.


 Subroutine GETGRP returns: Found  8 space group operations
 (whereof  2 operations were pure point group operations)
 out of a pool of  8 trial point group operations.


The static configuration has the point symmetry C_1h.
 The point group associated with its full space group is D_2h.


Analysis of symmetry for dynamics (positions and initial velocities):
=====================================================================
 Subroutine PRICEL returns following result:
 
  LATTYP: Found a simple orthorhombic cell.
 ALAT       =     3.8395898218
 B/A-ratio  =     1.4142135624
 C/A-ratio  =     8.7088897325
  
  Lattice vectors:
  
 A1 = (   3.8395898218,   0.0000000000,   0.0000000000)
 A2 = (   0.0000000000,   5.4300000000,   0.0000000000)
 A3 = (   0.0000000000,   0.0000000000,  33.4385643765)
 
   8 primitive cells build up your supercell.
 

 Routine SETGRP: Setting up the symmetry group for a 
 simple orthorhombic supercell.


 Subroutine GETGRP returns: Found  8 space group operations
 (whereof  2 operations were pure point group operations)
 out of a pool of  8 trial point group operations.


The dynamic configuration has the point symmetry C_1h.
 The point group associated with its full space group is D_2h.


 Subroutine INISYM returns: Found  8 space group operations
 (whereof  2 operations are pure point group operations),
 and found     8 'primitive' translations


----------------------------------------------------------------------------------------

                                     Primitive cell                                     

  volume of cell :     697.1597

  direct lattice vectors                    reciprocal lattice vectors
     3.839589822  0.000000000  0.000000000     0.260444487 -0.000000000  0.000000000
     0.000000000  5.430000000  0.000000000     0.000000000  0.184162063  0.000000000
     0.000000000  0.000000000 33.438564376     0.000000000  0.000000000  0.029905590

  length of vectors
     3.839589822  5.430000000 33.438564376     0.260444487  0.184162063  0.029905590

  position of ions in fractional coordinates (direct lattice)
     0.000000000  0.015951430  0.300981822
     1.000000000  0.999034549  0.414007623
     0.500000000  0.250965451  0.414007623
     0.500000000  0.498339892  0.355765001
     0.500000000  0.234048570  0.300981822
     1.000000000  0.751660108  0.355765001
     1.000000000  0.749511097  0.471467774
     0.500000000  0.500488903  0.471467774
     0.500000000  0.499034549  0.585992377
     0.500000000  0.251660108  0.644234999
     1.000000000  0.998339892  0.644234999
     1.000000000  0.734048570  0.699018178
     0.500000000  0.515951430  0.699018178
     0.000000000  0.000488903  0.528532226
     0.500000000  0.249511097  0.528532226
     1.000000000  0.750965451  0.585992377

  ion indices of the primitive-cell ions
   primitive index   ion index
                 1           1
                 2           2
                 3           5
                 4           4
                 5           8
                 6          95
                 7          96
                 8          13
                 9          46
                10          47
                11          44
                12          99
                13         110
                14          43
                15          40
                16         128

----------------------------------------------------------------------------------------


 -----------------------------------------------------------------------------
|                                                                             |
|           W    W    AA    RRRRR   N    N  II  N    N   GGGG   !!!           |
|           W    W   A  A   R    R  NN   N  II  NN   N  G    G  !!!           |
|           W    W  A    A  R    R  N N  N  II  N N  N  G       !!!           |
|           W WW W  AAAAAA  RRRRR   N  N N  II  N  N N  G  GGG   !            |
|           WW  WW  A    A  R   R   N   NN  II  N   NN  G    G                |
|           W    W  A    A  R    R  N    N  II  N    N   GGGG   !!!           |
|                                                                             |
|     The requested file  could not be found or opened for reading            |
|     k-point information. Automatic k-point generation is used as a          |
|     fallback, which may lead to unwanted results.                           |
|                                                                             |
 -----------------------------------------------------------------------------



Automatic generation of k-mesh.
 Grid dimensions derived from KSPACING:
 generate k-points for:    2    3    1

 Generating k-lattice:

  Cartesian coordinates                     Fractional coordinates (reciprocal lattice)
     0.032555561  0.000000000  0.000000000     0.500000000  0.000000000  0.000000000
     0.000000000  0.030693677  0.000000000     0.000000000  0.333333333  0.000000000
     0.000000000  0.000000000  0.029905590     0.000000000  0.000000000  1.000000000

  Length of vectors
     0.032555561  0.030693677  0.029905590

  Shift w.r.t. Gamma in fractional coordinates (k-lattice)
     0.000000000  0.000000000  0.000000000

 
 Subroutine IBZKPT returns following result:
 ===========================================
 
 Found      4 irreducible k-points:
 
 Following reciprocal coordinates:
            Coordinates               Weight
  0.000000  0.000000  0.000000      1.000000
  0.500000  0.000000  0.000000      1.000000
  0.000000  0.333333  0.000000      2.000000
  0.500000  0.333333  0.000000      2.000000
 
 Following cartesian coordinates:
            Coordinates               Weight
  0.000000  0.000000  0.000000      1.000000
  0.032556  0.000000  0.000000      1.000000
  0.000000  0.030694  0.000000      2.000000
  0.032556  0.030694  0.000000      2.000000
 


--------------------------------------------------------------------------------------------------------




 Dimension of arrays:
   k-points           NKPTS =      4   k-points in BZ     NKDIM =      4   number of bands    NBANDS=    324
   number of dos      NEDOS =   2000   number of ions     NIONS =    128
   non local maximal  LDIM  =      4   non local SUM 2l+1 LMDIM =      8
   total plane-waves  NPLWV = ******
   max r-space proj   IRMAX =      1   max aug-charges    IRDMAX= 411304
   dimension x,y,z NGX =   180 NGY =  126 NGZ =  378
   dimension x,y,z NGXF=   360 NGYF=  252 NGZF=  756
   support grid    NGXF=   720 NGYF=  504 NGZF= 1512
   ions per type =             128
   NGX,Y,Z   is equivalent  to a cutoff of  19.48, 19.29, 18.79 a.u.
   NGXF,Y,Z  is equivalent  to a cutoff of  38.97, 38.58, 37.59 a.u.

 SYSTEM =  a-Si SPC                                
 POSCAR =   Si                                     

 Startparameter for this run:
   NWRITE =      2    write-flag & timer
   PREC   = accura    normal or accurate (medium, high low for compatibility)
   ISTART =      1    job   : 0-new  1-cont  2-samecut
   ICHARG =      1    charge: 1-file 2-atom 10-const
   ISPIN  =      1    spin polarized calculation?
   LNONCOLLINEAR =      F non collinear calculations
   LSORBIT =      F    spin-orbit coupling
   INIWAV =      1    electr: 0-lowe 1-rand  2-diag
   LASPH  =      T    aspherical Exc in radial PAW
 Electronic Relaxation 1
   ENCUT  = 1200.0 eV  88.20 Ry    9.39 a.u.  43.38 30.67 94.45*2*pi/ulx,y,z
   ENINI  = 1200.0     initial cutoff
   ENAUG  =  322.1 eV  augmentation charge cutoff
   NELM   =    150;   NELMIN=  2; NELMDL=  0     # of ELM steps 
   EDIFF  = 0.1E-05   stopping-criterion for ELM
   LREAL  =      F    real-space projection
   NLSPLINE    = F    spline interpolate recip. space projectors
   LCOMPAT=      F    compatible to vasp.4.4
   GGA_COMPAT  = T    GGA compatible to vasp.4.4-vasp.4.6
   LMAXPAW     = -100 max onsite density
   LMAXMIX     =    2 max onsite mixed and CHGCAR
   VOSKOWN=      0    Vosko Wilk Nusair interpolation
   ROPT   =    0.00000
 Ionic relaxation
   EDIFFG = -.1E-01   stopping-criterion for IOM
   NSW    =      0    number of steps for IOM
   NBLOCK =      1;   KBLOCK =      1    inner block; outer block 
   IBRION =     -1    ionic relax: 0-MD 1-quasi-New 2-CG
   NFREE  =      0    steps in history (QN), initial steepest desc. (CG)
   ISIF   =      2    stress and relaxation
   IWAVPR =     10    prediction:  0-non 1-charg 2-wave 3-comb
   ISYM   =      1    0-nonsym 1-usesym 2-fastsym
   LCORR  =      T    Harris-Foulkes like correction to forces

   POTIM  = 0.5000    time-step for ionic-motion
   TEIN   =    0.0    initial temperature
   TEBEG  =    0.0;   TEEND  =   0.0 temperature during run
   SMASS  =  -3.00    Nose mass-parameter (am)
   estimated Nose-frequenzy (Omega)   =  0.10E-29 period in steps = 0.13E+47 mass=  -0.539E-26a.u.
   SCALEE = 1.0000    scale energy and forces
   NPACO  =    256;   APACO  = 10.0  distance and # of slots for P.C.
   PSTRESS=    0.0 pullay stress

  Mass of Ions in am
   POMASS =  28.09
  Ionic Valenz
   ZVAL   =   4.00
  Atomic Wigner-Seitz radii
   RWIGS  =  -1.00
  virtual crystal weights 
   VCA    =   1.00
   NELECT =     512.0000    total number of electrons
   NUPDOWN=      -1.0000    fix difference up-down

 DOS related values:
   EMIN   =  10.00;   EMAX   =-10.00  energy-range for DOS
   EFERMI =   0.00;   METHOD = LEGACY      
   ISMEAR =     0;   SIGMA  =   0.10  broadening in eV -4-tet -1-fermi 0-gaus
   EFERMI_NEDOS =   21; number of points for ismear=-14 and -15

 Electronic relaxation 2 (details)
   IALGO  =     38    algorithm
   LDIAG  =      F    sub-space diagonalisation (order eigenvalues)
   LSUBROT=      F    optimize rotation matrix (better conditioning)
   TURBO    =      0    0=normal 1=particle mesh
   IRESTART =      0    0=no restart 2=restart with 2 vectors
   NREBOOT  =      0    no. of reboots
   NMIN     =      0    reboot dimension
   EREF     =   0.00    reference energy to select bands
   IMIX   =      4    mixing-type and parameters
     AMIX     =   0.40;   BMIX     =  1.00
     AMIX_MAG =   1.60;   BMIX_MAG =  1.00
     AMIN     =   0.10
     WC   =   100.;   INIMIX=   1;  MIXPRE=   1;  MAXMIX= -45

 Intra band minimization:
   WEIMIN = 0.0000     energy-eigenvalue tresh-hold
   EBREAK =  0.77E-09  absolut break condition
   DEPER  =   0.30     relativ break condition  

   TIME   =   0.40     timestep for ELM

  volume/ion in A,a.u.               =      43.57       294.04
  Fermi-wavevector in a.u.,A,eV,Ry     =   0.738512  1.395585  7.420612  0.545400
  Thomas-Fermi vector in A             =   1.832452

 Write flags
   LWAVE        =      F    write WAVECAR
   LDOWNSAMPLE  =      F    k-point downsampling of WAVECAR
   LCHARG       =      F    write CHGCAR
   LVTOT        =      F    write LOCPOT, total local potential
   LVHAR        =      F    write LOCPOT, Hartree potential only
   WRT_POTENTIAL= false  ! write potential to hdf5 file
   LELF         =      F    write electronic localiz. function (ELF)
   LORBIT       =     11    0 simple, 1 ext, 2 COOP (PROOUT), +10 PAW based schemes


 Python interface
   PLUGINS active      =      F    recompile with -DPLUGINS to activate

 Dipole corrections
   LMONO      =      F    monopole corrections only (constant potential shift)
   LDIPOL     =      F    correct potential (dipole corrections)
   IDIPOL     =      0    1-x, 2-y, 3-z, 4-all directions 
   EPSILON    =  1.0000000 bulk dielectric constant
   LVACPOTAV  =      F  vacuum potentials using an averaging scheme for the charge density
   VACPOTFLAT =  0.1000000 required flatness to determine vacuum potential

Coulomb truncation method
  LTRUNCATE          =      F  Coulomb kernel truncation to be used
  IDIMENSIONALITY    =      3  Dimensionality of cutoff (0 molecules / 2 surfaces)
  ISURFACE           =     -1  Direction of surface normal
  LCOARSEN           =      F  Coarsen the charge grid before padding, preferred


 Exchange correlation treatment:
   METAGGA = SCAN    functional components
   XC_C    = 1    coefficients multiplying the functional components
   LIBXC   =     F    Libxc                    
   VOSKOWN =     0    Vosko Wilk Nusair interpolation
   LHFCALC =     F    Hartree Fock is set to
   LHFONE  =     F    Hartree Fock one center treatment
   AEXX    =    0.0000 exact exchange contribution

 Parameters of functionals:
   SCAN:
     P1 =  0.000000E+00
     P2 =  0.000000E+00
     P3 =  0.000000E+00

 Accuracy and mixing parameters for tau-dependent meta-GGA functionals:
   LMAXTAU = 6
   LMIXTAU = T

 Van der Waals corrections
   IVDW    =     0    specifies the selected vdW correction

 Linear response parameters
   LEPSILON=     F    determine dielectric tensor
   LRPA    =     F    only Hartree local field effects (RPA)
   LNABLA  =     F    use nabla operator in PAW spheres
   LVEL    =     F    velocity operator in full k-point grid
   CSHIFT  =0.1000    complex shift for real part using Kramers Kronig
   OMEGAMAX=  -1.0    maximum frequency
   DEG_THRESHOLD= 0.2000000E-02 threshold for treating states as degnerate
   RTIME   =   -0.100 relaxation time in fs
  (WPLASMAI=    0.000 imaginary part of plasma frequency in eV, 0.658/RTIME)
   DFIELD  = 0.0000000 0.0000000 0.0000000 field for delta impulse in time

  Optional k-point grid parameters
   LKPOINTS_OPT  =     F    use optional k-point grid
   KPOINTS_OPT_MODE=     1    mode for optional k-point grid

 Orbital magnetization related:
   ORBITALMAG=     F  switch on orbital magnetization
   LCHIMAG   =     F  perturbation theory with respect to B field
   DQ        =  0.001000  dq finite difference perturbation B field
   LLRAUG    =     F  two centre corrections for induced B field
   LBONE     =     F  B-component reconstruction in AE one-centre
   LVGVCALC  =     T  calculate vGv susceptibility
   LVGVAPPL  =     F  apply vGv susceptibility instead of pGv for G=0

 Random number generation:
   RANDOM_GENERATOR = DEFAULT
   PCG_SEED         = not used


--------------------------------------------------------------------------------------------------------


 Static calculation
 charge density and potential will be updated during run
 non-spin polarized calculation
 Variant of blocked Davidson
 perform Loewdin sub-space diagonalisation
    ordering is kept fixed
    before iterative eigenvector-optimisation
 modified Broyden-mixing scheme, WC =      100.0
 initial mixing is a Kerker type mixing with AMIX =  0.4000 and BMIX =      1.0000
 Hartree-type preconditioning will be used
 using additional bands           68
 reciprocal scheme for non local part
 use partial core corrections
 calculate Harris-corrections to forces   (improved forces if not selfconsistent)
 use gradient corrections 
 use of overlap-Matrix (Vanderbilt PP)
 Gauss-broadening in eV      SIGMA  =   0.10


--------------------------------------------------------------------------------------------------------


  energy-cutoff  :     1200.00
  volume of cell :     5577.28
      direct lattice vectors                 reciprocal lattice vectors
    15.358359287  0.000000000  0.000000000     0.065111122  0.000000000  0.000000000
     0.000000000 10.860000000  0.000000000     0.000000000  0.092081031  0.000000000
     0.000000000  0.000000000 33.438564376     0.000000000  0.000000000  0.029905590

  length of vectors
    15.358359287 10.860000000 33.438564376     0.065111122  0.092081031  0.029905590



 old parameters found on file WAVECAR:
  energy-cutoff  :     1200.00
  volume of cell :     5577.28
      direct lattice vectors                 reciprocal lattice vectors
    15.358359287  0.000000000  0.000000000     0.065111122  0.000000000  0.000000000
     0.000000000 10.860000000  0.000000000     0.000000000  0.092081031  0.000000000
     0.000000000  0.000000000 33.438564376     0.000000000  0.000000000  0.029905590

  length of vectors


 k-points in units of 2pi/SCALE and weight: read from INCAR                         
   0.00000000  0.00000000  0.00000000       0.167
   0.03255556  0.00000000  0.00000000       0.167
   0.00000000  0.03069368  0.00000000       0.333
   0.03255556  0.03069368  0.00000000       0.333

 k-points in reciprocal lattice and weights: read from INCAR                         
   0.00000000  0.00000000  0.00000000       0.167
   0.50000000  0.00000000  0.00000000       0.167
   0.00000000  0.33333333  0.00000000       0.333
   0.50000000  0.33333333  0.00000000       0.333

 position of ions in fractional coordinates (direct lattice) 
   0.00000000  0.00797572  0.30098182
   0.00000000  0.99951727  0.41400762
   0.37500000  0.62548273  0.41400762
   0.12500000  0.24916995  0.35576500
   0.12500000  0.12548273  0.41400762
   0.37500000  0.74916995  0.35576500
   0.25000000  0.00797572  0.30098182
   0.12500000  0.11702428  0.30098182
   0.37500000  0.11702428  0.30098182
   0.25000000  0.37583005  0.35576500
   0.25000000  0.99951727  0.41400762
   0.25000000  0.37475555  0.47146777
   0.12500000  0.25024445  0.47146777
   0.37500000  0.25024445  0.47146777
   0.37500000  0.24916995  0.35576500
   0.37500000  0.12548273  0.41400762
   0.25000000  0.49951727  0.41400762
   0.12500000  0.74916995  0.35576500
   0.12500000  0.62548273  0.41400762
   0.37500000  0.75024445  0.47146777
   0.00000000  0.50797572  0.30098182
   0.00000000  0.49951727  0.41400762
   0.12500000  0.61702428  0.30098182
   0.37500000  0.61702428  0.30098182
   0.25000000  0.87583005  0.35576500
   0.25000000  0.50797572  0.30098182
   0.25000000  0.87475555  0.47146777
   0.12500000  0.75024445  0.47146777
   0.50000000  0.37583005  0.35576500
   0.50000000  0.37475555  0.47146777
   0.50000000  0.87583005  0.35576500
   0.50000000  0.87475555  0.47146777
   0.37500000  0.24951727  0.58599238
   0.37500000  0.12583005  0.64423500
   0.25000000  0.99916995  0.64423500
   0.25000000  0.36702428  0.69901818
   0.12500000  0.25797572  0.69901818
   0.37500000  0.25797572  0.69901818
   0.25000000  0.00024445  0.52853223
   0.12500000  0.12475555  0.52853223
   0.37500000  0.12475555  0.52853223
   0.25000000  0.37548273  0.58599238
   0.00000000  0.00024445  0.52853223
   0.00000000  0.99916995  0.64423500
   0.00000000  0.49916995  0.64423500
   0.12500000  0.24951727  0.58599238
   0.12500000  0.12583005  0.64423500
   0.37500000  0.74951727  0.58599238
   0.37500000  0.62583005  0.64423500
   0.25000000  0.86702428  0.69901818
   0.12500000  0.75797572  0.69901818
   0.37500000  0.75797572  0.69901818
   0.25000000  0.49916995  0.64423500
   0.12500000  0.62475555  0.52853223
   0.37500000  0.62475555  0.52853223
   0.25000000  0.87548273  0.58599238
   0.25000000  0.50024445  0.52853223
   0.00000000  0.50024445  0.52853223
   0.12500000  0.74951727  0.58599238
   0.12500000  0.62583005  0.64423500
   0.50000000  0.37548273  0.58599238
   0.50000000  0.36702428  0.69901818
   0.50000000  0.87548273  0.58599238
   0.50000000  0.86702428  0.69901818
   0.87500000  0.24916995  0.35576500
   0.87500000  0.12548273  0.41400762
   0.75000000  0.99951727  0.41400762
   0.75000000  0.37475555  0.47146777
   0.62500000  0.25024445  0.47146777
   0.87500000  0.25024445  0.47146777
   0.75000000  0.00797572  0.30098182
   0.62500000  0.11702428  0.30098182
   0.87500000  0.11702428  0.30098182
   0.75000000  0.37583005  0.35576500
   0.50000000  0.00797572  0.30098182
   0.50000000  0.99951727  0.41400762
   0.50000000  0.49951727  0.41400762
   0.62500000  0.24916995  0.35576500
   0.62500000  0.12548273  0.41400762
   0.50000000  0.50797572  0.30098182
   0.87500000  0.74916995  0.35576500
   0.87500000  0.62548273  0.41400762
   0.75000000  0.87475555  0.47146777
   0.62500000  0.75024445  0.47146777
   0.87500000  0.75024445  0.47146777
   0.75000000  0.49951727  0.41400762
   0.62500000  0.61702428  0.30098182
   0.87500000  0.61702428  0.30098182
   0.75000000  0.87583005  0.35576500
   0.75000000  0.50797572  0.30098182
   0.62500000  0.62548273  0.41400762
   0.62500000  0.74916995  0.35576500
   1.00000000  0.37583005  0.35576500
   1.00000000  0.37475555  0.47146777
   1.00000000  0.87583005  0.35576500
   1.00000000  0.87475555  0.47146777
   0.50000000  0.00024445  0.52853223
   0.50000000  0.99916995  0.64423500
   1.00000000  0.86702428  0.69901818
   0.62500000  0.24951727  0.58599238
   0.62500000  0.12583005  0.64423500
   0.87500000  0.62583005  0.64423500
   0.75000000  0.00024445  0.52853223
   0.62500000  0.12475555  0.52853223
   0.87500000  0.12475555  0.52853223
   0.75000000  0.37548273  0.58599238
   0.75000000  0.99916995  0.64423500
   0.75000000  0.36702428  0.69901818
   0.62500000  0.25797572  0.69901818
   0.87500000  0.25797572  0.69901818
   0.87500000  0.24951727  0.58599238
   0.87500000  0.12583005  0.64423500
   1.00000000  0.36702428  0.69901818
   0.87500000  0.74951727  0.58599238
   0.62500000  0.74951727  0.58599238
   0.62500000  0.62583005  0.64423500
   0.75000000  0.49916995  0.64423500
   0.50000000  0.50024445  0.52853223
   0.50000000  0.49916995  0.64423500
   0.62500000  0.62475555  0.52853223
   0.87500000  0.62475555  0.52853223
   0.75000000  0.87548273  0.58599238
   0.75000000  0.50024445  0.52853223
   0.75000000  0.86702428  0.69901818
   0.62500000  0.75797572  0.69901818
   0.87500000  0.75797572  0.69901818
   1.00000000  0.37548273  0.58599238
   1.00000000  0.87548273  0.58599238

 position of ions in cartesian coordinates  (Angst):
   0.00000000  0.08661627 10.06440004
   0.00000000 10.85475760 13.84382055
   5.75938473  6.79274240 13.84382055
   1.91979491  2.70598561 11.89627088
   1.91979491  1.36274240 13.84382055
   5.75938473  8.13598561 11.89627088
   3.83958982  0.08661627 10.06440004
   1.91979491  1.27088373 10.06440004
   5.75938473  1.27088373 10.06440004
   3.83958982  4.08151439 11.89627088
   3.83958982 10.85475760 13.84382055
   3.83958982  4.06984526 15.76520552
   1.91979491  2.71765474 15.76520552
   5.75938473  2.71765474 15.76520552
   5.75938473  2.70598561 11.89627088
   5.75938473  1.36274240 13.84382055
   3.83958982  5.42475760 13.84382055
   1.91979491  8.13598561 11.89627088
   1.91979491  6.79274240 13.84382055
   5.75938473  8.14765474 15.76520552
   0.00000000  5.51661627 10.06440004
   0.00000000  5.42475760 13.84382055
   1.91979491  6.70088373 10.06440004
   5.75938473  6.70088373 10.06440004
   3.83958982  9.51151439 11.89627088
   3.83958982  5.51661627 10.06440004
   3.83958982  9.49984526 15.76520552
   1.91979491  8.14765474 15.76520552
   7.67917964  4.08151439 11.89627088
   7.67917964  4.06984526 15.76520552
   7.67917964  9.51151439 11.89627088
   7.67917964  9.49984526 15.76520552
   5.75938473  2.70975760 19.59474383
   5.75938473  1.36651439 21.54229349
   3.83958982 10.85098561 21.54229349
   3.83958982  3.98588373 23.37416433
   1.91979491  2.80161627 23.37416433
   5.75938473  2.80161627 23.37416433
   3.83958982  0.00265474 17.67335885
   1.91979491  1.35484526 17.67335885
   5.75938473  1.35484526 17.67335885
   3.83958982  4.07774240 19.59474383
   0.00000000  0.00265474 17.67335885
   0.00000000 10.85098561 21.54229349
   0.00000000  5.42098561 21.54229349
   1.91979491  2.70975760 19.59474383
   1.91979491  1.36651439 21.54229349
   5.75938473  8.13975760 19.59474383
   5.75938473  6.79651439 21.54229349
   3.83958982  9.41588373 23.37416433
   1.91979491  8.23161627 23.37416433
   5.75938473  8.23161627 23.37416433
   3.83958982  5.42098561 21.54229349
   1.91979491  6.78484526 17.67335885
   5.75938473  6.78484526 17.67335885
   3.83958982  9.50774240 19.59474383
   3.83958982  5.43265474 17.67335885
   0.00000000  5.43265474 17.67335885
   1.91979491  8.13975760 19.59474383
   1.91979491  6.79651439 21.54229349
   7.67917964  4.07774240 19.59474383
   7.67917964  3.98588373 23.37416433
   7.67917964  9.50774240 19.59474383
   7.67917964  9.41588373 23.37416433
  13.43856438  2.70598561 11.89627088
  13.43856438  1.36274240 13.84382055
  11.51876947 10.85475760 13.84382055
  11.51876947  4.06984526 15.76520552
   9.59897455  2.71765474 15.76520552
  13.43856438  2.71765474 15.76520552
  11.51876947  0.08661627 10.06440004
   9.59897455  1.27088373 10.06440004
  13.43856438  1.27088373 10.06440004
  11.51876947  4.08151439 11.89627088
   7.67917964  0.08661627 10.06440004
   7.67917964 10.85475760 13.84382055
   7.67917964  5.42475760 13.84382055
   9.59897455  2.70598561 11.89627088
   9.59897455  1.36274240 13.84382055
   7.67917964  5.51661627 10.06440004
  13.43856438  8.13598561 11.89627088
  13.43856438  6.79274240 13.84382055
  11.51876947  9.49984526 15.76520552
   9.59897455  8.14765474 15.76520552
  13.43856438  8.14765474 15.76520552
  11.51876947  5.42475760 13.84382055
   9.59897455  6.70088373 10.06440004
  13.43856438  6.70088373 10.06440004
  11.51876947  9.51151439 11.89627088
  11.51876947  5.51661627 10.06440004
   9.59897455  6.79274240 13.84382055
   9.59897455  8.13598561 11.89627088
  15.35835929  4.08151439 11.89627088
  15.35835929  4.06984526 15.76520552
  15.35835929  9.51151439 11.89627088
  15.35835929  9.49984526 15.76520552
   7.67917964  0.00265474 17.67335885
   7.67917964 10.85098561 21.54229349
  15.35835929  9.41588373 23.37416433
   9.59897455  2.70975760 19.59474383
   9.59897455  1.36651439 21.54229349
  13.43856438  6.79651439 21.54229349
  11.51876947  0.00265474 17.67335885
   9.59897455  1.35484526 17.67335885
  13.43856438  1.35484526 17.67335885
  11.51876947  4.07774240 19.59474383
  11.51876947 10.85098561 21.54229349
  11.51876947  3.98588373 23.37416433
   9.59897455  2.80161627 23.37416433
  13.43856438  2.80161627 23.37416433
  13.43856438  2.70975760 19.59474383
  13.43856438  1.36651439 21.54229349
  15.35835929  3.98588373 23.37416433
  13.43856438  8.13975760 19.59474383
   9.59897455  8.13975760 19.59474383
   9.59897455  6.79651439 21.54229349
  11.51876947  5.42098561 21.54229349
   7.67917964  5.43265474 17.67335885
   7.67917964  5.42098561 21.54229349
   9.59897455  6.78484526 17.67335885
  13.43856438  6.78484526 17.67335885
  11.51876947  9.50774240 19.59474383
  11.51876947  5.43265474 17.67335885
  11.51876947  9.41588373 23.37416433
   9.59897455  8.23161627 23.37416433
  13.43856438  8.23161627 23.37416433
  15.35835929  4.07774240 19.59474383
  15.35835929  9.50774240 19.59474383



--------------------------------------------------------------------------------------------------------


 k-point     1 :   0.0000 0.0000 0.0000  plane waves:  526495
 k-point     2 :   0.5000 0.0000 0.0000  plane waves:  526498
 k-point     3 :   0.0000 0.3333 0.0000  plane waves:  526524
 k-point     4 :   0.5000 0.3333 0.0000  plane waves:  526386

 maximum and minimum number of plane-waves per node :     33010    32813

 maximum number of plane-waves:    526524
 maximum index in each direction: 
   IXMAX=   43   IYMAX=   30   IZMAX=   94
   IXMIN=  -43   IYMIN=  -31   IZMIN=  -94


 parallel 3D FFT for wavefunctions:
    minimum data exchange during FFTs selected (reduces bandwidth)
 parallel 3D FFT for charge:
    minimum data exchange during FFTs selected (reduces bandwidth)


 total amount of memory used by VASP MPI-rank0   562970. kBytes
=======================================================================

   base                                    :      30000. kBytes
   nonl-proj                               :      75875. kBytes
   fftplans                                :     180714. kBytes
   grid                                    :     105306. kBytes
   one-center                              :         24. kBytes
   wavefun                                 :     171051. kBytes

     INWAV:  cpu time     25.6445: real time     25.6559
 Broyden mixing: mesh for mixing (old mesh)
   NGX = 87   NGY = 61   NGZ =189
  (NGX  =360   NGY  =252   NGZ  =756)
  gives a total of ****** points

 initial charge density was supplied:
 number of electron     511.9999998 magnetization 
 keeping initial charge density in first step


--------------------------------------------------------------------------------------------------------


 Maximum index for augmentation-charges        12133 (set IRDMAX)


--------------------------------------------------------------------------------------------------------


 First call to EWALD:  gamma=   0.100
 Maximum number of real-space cells   3x   4x   2
 Maximum number of reciprocal cells   2x   2x   5

    FEWALD:  cpu time      0.0216: real time      0.0217


--------------------------------------- Ionic step        1  -------------------------------------------




--------------------------------------- Iteration      1(   1)  ---------------------------------------


    POTLOK:  cpu time      3.8493: real time      3.8515
    SETDIJ:  cpu time      2.7120: real time      2.7144
    EDDIAG:  cpu time    102.2214: real time    102.2807
     EDDAV:  cpu time    470.0561: real time    470.3258
       DOS:  cpu time      0.0053: real time      0.0053
    CHARGE:  cpu time    110.7142: real time    110.7762
    MIXING:  cpu time      0.0791: real time      0.0793
    --------------------------------------------
      LOOP:  cpu time    689.6375: real time    690.0332

 eigenvalue-minimisations  :  2592
 total energy-change (2. order) :-0.1324137E+04  (-0.1427243E+01)
 number of electron     511.9999998 magnetization 
 augmentation part      -28.6318152 magnetization 

 Broyden mixing:
  rms(total) = 0.14920E+01    rms(broyden)= 0.33722E+02
  rms(prec ) = 0.15303E+01
  weight for this iteration     100.00
  WARNING: grid for Broyden might be to small

 Free energy of the ion-electron system (eV)
  ---------------------------------------------------
  alpha Z        PSCENC =        98.88995334
  Ewald energy   TEWEN  =    103761.31970062
  -Hartree energ DENC   =   -116273.31540139
  -exchange      EXHF   =         0.00000000
  -V(xc)+E(xc)   XCENC  =      -622.08079189
  PAW double counting   =     51640.99073866   -50366.36556111
  entropy T*S    EENTRO =        -0.34959917
  eigenvalues    EBANDS =     -2755.78072422
  atomic energy  EATOM  =     13192.55497936
  Solvation  Ediel_sol  =         0.00000000
  ---------------------------------------------------
  free energy    TOTEN  =     -1324.13670578 eV

  energy without entropy =    -1323.78710661  energy(sigma->0) =    -1323.96190619


--------------------------------------------------------------------------------------------------------




--------------------------------------- Iteration      1(   2)  ---------------------------------------


    POTLOK:  cpu time      3.8531: real time      3.8633
    SETDIJ:  cpu time      2.7617: real time      2.7634
    EDDIAG:  cpu time    102.3647: real time    102.4218
     EDDAV:  cpu time    469.8814: real time    470.1568
       DOS:  cpu time      0.0049: real time      0.0049
    CHARGE:  cpu time    111.7862: real time    111.8637
    MIXING:  cpu time      0.0742: real time      0.0751
    --------------------------------------------
      LOOP:  cpu time    690.7261: real time    691.1489

 eigenvalue-minimisations  :  2600
 total energy-change (2. order) : 0.9122044E+02  (-0.1291803E+01)
 number of electron     511.9999998 magnetization 
 augmentation part      -28.5104944 magnetization 

 Broyden mixing:
  rms(total) = 0.98541E+00    rms(broyden)= 0.19464E+02
  rms(prec ) = 0.10051E+01
  weight for this iteration     100.00
  WARNING: grid for Broyden might be to small

 eigenvalues of (default mixing * dielectric matrix)
  average eigenvalue GAMMA=   0.6341
  0.6341

 Free energy of the ion-electron system (eV)
  ---------------------------------------------------
  alpha Z        PSCENC =        98.88995334
  Ewald energy   TEWEN  =    103761.31970062
  -Hartree energ DENC   =   -116264.13993431
  -exchange      EXHF   =         0.00000000
  -V(xc)+E(xc)   XCENC  =      -608.64595465
  PAW double counting   =     61935.90326519   -60660.90102055
  entropy T*S    EENTRO =        -0.33478709
  eigenvalues    EBANDS =     -2687.56246621
  atomic energy  EATOM  =     13192.55497936
  Solvation  Ediel_sol  =         0.00000000
  ---------------------------------------------------
  free energy    TOTEN  =     -1232.91626429 eV

  energy without entropy =    -1232.58147720  energy(sigma->0) =    -1232.74887075


--------------------------------------------------------------------------------------------------------




--------------------------------------- Iteration      1(   3)  ---------------------------------------


    POTLOK:  cpu time      3.8628: real time      3.8638
    SETDIJ:  cpu time      2.7106: real time      2.7186
    EDDIAG:  cpu time    102.5624: real time    102.6127
     EDDAV:  cpu time    470.4497: real time    470.7256
       DOS:  cpu time      0.0089: real time      0.0089
    CHARGE:  cpu time    111.4852: real time    111.6593
    MIXING:  cpu time      0.0780: real time      0.0780
    --------------------------------------------
      LOOP:  cpu time    691.1576: real time    691.6668

 eigenvalue-minimisations  :  2624
 total energy-change (2. order) :-0.6216899E+01  (-0.1072487E+01)
 number of electron     511.9999999 magnetization 
 augmentation part      -28.4143130 magnetization 

 Broyden mixing:
  rms(total) = 0.37468E+00    rms(broyden)= 0.31418E+02
  rms(prec ) = 0.48985E+00
  weight for this iteration     100.00
  WARNING: grid for Broyden might be to small

 eigenvalues of (default mixing * dielectric matrix)
  average eigenvalue GAMMA=   0.7921
  0.9568  0.6274

 Free energy of the ion-electron system (eV)
  ---------------------------------------------------
  alpha Z        PSCENC =        98.88995334
  Ewald energy   TEWEN  =    103761.31970062
  -Hartree energ DENC   =   -116256.16210823
  -exchange      EXHF   =         0.00000000
  -V(xc)+E(xc)   XCENC  =      -616.29356799
  PAW double counting   =     74615.31964497   -73340.48532326
  entropy T*S    EENTRO =        -0.32068120
  eigenvalues    EBANDS =     -2693.95576050
  atomic energy  EATOM  =     13192.55497936
  Solvation  Ediel_sol  =         0.00000000
  ---------------------------------------------------
  free energy    TOTEN  =     -1239.13316288 eV

  energy without entropy =    -1238.81248168  energy(sigma->0) =    -1238.97282228


--------------------------------------------------------------------------------------------------------




--------------------------------------- Iteration      1(   4)  ---------------------------------------


    POTLOK:  cpu time      3.8520: real time      3.8537
    SETDIJ:  cpu time      2.7103: real time      2.7113
    EDDIAG:  cpu time    102.5416: real time    102.5951
     EDDAV:  cpu time    480.0679: real time    480.3411
       DOS:  cpu time      0.0077: real time      0.0077
    CHARGE:  cpu time    111.3060: real time    111.3595
    MIXING:  cpu time      0.0785: real time      0.0785
    --------------------------------------------
      LOOP:  cpu time    700.5640: real time    700.9470

 eigenvalue-minimisations  :  2712
 total energy-change (2. order) : 0.7206974E+00  (-0.1143253E+00)
 number of electron     511.9999999 magnetization 
 augmentation part      -28.4029010 magnetization 

 Broyden mixing:
  rms(total) = 0.53064E-01    rms(broyden)= 0.27456E+01
  rms(prec ) = 0.61258E-01
  weight for this iteration     100.00
  WARNING: grid for Broyden might be to small

 eigenvalues of (default mixing * dielectric matrix)
  average eigenvalue GAMMA=   1.1717
  2.1591  0.7323  0.6236

 Free energy of the ion-electron system (eV)
  ---------------------------------------------------
  alpha Z        PSCENC =        98.88995334
  Ewald energy   TEWEN  =    103761.31970062
  -Hartree energ DENC   =   -116265.19070669
  -exchange      EXHF   =         0.00000000
  -V(xc)+E(xc)   XCENC  =      -617.28922124
  PAW double counting   =     83047.17890192   -81772.38191798
  entropy T*S    EENTRO =        -0.32155723
  eigenvalues    EBANDS =     -2683.17259759
  atomic energy  EATOM  =     13192.55497936
  Solvation  Ediel_sol  =         0.00000000
  ---------------------------------------------------
  free energy    TOTEN  =     -1238.41246548 eV

  energy without entropy =    -1238.09090824  energy(sigma->0) =    -1238.25168686


--------------------------------------------------------------------------------------------------------




--------------------------------------- Iteration      1(   5)  ---------------------------------------


    POTLOK:  cpu time      3.8472: real time      3.8492
    SETDIJ:  cpu time      2.7091: real time      2.7109
    EDDIAG:  cpu time    102.4946: real time    102.5530
     EDDAV:  cpu time    528.5760: real time    528.8863
       DOS:  cpu time      0.0044: real time      1.8454
    CHARGE:  cpu time    110.9748: real time    111.0391
    MIXING:  cpu time      0.0799: real time      0.0799
    --------------------------------------------
      LOOP:  cpu time    748.6860: real time    750.9638

 eigenvalue-minimisations  :  3184
 total energy-change (2. order) :-0.5009082E-01  (-0.9884323E-02)
 number of electron     511.9999999 magnetization 
 augmentation part      -28.4048919 magnetization 

 Broyden mixing:
  rms(total) = 0.34636E-01    rms(broyden)= 0.43327E+00
  rms(prec ) = 0.36059E-01
  weight for this iteration     100.00
  WARNING: grid for Broyden might be to small

 eigenvalues of (default mixing * dielectric matrix)
  average eigenvalue GAMMA=   1.1986
  2.5444  0.9565  0.6650  0.6283

 Free energy of the ion-electron system (eV)
  ---------------------------------------------------
  alpha Z        PSCENC =        98.88995334
  Ewald energy   TEWEN  =    103761.31970062
  -Hartree energ DENC   =   -116270.34463084
  -exchange      EXHF   =         0.00000000
  -V(xc)+E(xc)   XCENC  =      -618.74012976
  PAW double counting   =     82240.17871866   -80965.32277668
  entropy T*S    EENTRO =        -0.32193384
  eigenvalues    EBANDS =     -2676.67643718
  atomic energy  EATOM  =     13192.55497936
  Solvation  Ediel_sol  =         0.00000000
  ---------------------------------------------------
  free energy    TOTEN  =     -1238.46255630 eV

  energy without entropy =    -1238.14062247  energy(sigma->0) =    -1238.30158938


--------------------------------------------------------------------------------------------------------




--------------------------------------- Iteration      1(   6)  ---------------------------------------


    POTLOK:  cpu time      3.8428: real time      3.8450
    SETDIJ:  cpu time      2.7099: real time      2.7116
    EDDIAG:  cpu time    102.5011: real time    102.5613
     EDDAV:  cpu time    512.6037: real time    512.9102
       DOS:  cpu time      0.0053: real time      0.0055
    CHARGE:  cpu time    110.5999: real time    110.6857
    MIXING:  cpu time      0.0842: real time      0.0843
    --------------------------------------------
      LOOP:  cpu time    732.3468: real time    732.8036

 eigenvalue-minimisations  :  3032
 total energy-change (2. order) :-0.6693441E-02  (-0.1512089E-02)
 number of electron     511.9999999 magnetization 
 augmentation part      -28.4012466 magnetization 

 Broyden mixing:
  rms(total) = 0.16903E-01    rms(broyden)= 0.25656E+00
  rms(prec ) = 0.17443E-01
  weight for this iteration     100.00
  WARNING: grid for Broyden might be to small

 eigenvalues of (default mixing * dielectric matrix)
  average eigenvalue GAMMA=   1.1719
  2.5562  1.2167  0.8097  0.6441  0.6326

 Free energy of the ion-electron system (eV)
  ---------------------------------------------------
  alpha Z        PSCENC =        98.88995334
  Ewald energy   TEWEN  =    103761.31970062
  -Hartree energ DENC   =   -116268.24416971
  -exchange      EXHF   =         0.00000000
  -V(xc)+E(xc)   XCENC  =      -618.69851993
  PAW double counting   =     82150.96868633   -80876.07189319
  entropy T*S    EENTRO =        -0.32024595
  eigenvalues    EBANDS =     -2678.86774063
  atomic energy  EATOM  =     13192.55497936
  Solvation  Ediel_sol  =         0.00000000
  ---------------------------------------------------
  free energy    TOTEN  =     -1238.46924974 eV

  energy without entropy =    -1238.14900379  energy(sigma->0) =    -1238.30912677


--------------------------------------------------------------------------------------------------------




--------------------------------------- Iteration      1(   7)  ---------------------------------------


    POTLOK:  cpu time      3.8467: real time      3.8566
    SETDIJ:  cpu time      2.7113: real time      2.7127
    EDDIAG:  cpu time    102.4641: real time    102.5192
     EDDAV:  cpu time    487.5395: real time    487.8323
       DOS:  cpu time      0.0042: real time      0.0042
    CHARGE:  cpu time    110.9774: real time    111.0382
    MIXING:  cpu time      0.0805: real time      0.1012
    --------------------------------------------
      LOOP:  cpu time    707.6237: real time    708.0644

 eigenvalue-minimisations  :  2784
 total energy-change (2. order) :-0.1965710E-02  (-0.5599979E-03)
 number of electron     511.9999999 magnetization 
 augmentation part      -28.3978740 magnetization 

 Broyden mixing:
  rms(total) = 0.33644E-02    rms(broyden)= 0.19054E+00
  rms(prec ) = 0.40598E-02
  weight for this iteration     100.00
  WARNING: grid for Broyden might be to small

 eigenvalues of (default mixing * dielectric matrix)
  average eigenvalue GAMMA=   1.2250
  2.5755  1.7382  0.9996  0.7609  0.6283  0.6475

 Free energy of the ion-electron system (eV)
  ---------------------------------------------------
  alpha Z        PSCENC =        98.88995334
  Ewald energy   TEWEN  =    103761.31970062
  -Hartree energ DENC   =   -116268.30416644
  -exchange      EXHF   =         0.00000000
  -V(xc)+E(xc)   XCENC  =      -618.37454233
  PAW double counting   =     82200.91068344   -80925.97502618
  entropy T*S    EENTRO =        -0.32015148
  eigenvalues    EBANDS =     -2679.17264579
  atomic energy  EATOM  =     13192.55497936
  Solvation  Ediel_sol  =         0.00000000
  ---------------------------------------------------
  free energy    TOTEN  =     -1238.47121545 eV

  energy without entropy =    -1238.15106398  energy(sigma->0) =    -1238.31113971


--------------------------------------------------------------------------------------------------------




--------------------------------------- Iteration      1(   8)  ---------------------------------------


    POTLOK:  cpu time      3.8404: real time      3.8424
    SETDIJ:  cpu time      2.7095: real time      2.7111
    EDDIAG:  cpu time    102.4461: real time    102.5089
     EDDAV:  cpu time    502.2214: real time    502.5085
       DOS:  cpu time      0.0042: real time      0.0042
    CHARGE:  cpu time    110.7499: real time    110.8072
    MIXING:  cpu time      0.0837: real time      0.0837
    --------------------------------------------
      LOOP:  cpu time    722.0553: real time    722.4660

 eigenvalue-minimisations  :  2928
 total energy-change (2. order) : 0.1388484E-03  (-0.6409466E-04)
 number of electron     511.9999999 magnetization 
 augmentation part      -28.3995756 magnetization 

 Broyden mixing:
  rms(total) = 0.17810E-02    rms(broyden)= 0.57795E-01
  rms(prec ) = 0.19499E-02
  weight for this iteration     100.00
  WARNING: grid for Broyden might be to small

 eigenvalues of (default mixing * dielectric matrix)
  average eigenvalue GAMMA=   1.2896
  2.5448  2.5448  1.1070  0.8572  0.7042  0.6250  0.6441

 Free energy of the ion-electron system (eV)
  ---------------------------------------------------
  alpha Z        PSCENC =        98.88995334
  Ewald energy   TEWEN  =    103761.31970062
  -Hartree energ DENC   =   -116268.42034576
  -exchange      EXHF   =         0.00000000
  -V(xc)+E(xc)   XCENC  =      -618.56904176
  PAW double counting   =     82221.82977415   -80946.89499176
  entropy T*S    EENTRO =        -0.32016828
  eigenvalues    EBANDS =     -2678.86093653
  atomic energy  EATOM  =     13192.55497936
  Solvation  Ediel_sol  =         0.00000000
  ---------------------------------------------------
  free energy    TOTEN  =     -1238.47107660 eV

  energy without entropy =    -1238.15090832  energy(sigma->0) =    -1238.31099246


--------------------------------------------------------------------------------------------------------




--------------------------------------- Iteration      1(   9)  ---------------------------------------


    POTLOK:  cpu time      3.8391: real time      4.1868
    SETDIJ:  cpu time      2.7172: real time      2.7183
    EDDIAG:  cpu time    102.4682: real time    102.5282
     EDDAV:  cpu time    509.9587: real time    510.2537
       DOS:  cpu time      0.0043: real time      0.0043
    CHARGE:  cpu time    110.6714: real time    110.7318
    MIXING:  cpu time      0.0845: real time      0.0845
    --------------------------------------------
      LOOP:  cpu time    729.7437: real time    730.5078

 eigenvalue-minimisations  :  3000
 total energy-change (2. order) :-0.7129085E-04  (-0.1415385E-04)
 number of electron     511.9999999 magnetization 
 augmentation part      -28.4000627 magnetization 

 Broyden mixing:
  rms(total) = 0.11466E-02    rms(broyden)= 0.12878E-01
  rms(prec ) = 0.12617E-02
  weight for this iteration     100.00
  WARNING: grid for Broyden might be to small

 eigenvalues of (default mixing * dielectric matrix)
  average eigenvalue GAMMA=   1.3262
  2.8284  2.6685  1.2624  1.0582  0.8424  0.6885  0.6369  0.6247

 Free energy of the ion-electron system (eV)
  ---------------------------------------------------
  alpha Z        PSCENC =        98.88995334
  Ewald energy   TEWEN  =    103761.31970062
  -Hartree energ DENC   =   -116268.30176143
  -exchange      EXHF   =         0.00000000
  -V(xc)+E(xc)   XCENC  =      -618.63800529
  PAW double counting   =     82204.55900691   -80929.62242560
  entropy T*S    EENTRO =        -0.32024782
  eigenvalues    EBANDS =     -2678.91234799
  atomic energy  EATOM  =     13192.55497936
  Solvation  Ediel_sol  =         0.00000000
  ---------------------------------------------------
  free energy    TOTEN  =     -1238.47114789 eV

  energy without entropy =    -1238.15090008  energy(sigma->0) =    -1238.31102398


--------------------------------------------------------------------------------------------------------




--------------------------------------- Iteration      1(  10)  ---------------------------------------


    POTLOK:  cpu time      3.8445: real time      3.8464
    SETDIJ:  cpu time      2.7112: real time      2.7127
    EDDIAG:  cpu time    102.4759: real time    102.5343
     EDDAV:  cpu time    494.8234: real time    495.1226
       DOS:  cpu time      0.0083: real time      0.0083
    CHARGE:  cpu time    111.0620: real time    111.1238
    MIXING:  cpu time      0.0862: real time      0.0862
    --------------------------------------------
      LOOP:  cpu time    715.0114: real time    715.4342

 eigenvalue-minimisations  :  2856
 total energy-change (2. order) :-0.4744100E-04  (-0.4318037E-05)
 number of electron     511.9999999 magnetization 
 augmentation part      -28.3998363 magnetization 

 Broyden mixing:
  rms(total) = 0.36120E-03    rms(broyden)= 0.13628E-01
  rms(prec ) = 0.46376E-03
  weight for this iteration     100.00
  WARNING: grid for Broyden might be to small

 eigenvalues of (default mixing * dielectric matrix)
  average eigenvalue GAMMA=   1.3642
  3.2298  2.6728  1.6875  1.0583  0.8834  0.8036  0.6814  0.6305  0.6305

 Free energy of the ion-electron system (eV)
  ---------------------------------------------------
  alpha Z        PSCENC =        98.88995334
  Ewald energy   TEWEN  =    103761.31970062
  -Hartree energ DENC   =   -116267.96084997
  -exchange      EXHF   =         0.00000000
  -V(xc)+E(xc)   XCENC  =      -618.62089602
  PAW double counting   =     82203.02648949   -80928.08777821
  entropy T*S    EENTRO =        -0.32013779
  eigenvalues    EBANDS =     -2679.27265617
  atomic energy  EATOM  =     13192.55497936
  Solvation  Ediel_sol  =         0.00000000
  ---------------------------------------------------
  free energy    TOTEN  =     -1238.47119534 eV

  energy without entropy =    -1238.15105755  energy(sigma->0) =    -1238.31112644


--------------------------------------------------------------------------------------------------------




--------------------------------------- Iteration      1(  11)  ---------------------------------------


    POTLOK:  cpu time      3.8499: real time      3.8521
    SETDIJ:  cpu time      2.7098: real time      2.7118
    EDDIAG:  cpu time    102.4344: real time    102.4981
     EDDAV:  cpu time    475.0375: real time    475.3129
       DOS:  cpu time      0.0046: real time      0.0046
    CHARGE:  cpu time    110.9199: real time    110.9875
    MIXING:  cpu time      0.0933: real time      0.0940
    --------------------------------------------
      LOOP:  cpu time    695.0495: real time    695.4610

 eigenvalue-minimisations  :  2664
 total energy-change (2. order) :-0.3161543E-04  (-0.1178658E-05)
 number of electron     511.9999999 magnetization 
 augmentation part      -28.3999725 magnetization 

 Broyden mixing:
  rms(total) = 0.22340E-03    rms(broyden)= 0.76861E-02
  rms(prec ) = 0.30291E-03
  weight for this iteration     100.00
  WARNING: grid for Broyden might be to small

 eigenvalues of (default mixing * dielectric matrix)
  average eigenvalue GAMMA=   1.4093
  3.5575  2.6412  2.0874  1.1209  1.1209  0.8802  0.7537  0.6715  0.6278  0.6322

 Free energy of the ion-electron system (eV)
  ---------------------------------------------------
  alpha Z        PSCENC =        98.88995334
  Ewald energy   TEWEN  =    103761.31970062
  -Hartree energ DENC   =   -116267.72986929
  -exchange      EXHF   =         0.00000000
  -V(xc)+E(xc)   XCENC  =      -618.63599236
  PAW double counting   =     82204.59332558   -80929.65480454
  entropy T*S    EENTRO =        -0.32008084
  eigenvalues    EBANDS =     -2679.48843883
  atomic energy  EATOM  =     13192.55497936
  Solvation  Ediel_sol  =         0.00000000
  ---------------------------------------------------
  free energy    TOTEN  =     -1238.47122695 eV

  energy without entropy =    -1238.15114611  energy(sigma->0) =    -1238.31118653


--------------------------------------------------------------------------------------------------------




--------------------------------------- Iteration      1(  12)  ---------------------------------------


    POTLOK:  cpu time      3.8501: real time      3.9183
    SETDIJ:  cpu time      2.7075: real time      2.7095
    EDDIAG:  cpu time    102.5016: real time    102.5624
     EDDAV:  cpu time    420.9875: real time    421.2360
       DOS:  cpu time      0.0057: real time      0.0057
    CHARGE:  cpu time    111.0899: real time    111.1600
    MIXING:  cpu time      0.0886: real time      0.0891
    --------------------------------------------
      LOOP:  cpu time    641.2308: real time    641.6809

 eigenvalue-minimisations  :  2136
 total energy-change (2. order) :-0.1969491E-04  (-0.6350556E-06)
 number of electron     511.9999999 magnetization 
 augmentation part      -28.4000461 magnetization 

 Broyden mixing:
  rms(total) = 0.14135E-03    rms(broyden)= 0.19272E-02
  rms(prec ) = 0.19882E-03
  weight for this iteration     100.00
  WARNING: grid for Broyden might be to small

 eigenvalues of (default mixing * dielectric matrix)
  average eigenvalue GAMMA=   1.5230
  4.4723  2.6267  2.6267  1.4975  0.9935  0.9935  0.9024  0.7203  0.6268  0.6317
  0.6617

 Free energy of the ion-electron system (eV)
  ---------------------------------------------------
  alpha Z        PSCENC =        98.88995334
  Ewald energy   TEWEN  =    103761.31970062
  -Hartree energ DENC   =   -116267.59945185
  -exchange      EXHF   =         0.00000000
  -V(xc)+E(xc)   XCENC  =      -618.64599457
  PAW double counting   =     82203.59830138   -80928.66039046
  entropy T*S    EENTRO =        -0.32007628
  eigenvalues    EBANDS =     -2679.60826821
  atomic energy  EATOM  =     13192.55497936
  Solvation  Ediel_sol  =         0.00000000
  ---------------------------------------------------
  free energy    TOTEN  =     -1238.47124665 eV

  energy without entropy =    -1238.15117037  energy(sigma->0) =    -1238.31120851


--------------------------------------------------------------------------------------------------------




--------------------------------------- Iteration      1(  13)  ---------------------------------------


    POTLOK:  cpu time      3.8429: real time      3.8446
    SETDIJ:  cpu time      2.7104: real time      2.7125
    EDDIAG:  cpu time    102.4936: real time    102.5533
     EDDAV:  cpu time    433.1675: real time    433.4095
       DOS:  cpu time      0.0050: real time      0.0050
    CHARGE:  cpu time    110.8838: real time    110.9483
    MIXING:  cpu time      0.0905: real time      0.0905
    --------------------------------------------
      LOOP:  cpu time    653.1937: real time    653.5636

 eigenvalue-minimisations  :  2256
 total energy-change (2. order) :-0.3916766E-04  (-0.9024832E-06)
 number of electron     511.9999999 magnetization 
 augmentation part      -28.4000452 magnetization 

 Broyden mixing:
  rms(total) = 0.69184E-04    rms(broyden)= 0.28007E-02
  rms(prec ) = 0.11886E-03
  weight for this iteration     100.00
  WARNING: grid for Broyden might be to small

 eigenvalues of (default mixing * dielectric matrix)
  average eigenvalue GAMMA=   1.5202
  4.8208  2.7106  2.7106  1.5669  1.0243  1.0243  0.9710  0.8011  0.7021  0.6284
  0.6284  0.6538

 Free energy of the ion-electron system (eV)
  ---------------------------------------------------
  alpha Z        PSCENC =        98.88995334
  Ewald energy   TEWEN  =    103761.31970062
  -Hartree energ DENC   =   -116267.42996040
  -exchange      EXHF   =         0.00000000
  -V(xc)+E(xc)   XCENC  =      -618.64550486
  PAW double counting   =     82204.86849813   -80929.93103358
  entropy T*S    EENTRO =        -0.32007157
  eigenvalues    EBANDS =     -2679.77784688
  atomic energy  EATOM  =     13192.55497936
  Solvation  Ediel_sol  =         0.00000000
  ---------------------------------------------------
  free energy    TOTEN  =     -1238.47128581 eV

  energy without entropy =    -1238.15121425  energy(sigma->0) =    -1238.31125003


--------------------------------------------------------------------------------------------------------




--------------------------------------- Iteration      1(  14)  ---------------------------------------


    POTLOK:  cpu time      3.8424: real time      3.8464
    SETDIJ:  cpu time      2.7077: real time      2.7094
    EDDIAG:  cpu time    102.4594: real time    102.5185
     EDDAV:  cpu time    394.3811: real time    394.6157
       DOS:  cpu time      0.0075: real time      0.0075
    CHARGE:  cpu time    110.7564: real time    110.8194
    MIXING:  cpu time      0.0928: real time      0.0928
    --------------------------------------------
      LOOP:  cpu time    614.2473: real time    614.6097

 eigenvalue-minimisations  :  1880
 total energy-change (2. order) :-0.2152700E-04  (-0.4060068E-06)
 number of electron     511.9999999 magnetization 
 augmentation part      -28.4000498 magnetization 

 Broyden mixing:
  rms(total) = 0.52614E-04    rms(broyden)= 0.11313E-02
  rms(prec ) = 0.78907E-04
  weight for this iteration     100.00
  WARNING: grid for Broyden might be to small

 eigenvalues of (default mixing * dielectric matrix)
  average eigenvalue GAMMA=   1.5311
  4.9618  2.7652  2.7652  1.7674  1.3669  0.9876  0.9876  0.9487  0.7583  0.6905
  0.6252  0.6305  0.6496

 Free energy of the ion-electron system (eV)
  ---------------------------------------------------
  alpha Z        PSCENC =        98.88995334
  Ewald energy   TEWEN  =    103761.31970062
  -Hartree energ DENC   =   -116267.30740214
  -exchange      EXHF   =         0.00000000
  -V(xc)+E(xc)   XCENC  =      -618.64600348
  PAW double counting   =     82205.27064019   -80930.33337301
  entropy T*S    EENTRO =        -0.32005744
  eigenvalues    EBANDS =     -2679.89974480
  atomic energy  EATOM  =     13192.55497936
  Solvation  Ediel_sol  =         0.00000000
  ---------------------------------------------------
  free energy    TOTEN  =     -1238.47130734 eV

  energy without entropy =    -1238.15124990  energy(sigma->0) =    -1238.31127862


--------------------------------------------------------------------------------------------------------




--------------------------------------- Iteration      1(  15)  ---------------------------------------


    POTLOK:  cpu time      3.8350: real time      3.8371
    SETDIJ:  cpu time      2.7180: real time      2.7192
    EDDIAG:  cpu time    102.4495: real time    102.5046
     EDDAV:  cpu time    392.0699: real time    392.2914
       DOS:  cpu time      0.0086: real time      0.0086
    CHARGE:  cpu time    110.6451: real time    110.7086
    MIXING:  cpu time      0.0950: real time      0.0950
    --------------------------------------------
      LOOP:  cpu time    611.8211: real time    612.1644

 eigenvalue-minimisations  :  1856
 total energy-change (2. order) :-0.1934562E-04  (-0.3639418E-06)
 number of electron     511.9999999 magnetization 
 augmentation part      -28.4000589 magnetization 

 Broyden mixing:
  rms(total) = 0.39310E-04    rms(broyden)= 0.93004E-03
  rms(prec ) = 0.50824E-04
  weight for this iteration     100.00
  WARNING: grid for Broyden might be to small

 eigenvalues of (default mixing * dielectric matrix)
  average eigenvalue GAMMA=   1.5263
  5.0203  2.8124  2.8124  2.0361  1.4805  1.0460  0.9963  0.9963  0.8465  0.7366
  0.6824  0.6253  0.6314  0.6463

 Free energy of the ion-electron system (eV)
  ---------------------------------------------------
  alpha Z        PSCENC =        98.88995334
  Ewald energy   TEWEN  =    103761.31970062
  -Hartree energ DENC   =   -116267.17470333
  -exchange      EXHF   =         0.00000000
  -V(xc)+E(xc)   XCENC  =      -618.64681660
  PAW double counting   =     82204.33403824   -80929.39672062
  entropy T*S    EENTRO =        -0.32004354
  eigenvalues    EBANDS =     -2680.03171416
  atomic energy  EATOM  =     13192.55497936
  Solvation  Ediel_sol  =         0.00000000
  ---------------------------------------------------
  free energy    TOTEN  =     -1238.47132669 eV

  energy without entropy =    -1238.15128314  energy(sigma->0) =    -1238.31130492


--------------------------------------------------------------------------------------------------------




--------------------------------------- Iteration      1(  16)  ---------------------------------------


    POTLOK:  cpu time      3.8511: real time      3.8529
    SETDIJ:  cpu time      2.7114: real time      2.7124
    EDDIAG:  cpu time    102.4423: real time    102.4982
     EDDAV:  cpu time    384.7793: real time    385.0038
       DOS:  cpu time      0.0078: real time      0.0078
    CHARGE:  cpu time    110.6774: real time    110.7445
    MIXING:  cpu time      0.0975: real time      0.0975
    --------------------------------------------
      LOOP:  cpu time    604.5669: real time    604.9171

 eigenvalue-minimisations  :  1784
 total energy-change (2. order) :-0.5379756E-05  (-0.9745152E-07)
 number of electron     511.9999999 magnetization 
 augmentation part      -28.4000581 magnetization 

 Broyden mixing:
  rms(total) = 0.28392E-04    rms(broyden)= 0.47604E-03
  rms(prec ) = 0.34664E-04
  weight for this iteration     100.00
  WARNING: grid for Broyden might be to small

 eigenvalues of (default mixing * dielectric matrix)
  average eigenvalue GAMMA=   1.5356
  5.0471  2.8564  2.8564  2.2986  1.5660  1.2867  1.0542  1.0542  0.9316  0.7964
  0.7181  0.6708  0.6273  0.6273  0.6435

 Free energy of the ion-electron system (eV)
  ---------------------------------------------------
  alpha Z        PSCENC =        98.88995334
  Ewald energy   TEWEN  =    103761.31970062
  -Hartree energ DENC   =   -116267.14884334
  -exchange      EXHF   =         0.00000000
  -V(xc)+E(xc)   XCENC  =      -618.64627441
  PAW double counting   =     82204.49006064   -80929.55262224
  entropy T*S    EENTRO =        -0.32004422
  eigenvalues    EBANDS =     -2680.05824183
  atomic energy  EATOM  =     13192.55497936
  Solvation  Ediel_sol  =         0.00000000
  ---------------------------------------------------
  free energy    TOTEN  =     -1238.47133207 eV

  energy without entropy =    -1238.15128784  energy(sigma->0) =    -1238.31130995


--------------------------------------------------------------------------------------------------------




--------------------------------------- Iteration      1(  17)  ---------------------------------------


    POTLOK:  cpu time      3.8484: real time      3.8502
    SETDIJ:  cpu time      2.7102: real time      2.7116
    EDDIAG:  cpu time    102.4383: real time    102.5002
     EDDAV:  cpu time    381.8771: real time    382.1045
       DOS:  cpu time      0.0043: real time      0.0043
    CHARGE:  cpu time    110.8267: real time    110.8988
    MIXING:  cpu time      0.1022: real time      0.1022
    --------------------------------------------
      LOOP:  cpu time    601.8071: real time    602.1718

 eigenvalue-minimisations  :  1760
 total energy-change (2. order) :-0.2243149E-05  (-0.4774511E-07)
 number of electron     511.9999999 magnetization 
 augmentation part      -28.4000628 magnetization 

 Broyden mixing:
  rms(total) = 0.16301E-04    rms(broyden)= 0.32334E-03
  rms(prec ) = 0.19332E-04
  weight for this iteration     100.00
  WARNING: grid for Broyden might be to small

 eigenvalues of (default mixing * dielectric matrix)
  average eigenvalue GAMMA=   1.5399
  5.0614  3.1473  2.7033  2.5730  1.7178  1.3515  1.0881  1.0881  1.0087  0.8640
  0.7679  0.7056  0.6670  0.6269  0.6295  0.6389

 Free energy of the ion-electron system (eV)
  ---------------------------------------------------
  alpha Z        PSCENC =        98.88995334
  Ewald energy   TEWEN  =    103761.31970062
  -Hartree energ DENC   =   -116267.14365396
  -exchange      EXHF   =         0.00000000
  -V(xc)+E(xc)   XCENC  =      -618.64677437
  PAW double counting   =     82204.83970945   -80929.90224403
  entropy T*S    EENTRO =        -0.32004835
  eigenvalues    EBANDS =     -2680.06295637
  atomic energy  EATOM  =     13192.55497936
  Solvation  Ediel_sol  =         0.00000000
  ---------------------------------------------------
  free energy    TOTEN  =     -1238.47133431 eV

  energy without entropy =    -1238.15128596  energy(sigma->0) =    -1238.31131013


--------------------------------------------------------------------------------------------------------




--------------------------------------- Iteration      1(  18)  ---------------------------------------


    POTLOK:  cpu time      3.8461: real time      3.8509
    SETDIJ:  cpu time      2.7101: real time      2.7114
    EDDIAG:  cpu time    102.4274: real time    102.4844
     EDDAV:  cpu time    373.4368: real time    373.6547
[...]
   -.404E-09 -.904E+00 -.224E+03   0.314E-10 0.900E+00 0.225E+03   0.201E-23 -.170E+00 0.805E-04   0.504E-13 0.757E-05 -.118E-04
   0.361E-08 -.145E+00 -.753E+02   -.371E-11 0.169E+00 0.753E+02   0.757E-24 0.388E-01 0.808E-01   0.450E-13 0.708E-06 -.614E-07
   0.102E-08 -.193E+02 -.520E+03   0.171E-08 0.179E+02 0.517E+03   -.113E-21 0.159E+01 0.264E+01   0.246E-13 -.842E-06 -.879E-04
   0.206E-08 0.193E+02 -.520E+03   -.171E-08 -.179E+02 0.517E+03   -.210E-22 -.159E+01 0.264E+01   0.634E-13 0.842E-06 -.879E-04
   -.406E-08 0.193E+02 -.520E+03   -.171E-08 -.179E+02 0.517E+03   -.190E-21 -.159E+01 0.264E+01   0.452E-13 0.842E-06 -.879E-04
   -.322E-08 -.904E+00 -.224E+03   0.274E-10 0.900E+00 0.225E+03   -.314E-23 -.170E+00 0.805E-04   0.453E-14 0.757E-05 -.118E-04
   -.313E-08 -.904E+00 -.224E+03   0.321E-10 0.900E+00 0.225E+03   -.149E-23 -.170E+00 0.805E-04   0.694E-14 0.757E-05 -.118E-04
 -----------------------------------------------------------------------------------------------
   -.126E-07 -.276E-01 0.827E-05   -.912E-12 -.334E-13 -.739E-12   0.153E-21 0.233E-14 0.205E-14   0.105E-12 -.128E-12 0.209E-10


 POSITION                                       TOTAL-FORCE (eV/Angst)
 -----------------------------------------------------------------------------------
      0.00000      0.08662     10.06440         0.000000     -0.224709      0.310275
      0.00000     10.85476     13.84382         0.000000      0.186059     -0.120727
      5.75938      6.79274     13.84382        -0.000000     -0.186059     -0.120727
      1.91979      2.70599     11.89627        -0.000000      0.456846     -0.177612
      1.91979      1.36274     13.84382         0.000000     -0.186059     -0.120727
      5.75938      8.13599     11.89627         0.000000      0.456846     -0.177612
      3.83959      0.08662     10.06440         0.000000     -0.224709      0.310275
      1.91979      1.27088     10.06440         0.000000      0.224709      0.310275
      5.75938      1.27088     10.06440        -0.000000      0.224709      0.310275
      3.83959      4.08151     11.89627        -0.000000     -0.456846     -0.177612
      3.83959     10.85476     13.84382         0.000000      0.186059     -0.120727
      3.83959      4.06985     15.76521         0.000000     -0.064449     -0.049719
      1.91979      2.71765     15.76521        -0.000000      0.064449     -0.049719
      5.75938      2.71765     15.76521        -0.000000      0.064449     -0.049719
      5.75938      2.70599     11.89627         0.000000      0.456846     -0.177612
      5.75938      1.36274     13.84382         0.000000     -0.186059     -0.120727
      3.83959      5.42476     13.84382        -0.000000      0.186059     -0.120727
      1.91979      8.13599     11.89627        -0.000000      0.456846     -0.177612
      1.91979      6.79274     13.84382         0.000000     -0.186059     -0.120727
      5.75938      8.14765     15.76521        -0.000000      0.064449     -0.049719
      0.00000      5.51662     10.06440        -0.000000     -0.224709      0.310275
      0.00000      5.42476     13.84382         0.000000      0.186059     -0.120727
      1.91979      6.70088     10.06440         0.000000      0.224709      0.310275
      5.75938      6.70088     10.06440        -0.000000      0.224709      0.310275
      3.83959      9.51151     11.89627         0.000000     -0.456846     -0.177612
      3.83959      5.51662     10.06440         0.000000     -0.224709      0.310275
      3.83959      9.49985     15.76521         0.000000     -0.064449     -0.049719
      1.91979      8.14765     15.76521        -0.000000      0.064449     -0.049719
      7.67918      4.08151     11.89627        -0.000000     -0.456846     -0.177612
      7.67918      4.06985     15.76521        -0.000000     -0.064449     -0.049719
      7.67918      9.51151     11.89627        -0.000000     -0.456846     -0.177612
      7.67918      9.49985     15.76521         0.000000     -0.064449     -0.049719
      5.75938      2.70976     19.59474        -0.000000      0.186059      0.120727
      5.75938      1.36651     21.54229        -0.000000     -0.456846      0.177612
      3.83959     10.85099     21.54229         0.000000      0.456846      0.177612
      3.83959      3.98588     23.37416         0.000000      0.224709     -0.310275
      1.91979      2.80162     23.37416        -0.000000     -0.224709     -0.310275
      5.75938      2.80162     23.37416        -0.000000     -0.224709     -0.310275
      3.83959      0.00265     17.67336         0.000000      0.064449      0.049719
      1.91979      1.35485     17.67336        -0.000000     -0.064449      0.049719
      5.75938      1.35485     17.67336         0.000000     -0.064449      0.049719
      3.83959      4.07774     19.59474         0.000000     -0.186059      0.120727
      0.00000      0.00265     17.67336         0.000000      0.064449      0.049719
      0.00000     10.85099     21.54229         0.000000      0.456846      0.177612
      0.00000      5.42099     21.54229         0.000000      0.456846      0.177612
      1.91979      2.70976     19.59474         0.000000      0.186059      0.120727
      1.91979      1.36651     21.54229        -0.000000     -0.456846      0.177612
      5.75938      8.13976     19.59474         0.000000      0.186059      0.120727
      5.75938      6.79651     21.54229        -0.000000     -0.456846      0.177612
      3.83959      9.41588     23.37416        -0.000000      0.224709     -0.310275
      1.91979      8.23162     23.37416        -0.000000     -0.224709     -0.310275
      5.75938      8.23162     23.37416        -0.000000     -0.224709     -0.310275
      3.83959      5.42099     21.54229         0.000000      0.456846      0.177612
      1.91979      6.78485     17.67336        -0.000000     -0.064449      0.049719
      5.75938      6.78485     17.67336        -0.000000     -0.064449      0.049719
      3.83959      9.50774     19.59474        -0.000000     -0.186059      0.120727
      3.83959      5.43265     17.67336         0.000000      0.064449      0.049719
      0.00000      5.43265     17.67336         0.000000      0.064449      0.049719
      1.91979      8.13976     19.59474         0.000000      0.186059      0.120727
      1.91979      6.79651     21.54229         0.000000     -0.456846      0.177612
      7.67918      4.07774     19.59474         0.000000     -0.186059      0.120727
      7.67918      3.98588     23.37416         0.000000      0.224709     -0.310275
      7.67918      9.50774     19.59474        -0.000000     -0.186059      0.120727
      7.67918      9.41588     23.37416         0.000000      0.224709     -0.310275
     13.43856      2.70599     11.89627         0.000000      0.456846     -0.177612
     13.43856      1.36274     13.84382        -0.000000     -0.186059     -0.120727
     11.51877     10.85476     13.84382        -0.000000      0.186059     -0.120727
     11.51877      4.06985     15.76521         0.000000     -0.064449     -0.049719
      9.59897      2.71765     15.76521        -0.000000      0.064449     -0.049719
     13.43856      2.71765     15.76521        -0.000000      0.064449     -0.049719
     11.51877      0.08662     10.06440        -0.000000     -0.224709      0.310275
      9.59897      1.27088     10.06440        -0.000000      0.224709      0.310275
     13.43856      1.27088     10.06440        -0.000000      0.224709      0.310275
     11.51877      4.08151     11.89627         0.000000     -0.456846     -0.177612
      7.67918      0.08662     10.06440        -0.000000     -0.224709      0.310275
      7.67918     10.85476     13.84382         0.000000      0.186059     -0.120727
      7.67918      5.42476     13.84382         0.000000      0.186059     -0.120727
      9.59897      2.70599     11.89627        -0.000000      0.456846     -0.177612
      9.59897      1.36274     13.84382         0.000000     -0.186059     -0.120727
      7.67918      5.51662     10.06440        -0.000000     -0.224709      0.310275
     13.43856      8.13599     11.89627        -0.000000      0.456846     -0.177612
     13.43856      6.79274     13.84382         0.000000     -0.186059     -0.120727
     11.51877      9.49985     15.76521         0.000000     -0.064449     -0.049719
      9.59897      8.14765     15.76521        -0.000000      0.064449     -0.049719
     13.43856      8.14765     15.76521        -0.000000      0.064449     -0.049719
     11.51877      5.42476     13.84382         0.000000      0.186059     -0.120727
      9.59897      6.70088     10.06440         0.000000      0.224709      0.310275
     13.43856      6.70088     10.06440        -0.000000      0.224709      0.310275
     11.51877      9.51151     11.89627        -0.000000     -0.456846     -0.177612
     11.51877      5.51662     10.06440        -0.000000     -0.224709      0.310275
      9.59897      6.79274     13.84382        -0.000000     -0.186059     -0.120727
      9.59897      8.13599     11.89627         0.000000      0.456846     -0.177612
     15.35836      4.08151     11.89627         0.000000     -0.456846     -0.177612
     15.35836      4.06985     15.76521        -0.000000     -0.064449     -0.049719
     15.35836      9.51151     11.89627         0.000000     -0.456846     -0.177612
     15.35836      9.49985     15.76521        -0.000000     -0.064449     -0.049719
      7.67918      0.00265     17.67336         0.000000      0.064449      0.049719
      7.67918     10.85099     21.54229         0.000000      0.456846      0.177612
     15.35836      9.41588     23.37416         0.000000      0.224709     -0.310275
      9.59897      2.70976     19.59474         0.000000      0.186059      0.120727
      9.59897      1.36651     21.54229         0.000000     -0.456846      0.177612
     13.43856      6.79651     21.54229        -0.000000     -0.456846      0.177612
     11.51877      0.00265     17.67336        -0.000000      0.064449      0.049719
      9.59897      1.35485     17.67336         0.000000     -0.064449      0.049719
     13.43856      1.35485     17.67336         0.000000     -0.064449      0.049719
     11.51877      4.07774     19.59474         0.000000     -0.186059      0.120727
     11.51877     10.85099     21.54229         0.000000      0.456846      0.177612
     11.51877      3.98588     23.37416         0.000000      0.224709     -0.310275
      9.59897      2.80162     23.37416        -0.000000     -0.224709     -0.310275
     13.43856      2.80162     23.37416        -0.000000     -0.224709     -0.310275
     13.43856      2.70976     19.59474         0.000000      0.186059      0.120727
     13.43856      1.36651     21.54229         0.000000     -0.456846      0.177612
     15.35836      3.98588     23.37416         0.000000      0.224709     -0.310275
     13.43856      8.13976     19.59474        -0.000000      0.186059      0.120727
      9.59897      8.13976     19.59474         0.000000      0.186059      0.120727
      9.59897      6.79651     21.54229         0.000000     -0.456846      0.177612
     11.51877      5.42099     21.54229         0.000000      0.456846      0.177612
      7.67918      5.43265     17.67336         0.000000      0.064449      0.049719
      7.67918      5.42099     21.54229         0.000000      0.456846      0.177612
      9.59897      6.78485     17.67336        -0.000000     -0.064449      0.049719
     13.43856      6.78485     17.67336        -0.000000     -0.064449      0.049719
     11.51877      9.50774     19.59474        -0.000000     -0.186059      0.120727
     11.51877      5.43265     17.67336         0.000000      0.064449      0.049719
     11.51877      9.41588     23.37416        -0.000000      0.224709     -0.310275
      9.59897      8.23162     23.37416        -0.000000     -0.224709     -0.310275
     13.43856      8.23162     23.37416        -0.000000     -0.224709     -0.310275
     15.35836      4.07774     19.59474        -0.000000     -0.186059      0.120727
     15.35836      9.50774     19.59474        -0.000000     -0.186059      0.120727
 -----------------------------------------------------------------------------------
    total drift:                               -0.000000     -0.027608      0.000008


--------------------------------------------------------------------------------------------------------



  FREE ENERGIE OF THE ION-ELECTRON SYSTEM (eV)
  ---------------------------------------------------
  free  energy   TOTEN  =     -1238.47133522 eV

  energy  without entropy=    -1238.15128577  energy(sigma->0) =    -1238.31131049



--------------------------------------------------------------------------------------------------------


    POTLOK:  cpu time      6.5270: real time      6.5651


--------------------------------------------------------------------------------------------------------


     LOOP+:  cpu time  13247.3769: real time  13257.8131
    4ORBIT:  cpu time      0.0000: real time      0.0000



 total charge

# of ion       s       p       d       tot
------------------------------------------
    1        0.771   0.924   0.000   1.695
    2        0.749   0.951   0.000   1.699
    3        0.749   0.951   0.000   1.699
    4        0.753   0.929   0.000   1.682
    5        0.749   0.951   0.000   1.699
    6        0.753   0.929   0.000   1.682
    7        0.771   0.924   0.000   1.695
    8        0.771   0.924   0.000   1.695
    9        0.771   0.924   0.000   1.695
   10        0.753   0.929   0.000   1.682
   11        0.749   0.951   0.000   1.699
   12        0.746   0.961   0.000   1.707
   13        0.746   0.961   0.000   1.707
   14        0.746   0.961   0.000   1.707
   15        0.753   0.929   0.000   1.682
   16        0.749   0.951   0.000   1.699
   17        0.749   0.951   0.000   1.699
   18        0.753   0.929   0.000   1.682
   19        0.749   0.951   0.000   1.699
   20        0.746   0.961   0.000   1.707
   21        0.771   0.924   0.000   1.695
   22        0.749   0.951   0.000   1.699
   23        0.771   0.924   0.000   1.695
   24        0.771   0.924   0.000   1.695
   25        0.753   0.929   0.000   1.682
   26        0.771   0.924   0.000   1.695
   27        0.746   0.961   0.000   1.707
   28        0.746   0.961   0.000   1.707
   29        0.753   0.929   0.000   1.682
   30        0.746   0.961   0.000   1.707
   31        0.753   0.929   0.000   1.682
   32        0.746   0.961   0.000   1.707
   33        0.749   0.951   0.000   1.699
   34        0.753   0.929   0.000   1.682
   35        0.753   0.929   0.000   1.682
   36        0.771   0.924   0.000   1.695
   37        0.771   0.924   0.000   1.695
   38        0.771   0.924   0.000   1.695
   39        0.746   0.961   0.000   1.707
   40        0.746   0.961   0.000   1.707
   41        0.746   0.961   0.000   1.707
   42        0.749   0.951   0.000   1.699
   43        0.746   0.961   0.000   1.707
   44        0.753   0.929   0.000   1.682
   45        0.753   0.929   0.000   1.682
   46        0.749   0.951   0.000   1.699
   47        0.753   0.929   0.000   1.682
   48        0.749   0.951   0.000   1.699
   49        0.753   0.929   0.000   1.682
   50        0.771   0.924   0.000   1.695
   51        0.771   0.924   0.000   1.695
   52        0.771   0.924   0.000   1.695
   53        0.753   0.929   0.000   1.682
   54        0.746   0.961   0.000   1.707
   55        0.746   0.961   0.000   1.707
   56        0.749   0.951   0.000   1.699
   57        0.746   0.961   0.000   1.707
   58        0.746   0.961   0.000   1.707
   59        0.749   0.951   0.000   1.699
   60        0.753   0.929   0.000   1.682
   61        0.749   0.951   0.000   1.699
   62        0.771   0.924   0.000   1.695
   63        0.749   0.951   0.000   1.699
   64        0.771   0.924   0.000   1.695
   65        0.753   0.929   0.000   1.682
   66        0.749   0.951   0.000   1.699
   67        0.749   0.951   0.000   1.699
   68        0.746   0.961   0.000   1.707
   69        0.746   0.961   0.000   1.707
   70        0.746   0.961   0.000   1.707
   71        0.771   0.924   0.000   1.695
   72        0.771   0.924   0.000   1.695
   73        0.771   0.924   0.000   1.695
   74        0.753   0.929   0.000   1.682
   75        0.771   0.924   0.000   1.695
   76        0.749   0.951   0.000   1.699
   77        0.749   0.951   0.000   1.699
   78        0.753   0.929   0.000   1.682
   79        0.749   0.951   0.000   1.699
   80        0.771   0.924   0.000   1.695
   81        0.753   0.929   0.000   1.682
   82        0.749   0.951   0.000   1.699
   83        0.746   0.961   0.000   1.707
   84        0.746   0.961   0.000   1.707
   85        0.746   0.961   0.000   1.707
   86        0.749   0.951   0.000   1.699
   87        0.771   0.924   0.000   1.695
   88        0.771   0.924   0.000   1.695
   89        0.753   0.929   0.000   1.682
   90        0.771   0.924   0.000   1.695
   91        0.749   0.951   0.000   1.699
   92        0.753   0.929   0.000   1.682
   93        0.753   0.929   0.000   1.682
   94        0.746   0.961   0.000   1.707
   95        0.753   0.929   0.000   1.682
   96        0.746   0.961   0.000   1.707
   97        0.746   0.961   0.000   1.707
   98        0.753   0.929   0.000   1.682
   99        0.771   0.924   0.000   1.695
  100        0.749   0.951   0.000   1.699
  101        0.753   0.929   0.000   1.682
  102        0.753   0.929   0.000   1.682
  103        0.746   0.961   0.000   1.707
  104        0.746   0.961   0.000   1.707
  105        0.746   0.961   0.000   1.707
  106        0.749   0.951   0.000   1.699
  107        0.753   0.929   0.000   1.682
  108        0.771   0.924   0.000   1.695
  109        0.771   0.924   0.000   1.695
  110        0.771   0.924   0.000   1.695
  111        0.749   0.951   0.000   1.699
  112        0.753   0.929   0.000   1.682
  113        0.771   0.924   0.000   1.695
  114        0.749   0.951   0.000   1.699
  115        0.749   0.951   0.000   1.699
  116        0.753   0.929   0.000   1.682
  117        0.753   0.929   0.000   1.682
  118        0.746   0.961   0.000   1.707
  119        0.753   0.929   0.000   1.682
  120        0.746   0.961   0.000   1.707
  121        0.746   0.961   0.000   1.707
  122        0.749   0.951   0.000   1.699
  123        0.746   0.961   0.000   1.707
  124        0.771   0.924   0.000   1.695
  125        0.771   0.924   0.000   1.695
  126        0.771   0.924   0.000   1.695
  127        0.749   0.951   0.000   1.699
  128        0.749   0.951   0.000   1.699
--------------------------------------------------
tot         96.606 120.475   0.000 217.081


 total amount of memory used by VASP MPI-rank0   562970. kBytes
=======================================================================

   base                                    :      30000. kBytes
   nonl-proj                               :      75875. kBytes
   fftplans                                :     180714. kBytes
   grid                                    :     105306. kBytes
   one-center                              :         24. kBytes
   wavefun                                 :     171051. kBytes

  
  
 General timing and accounting informations for this job:
 ========================================================
  
                  Total CPU time used (sec):    13414.025
                            User time (sec):    12347.772
                          System time (sec):     1066.254
                         Elapsed time (sec):    13428.912
  
                   Maximum memory used (kb):     2340812.
                   Average memory used (kb):          N/A
  
                          Minor page faults:     22477818
                          Major page faults:         1214
                 Voluntary context switches:         2023
