 vasp.6.5.0 16Dec24 (build Jan 20 2025 08:32:48) complex                         
 executed on        HPECrayEX_GCC date 2025.07.29  09:51:17
 running  128 mpi-ranks, with    1 threads/rank, on    1 nodes
 distrk:  each k-point on  128 cores,    1 groups
 distr:  one band on NCORE=  16 cores,    8 groups


--------------------------------------------------------------------------------------------------------


 INCAR:
   SYSTEM = a-Si SPC
   NCORE = 16
   ISTART = 1
   ICHARG = 1
   ISPIN = 1
   ISYM = 1
   EDIFF = 1E-6
   NELM = 150
   EDIFFG = -0.01
   NSW = 0
   ISIF = 2
   IBRION = -1
   PREC = Accurate
   ENCUT = 1200
   KSPACING = 0.23
   KGAMMA = .TRUE.
   METAGGA = SCAN
   LASPH = .TRUE.
   LDIAG = .FALSE.
   LMIXTAU = .TRUE.
   ADDGRID = .TRUE.
   ALGO = Normal
   ISMEAR = 0
   SIGMA = 0.1
   LORBIT = 11
   NEDOS = 2000
   LWAVE = .FALSE.
   LCHARG = .FALSE.

 POTCAR:    PAW_PBE H 15Jun2001                   
 POTCAR:    PAW_PBE Si 05Jan2001                  
 POTCAR:    PAW_PBE H 15Jun2001                   
   SHA256 =  030f79b5d3ab3cf0e668861823c8fb652ff669f3e15e46930bd03bfd63a607b6 H/POTCAR              
   COPYR  = (c) Copyright 15Jun2001 Georg Kresse                                                    
   COPYR  = This file is part of the software VASP. Any use, copying, and all other rights are regul
   COPYR  = If you do not have a valid VASP license, you may not use, copy or distribute this file. 
   VRHFIN =H: ultrasoft test                                                                        
   LEXCH  = PE                                                                                      
   EATOM  =    12.4884 eV,    0.9179 Ry                                                             
                                                                                                    
   TITEL  = PAW_PBE H 15Jun2001                                                                     
   LULTRA =        F    use ultrasoft PP ?                                                          
   IUNSCR =        0    unscreen: 0-lin 1-nonlin 2-no                                               
   RPACOR =    0.000    partial core radius                                                         
   POMASS =    1.000; ZVAL   =    1.000    mass and valenz                                          
   RCORE  =    1.100    outmost cutoff radius                                                       
   RWIGS  =    0.700; RWIGS  =    0.370    wigner-seitz radius (au A)                               
   ENMAX  =  250.000; ENMIN  =  200.000 eV                                                          
   RCLOC  =    0.701    cutoff for local pot                                                        
   LCOR   =        T    correct aug charges                                                         
   LPAW   =        T    paw PP                                                                      
   EAUG   =  400.000                                                                                
   RMAX   =    1.123    core radius for proj-oper                                                   
   RAUG   =    1.200    factor for augmentation sphere                                              
   RDEP   =    1.112    radius for radial grids                                                     
   RDEPT  =    0.926    core radius for aug-charge                                                  
                                                                                                    
   Atomic configuration                                                                             
    2 entries                                                                                       
     n  l   j            E        occ.                                                              
     1  0  0.50        -6.4927   1.0000                                                             
     2  1  0.50        -3.4015   0.0000                                                             
   Description                                                                                      
     l       E           TYP  RCUT    TYP  RCUT                                                     
     0     -6.4927494     23  1.100                                                                 
     0      6.8029130     23  1.100                                                                 
     1     -4.0817478     23  1.100                                                                 
  local pseudopotential read in
  atomic valenz-charges read in
  non local Contribution for L=           0  read in
    real space projection operators read in
  non local Contribution for L=           0  read in
    real space projection operators read in
  non local Contribution for L=           1  read in
    real space projection operators read in
    PAW grid and wavefunctions read in

   number of l-projection  operators is LMAX  =           3
   number of lm-projection operators is LMMAX =           5

 POTCAR:    PAW_PBE Si 05Jan2001                  
   SHA256 =  79d9987ad8750f624c4d6acb2a16d13abf6a777132adc04dc6c8399be72b42bb Si/POTCAR             
   COPYR  = (c) Copyright 05Jan2001 Georg Kresse                                                    
   COPYR  = This file is part of the software VASP. Any use, copying, and all other rights are regul
   COPYR  = If you do not have a valid VASP license, you may not use, copy or distribute this file. 
   VRHFIN =Si: s2p2                                                                                 
   LEXCH  = PE                                                                                      
   EATOM  =   103.0669 eV,    7.5752 Ry                                                             
                                                                                                    
   TITEL  = PAW_PBE Si 05Jan2001                                                                    
   LULTRA =        F    use ultrasoft PP ?                                                          
   IUNSCR =        1    unscreen: 0-lin 1-nonlin 2-no                                               
   RPACOR =    1.500    partial core radius                                                         
   POMASS =   28.085; ZVAL   =    4.000    mass and valenz                                          
   RCORE  =    1.900    outmost cutoff radius                                                       
   RWIGS  =    2.480; RWIGS  =    1.312    wigner-seitz radius (au A)                               
   ENMAX  =  245.345; ENMIN  =  184.009 eV                                                          
   ICORE  =        2    local potential                                                             
   LCOR   =        T    correct aug charges                                                         
   LPAW   =        T    paw PP                                                                      
   EAUG   =  322.069                                                                                
   DEXC   =    0.000                                                                                
   RMAX   =    1.950    core radius for proj-oper                                                   
   RAUG   =    1.300    factor for augmentation sphere                                              
   RDEP   =    1.993    radius for radial grids                                                     
   RDEPT  =    1.837    core radius for aug-charge                                                  
                                                                                                    
   Atomic configuration                                                                             
    6 entries                                                                                       
     n  l   j            E        occ.                                                              
     1  0  0.50     -1785.8828   2.0000                                                             
     2  0  0.50      -139.4969   2.0000                                                             
     2  1  1.50       -95.5546   6.0000                                                             
     3  0  0.50       -10.8127   2.0000                                                             
     3  1  0.50        -4.0811   2.0000                                                             
     3  2  1.50        -4.0817   0.0000                                                             
   Description                                                                                      
     l       E           TYP  RCUT    TYP  RCUT                                                     
     0    -10.8127223     23  1.900                                                                 
     0     -7.6451159     23  1.900                                                                 
     1     -4.0811372     23  1.900                                                                 
     1      2.4879257     23  1.900                                                                 
     2     -4.0817478      7  1.900                                                                 
  local pseudopotential read in
  partial core-charges read in
  partial kinetic energy density read in
  atomic valenz-charges read in
  non local Contribution for L=           0  read in
    real space projection operators read in
  non local Contribution for L=           0  read in
    real space projection operators read in
  non local Contribution for L=           1  read in
    real space projection operators read in
  non local Contribution for L=           1  read in
    real space projection operators read in
    PAW grid and wavefunctions read in

   number of l-projection  operators is LMAX  =           4
   number of lm-projection operators is LMMAX =           8

 -----------------------------------------------------------------------------
|                                                                             |
|               ----> ADVICE to this user running VASP <----                  |
|                                                                             |
|     You have a (more or less) 'large supercell' and for larger cells it     |
|     might be more efficient to use real-space projection operators.         |
|     Therefore, try LREAL= Auto in the INCAR file.                           |
|     Mind: For very accurate calculation, you might also keep the            |
|     reciprocal projection scheme (i.e. LREAL=.FALSE.).                      |
|                                                                             |
 -----------------------------------------------------------------------------

 -----------------------------------------------------------------------------
|                                                                             |
|               ----> ADVICE to this user running VASP <----                  |
|                                                                             |
|     You enforced a specific xc type in the INCAR file but a different       |
|     type was found in the POTCAR file.                                      |
|     I HOPE YOU KNOW WHAT YOU ARE DOING!                                     |
|                                                                             |
 -----------------------------------------------------------------------------

  PAW_PBE H 15Jun2001                   :
 energy of atom  1       EATOM=  -12.4884
 kinetic energy error for atom=    0.0000 (will be added to EATOM!!)
  PAW_PBE Si 05Jan2001                  :
 energy of atom  2       EATOM= -103.0669
 kinetic energy error for atom=    0.0001 (will be added to EATOM!!)


 POSCAR:  H Si
  positions in cartesian coordinates
  No initial velocities read in


 exchange-correlation table for SCAN
   RHO(1)=    0.500       N(1)  =     2000
   RHO(2)=  100.500       N(2)  =     4000



--------------------------------------------------------------------------------------------------------


 ion  position               nearest neighbor table
   1  0.672  0.229  0.384-  51 1.48
   2  0.730  0.031  0.571-  25 1.49
   3  0.706  0.500  0.393-  33 1.47
   4  0.779  0.893  0.497-  22 1.49
   5  0.539  0.695  0.424-  58 1.48
   6  0.375  0.440  0.370-  27 1.48
   7  0.138  0.838  0.492-  18 1.65  57 1.65
   8  0.056  0.217  0.426-  31 2.35  49 2.39  45 2.40  13 2.71
   9  0.547  0.849  0.549-  26 2.25  15 2.28  46 2.31
  10  0.753  0.529  0.532-  55 2.30  52 2.34  56 2.34  33 2.46
  11  0.375  0.759  0.451-  12 2.33  46 2.35  41 2.47
  12  0.237  0.690  0.426-  11 2.33  57 2.35  38 2.40
  13  0.029  0.234  0.534-  50 2.38  36 2.39  49 2.39  31 2.42   8 2.71  24 3.13
  14  0.253  0.149  0.488-  21 2.36  39 2.38  43 2.53  50 2.56  45 2.80
  15  0.655  0.739  0.535-   9 2.28  22 2.30  52 2.32  58 2.34
  16  0.815  0.340  0.459-  55 2.34  31 2.35  51 2.40  29 2.42
  17  0.965  0.965  0.470-  34 2.31  35 2.35  23 2.37  45 2.37
  18  0.130  0.849  0.558-   7 1.65  23 2.31  48 2.37  20 2.39
  19  0.514  0.560  0.529-  58 2.33  28 2.35  41 2.36  52 2.38
  20  0.281  0.914  0.557-  46 2.35  39 2.38  18 2.39  43 2.43
  21  0.362  0.206  0.550-  59 2.33  32 2.33  14 2.36  43 2.41
  22  0.796  0.810  0.530-   4 1.49  15 2.30  40 2.33
  23  0.024  0.968  0.559-  18 2.31  50 2.36  17 2.37
  24  0.022  0.444  0.506-  29 2.33  37 2.34  49 2.37  36 2.38  13 3.13
  25  0.706  0.054  0.514-   2 1.49  54 2.33  26 2.35  34 2.35
  26  0.582  0.960  0.489-   9 2.25  42 2.29  25 2.35
  27  0.366  0.365  0.410-   6 1.48  44 2.32  53 2.34
  28  0.511  0.398  0.533-  19 2.35  44 2.36  32 2.39  47 2.42
  29  0.922  0.459  0.433-  56 2.33  24 2.33  16 2.42
  30  0.199  0.963  0.410-  39 2.31  45 2.34  57 2.35
  31  0.911  0.210  0.466-  34 2.31   8 2.35  16 2.35  13 2.42
  32  0.359  0.364  0.564-  21 2.33  53 2.39  28 2.39
  33  0.716  0.567  0.437-   3 1.47  58 2.25  56 2.30  10 2.46
  34  0.843  0.066  0.465-  17 2.31  31 2.31  25 2.35
  35  0.975  0.825  0.423-  40 2.34  17 2.35  57 2.35
  36  0.945  0.357  0.574-  24 2.38  13 2.39  55 2.42
  37  0.101  0.577  0.530-  48 2.28  38 2.29  24 2.34
  38  0.244  0.569  0.491-  37 2.29  41 2.35  12 2.40  53 2.44
  39  0.307  0.996  0.475-  30 2.31  42 2.33  14 2.38  20 2.38  43 2.88
  40  0.924  0.734  0.495-  22 2.33  56 2.34  35 2.34  48 2.36
  41  0.376  0.644  0.524-  38 2.35  19 2.36  46 2.37  11 2.47
  42  0.458  0.034  0.453-  26 2.29  59 2.31  39 2.33
  43  0.272  0.076  0.580-  21 2.41  50 2.42  20 2.43  14 2.53  39 2.88
  44  0.506  0.324  0.448-  27 2.32  28 2.36  59 2.39  51 2.42  54 3.07
  45  0.093  0.062  0.451-  30 2.34  17 2.37   8 2.40  50 2.45  14 2.80
  46  0.395  0.803  0.541-   9 2.31  20 2.35  11 2.35  41 2.37
  47  0.640  0.320  0.574-  54 2.33  55 2.36  28 2.42
  48  0.041  0.712  0.559-  37 2.28  40 2.36  18 2.37
  49  0.130  0.329  0.481-  24 2.37   8 2.39  13 2.39  53 2.40
  50  0.118  0.098  0.546-  23 2.36  13 2.38  43 2.42  45 2.45  14 2.56
  51  0.666  0.284  0.434-   1 1.48  54 2.38  16 2.40  44 2.42
  52  0.642  0.603  0.584-  15 2.32  10 2.34  19 2.38  58 3.07
  53  0.276  0.405  0.485-  27 2.34  32 2.39  49 2.40  38 2.44
  54  0.634  0.198  0.513-  47 2.33  25 2.33  59 2.34  51 2.38  44 3.07
  55  0.786  0.377  0.549-  10 2.30  16 2.34  47 2.36  36 2.42
  56  0.861  0.592  0.472-  33 2.30  29 2.33  40 2.34  10 2.34
  57  0.137  0.816  0.426-   7 1.65  12 2.35  35 2.35  30 2.35
  58  0.594  0.648  0.466-   5 1.48  33 2.25  19 2.33  15 2.34  52 3.07
  59  0.480  0.178  0.489-  42 2.31  21 2.33  54 2.34  44 2.39

  LATTYP: Found a simple tetragonal cell.
 ALAT       =    14.5538280032
 C/A-ratio  =     1.7044974006
  
  Lattice vectors:
  
 A1 = (  14.5538280032,   0.0000000000,   0.0000000000)
 A2 = (   0.0000000000,  14.5538280032,   0.0000000000)
 A3 = (   0.0000000000,   0.0000000000,  24.8069620000)


Analysis of symmetry for initial positions (statically):
=====================================================================
 Subroutine PRICEL returns:
 Original cell was already a primitive cell.
 

 Routine SETGRP: Setting up the symmetry group for a 
 simple tetragonal supercell.


 Subroutine GETGRP returns: Found  1 space group operations
 (whereof  1 operations were pure point group operations)
 out of a pool of 16 trial point group operations.


The static configuration has the point symmetry C_1 .


Analysis of symmetry for dynamics (positions and initial velocities):
=====================================================================
 Subroutine PRICEL returns:
 Original cell was already a primitive cell.
 

 Routine SETGRP: Setting up the symmetry group for a 
 simple tetragonal supercell.


 Subroutine GETGRP returns: Found  1 space group operations
 (whereof  1 operations were pure point group operations)
 out of a pool of 16 trial point group operations.


The dynamic configuration has the point symmetry C_1 .


 Subroutine INISYM returns: Found  1 space group operations
 (whereof  1 operations are pure point group operations),
 and found     1 'primitive' translations


----------------------------------------------------------------------------------------

                                     Primitive cell                                     

  volume of cell :    5254.4596

  direct lattice vectors                    reciprocal lattice vectors
    14.553828003  0.000000000  0.000000000     0.068710445  0.000000000  0.000000000
     0.000000000 14.553828003  0.000000000     0.000000000  0.068710445  0.000000000
     0.000000000  0.000000000 24.806962000     0.000000000  0.000000000  0.040311264

  length of vectors
    14.553828003 14.553828003 24.806962000     0.068710445  0.068710445  0.040311264

  position of ions in fractional coordinates (direct lattice)
     0.671663218  0.229165174  0.383671629
     0.729713841  0.030671349  0.571158366
     0.706433531  0.499833787  0.393238599
     0.779153016  0.893465641  0.496720570
     0.539190038  0.694782914  0.424413375
     0.374527823  0.440128977  0.370362029
     0.138174128  0.837840546  0.491649761
     0.055823110  0.216768272  0.425757746
     0.546659198  0.849438782  0.549499119
     0.752919380  0.528813274  0.531840860
     0.375259145  0.759094002  0.451013195
     0.237243288  0.689585307  0.425898148
     0.028841900  0.233960519  0.533554071
     0.252791637  0.149057227  0.487779595
     0.655163440  0.738987944  0.535291901
     0.815108654  0.339802836  0.458931437
     0.965374477  0.965330021  0.469580459
     0.129522736  0.849197315  0.557545186
     0.514175207  0.559711731  0.529434222
     0.280777642  0.913645713  0.557023101
     0.361595386  0.205865782  0.549681383
     0.796140722  0.809736799  0.529999250
     0.023834260  0.967805605  0.558554723
     0.021822994  0.443606116  0.505975526
     0.705921803  0.054295155  0.514265733
     0.581942776  0.959743975  0.489191432
     0.366459001  0.364976907  0.410305865
     0.511234416  0.398380271  0.533064849
     0.921544859  0.459354882  0.433100520
     0.198679440  0.963357667  0.410356514
     0.910523017  0.210032732  0.466459061
     0.359279765  0.363861725  0.563989192
     0.716302931  0.566697318  0.437469150
     0.843180613  0.065984644  0.464587962
     0.975428976  0.824971405  0.423245766
     0.945374496  0.357298591  0.573866246
     0.101396498  0.576630333  0.530364838
     0.243625232  0.568851545  0.491493898
     0.307069342  0.996085532  0.475414896
     0.923966729  0.734177784  0.495217006
     0.375567894  0.644022091  0.523993953
     0.457808278  0.033759152  0.452738366
     0.272432218  0.076098998  0.579558676
     0.506225038  0.324447732  0.448319059
     0.092771330  0.062011199  0.451169554
     0.395297738  0.803095462  0.541428954
     0.640495100  0.319805904  0.573778773
     0.041155636  0.712420887  0.559458622
     0.129577626  0.328777464  0.481322700
     0.117536695  0.098158582  0.546353859
     0.665697027  0.284429341  0.433646860
     0.641504357  0.603434118  0.584054528
     0.275808101  0.404657486  0.484786818
     0.634269874  0.197827084  0.512931157
     0.786060174  0.377191096  0.549089614
     0.860709742  0.591516957  0.471982868
     0.136874202  0.816391547  0.426424397
     0.593897911  0.647891098  0.466272228
     0.480172376  0.178187196  0.488991115

  ion indices of the primitive-cell ions
   primitive index   ion index
                 1           1
                 2           2
                 3           3
                 4           4
                 5           5
                 6           6
                 7           7
                 8           8
                 9           9
                10          10
                11          11
                12          12
                13          13
                14          14
                15          15
                16          16
                17          17
                18          18
                19          19
                20          20
                21          21
                22          22
                23          23
                24          24
                25          25
                26          26
                27          27
                28          28
                29          29
                30          30
                31          31
                32          32
                33          33
                34          34
                35          35
                36          36
                37          37
                38          38
                39          39
                40          40
                41          41
                42          42
                43          43
                44          44
                45          45
                46          46
                47          47
                48          48
                49          49
                50          50
                51          51
                52          52
                53          53
                54          54
                55          55
                56          56
                57          57
                58          58
                59          59

----------------------------------------------------------------------------------------


 -----------------------------------------------------------------------------
|                                                                             |
|           W    W    AA    RRRRR   N    N  II  N    N   GGGG   !!!           |
|           W    W   A  A   R    R  NN   N  II  NN   N  G    G  !!!           |
|           W    W  A    A  R    R  N N  N  II  N N  N  G       !!!           |
|           W WW W  AAAAAA  RRRRR   N  N N  II  N  N N  G  GGG   !            |
|           WW  WW  A    A  R   R   N   NN  II  N   NN  G    G                |
|           W    W  A    A  R    R  N    N  II  N    N   GGGG   !!!           |
|                                                                             |
|     The requested file  could not be found or opened for reading            |
|     k-point information. Automatic k-point generation is used as a          |
|     fallback, which may lead to unwanted results.                           |
|                                                                             |
 -----------------------------------------------------------------------------



Automatic generation of k-mesh.
 Grid dimensions derived from KSPACING:
 generate k-points for:    2    2    2

 Generating k-lattice:

  Cartesian coordinates                     Fractional coordinates (reciprocal lattice)
     0.034355223  0.000000000  0.000000000     0.500000000  0.000000000  0.000000000
     0.000000000  0.034355223  0.000000000     0.000000000  0.500000000  0.000000000
     0.000000000  0.000000000  0.020155632     0.000000000  0.000000000  0.500000000

  Length of vectors
     0.034355223  0.034355223  0.020155632

  Shift w.r.t. Gamma in fractional coordinates (k-lattice)
     0.000000000  0.000000000  0.000000000

 
 Subroutine IBZKPT returns following result:
 ===========================================
 
 Found      8 irreducible k-points:
 
 Following reciprocal coordinates:
            Coordinates               Weight
  0.000000  0.000000  0.000000      1.000000
  0.500000  0.000000  0.000000      1.000000
  0.000000  0.500000  0.000000      1.000000
  0.500000  0.500000  0.000000      1.000000
  0.000000  0.000000  0.500000      1.000000
  0.500000  0.000000  0.500000      1.000000
  0.000000  0.500000  0.500000      1.000000
  0.500000  0.500000  0.500000      1.000000
 
 Following cartesian coordinates:
            Coordinates               Weight
  0.000000  0.000000  0.000000      1.000000
  0.034355  0.000000  0.000000      1.000000
  0.000000  0.034355  0.000000      1.000000
  0.034355  0.034355  0.000000      1.000000
  0.000000  0.000000  0.020156      1.000000
  0.034355  0.000000  0.020156      1.000000
  0.000000  0.034355  0.020156      1.000000
  0.034355  0.034355  0.020156      1.000000
 


--------------------------------------------------------------------------------------------------------




 Dimension of arrays:
   k-points           NKPTS =      8   k-points in BZ     NKDIM =      8   number of bands    NBANDS=    144
   number of dos      NEDOS =   2000   number of ions     NIONS =     59
   non local maximal  LDIM  =      4   non local SUM 2l+1 LMDIM =      8
   total plane-waves  NPLWV = ******
   max r-space proj   IRMAX =      1   max aug-charges    IRDMAX= 402442
   dimension x,y,z NGX =   168 NGY =  168 NGZ =  280
   dimension x,y,z NGXF=   336 NGYF=  336 NGZF=  560
   support grid    NGXF=   672 NGYF=  672 NGZF= 1120
   ions per type =               7  52
   NGX,Y,Z   is equivalent  to a cutoff of  19.19, 19.19, 18.76 a.u.
   NGXF,Y,Z  is equivalent  to a cutoff of  38.38, 38.38, 37.53 a.u.

 SYSTEM =  a-Si SPC                                
 POSCAR =   H Si                                   

 Startparameter for this run:
   NWRITE =      2    write-flag & timer
   PREC   = accura    normal or accurate (medium, high low for compatibility)
   ISTART =      1    job   : 0-new  1-cont  2-samecut
   ICHARG =      1    charge: 1-file 2-atom 10-const
   ISPIN  =      1    spin polarized calculation?
   LNONCOLLINEAR =      F non collinear calculations
   LSORBIT =      F    spin-orbit coupling
   INIWAV =      1    electr: 0-lowe 1-rand  2-diag
   LASPH  =      T    aspherical Exc in radial PAW
 Electronic Relaxation 1
   ENCUT  = 1200.0 eV  88.20 Ry    9.39 a.u.  41.11 41.11 70.07*2*pi/ulx,y,z
   ENINI  = 1200.0     initial cutoff
   ENAUG  =  400.0 eV  augmentation charge cutoff
   NELM   =    150;   NELMIN=  2; NELMDL=  0     # of ELM steps 
   EDIFF  = 0.1E-05   stopping-criterion for ELM
   LREAL  =      F    real-space projection
   NLSPLINE    = F    spline interpolate recip. space projectors
   LCOMPAT=      F    compatible to vasp.4.4
   GGA_COMPAT  = T    GGA compatible to vasp.4.4-vasp.4.6
   LMAXPAW     = -100 max onsite density
   LMAXMIX     =    2 max onsite mixed and CHGCAR
   VOSKOWN=      0    Vosko Wilk Nusair interpolation
   ROPT   =    0.00000   0.00000
 Ionic relaxation
   EDIFFG = -.1E-01   stopping-criterion for IOM
   NSW    =      0    number of steps for IOM
   NBLOCK =      1;   KBLOCK =      1    inner block; outer block 
   IBRION =     -1    ionic relax: 0-MD 1-quasi-New 2-CG
   NFREE  =      0    steps in history (QN), initial steepest desc. (CG)
   ISIF   =      2    stress and relaxation
   IWAVPR =     10    prediction:  0-non 1-charg 2-wave 3-comb
   ISYM   =      1    0-nonsym 1-usesym 2-fastsym
   LCORR  =      T    Harris-Foulkes like correction to forces

   POTIM  = 0.5000    time-step for ionic-motion
   TEIN   =    0.0    initial temperature
   TEBEG  =    0.0;   TEEND  =   0.0 temperature during run
   SMASS  =  -3.00    Nose mass-parameter (am)
   estimated Nose-frequenzy (Omega)   =  0.10E-29 period in steps = 0.13E+47 mass=  -0.484E-26a.u.
   SCALEE = 1.0000    scale energy and forces
   NPACO  =    256;   APACO  = 10.0  distance and # of slots for P.C.
   PSTRESS=    0.0 pullay stress

  Mass of Ions in am
   POMASS =   1.00 28.09
  Ionic Valenz
   ZVAL   =   1.00  4.00
  Atomic Wigner-Seitz radii
   RWIGS  =  -1.00 -1.00
  virtual crystal weights 
   VCA    =   1.00  1.00
   NELECT =     215.0000    total number of electrons
   NUPDOWN=      -1.0000    fix difference up-down

 DOS related values:
   EMIN   =  10.00;   EMAX   =-10.00  energy-range for DOS
   EFERMI =   0.00;   METHOD = LEGACY      
   ISMEAR =     0;   SIGMA  =   0.10  broadening in eV -4-tet -1-fermi 0-gaus
   EFERMI_NEDOS =   21; number of points for ismear=-14 and -15

 Electronic relaxation 2 (details)
   IALGO  =     38    algorithm
   LDIAG  =      F    sub-space diagonalisation (order eigenvalues)
   LSUBROT=      F    optimize rotation matrix (better conditioning)
   TURBO    =      0    0=normal 1=particle mesh
   IRESTART =      0    0=no restart 2=restart with 2 vectors
   NREBOOT  =      0    no. of reboots
   NMIN     =      0    reboot dimension
   EREF     =   0.00    reference energy to select bands
   IMIX   =      4    mixing-type and parameters
     AMIX     =   0.40;   BMIX     =  1.00
     AMIX_MAG =   1.60;   BMIX_MAG =  1.00
     AMIN     =   0.10
     WC   =   100.;   INIMIX=   1;  MIXPRE=   1;  MAXMIX= -45

 Intra band minimization:
   WEIMIN = 0.0000     energy-eigenvalue tresh-hold
   EBREAK =  0.17E-08  absolut break condition
   DEPER  =   0.30     relativ break condition  

   TIME   =   0.40     timestep for ELM

  volume/ion in A,a.u.               =      89.06       601.00
  Fermi-wavevector in a.u.,A,eV,Ry     =   0.564129  1.066049  4.329936  0.318241
  Thomas-Fermi vector in A             =   1.601559

 Write flags
   LWAVE        =      F    write WAVECAR
   LDOWNSAMPLE  =      F    k-point downsampling of WAVECAR
   LCHARG       =      F    write CHGCAR
   LVTOT        =      F    write LOCPOT, total local potential
   LVHAR        =      F    write LOCPOT, Hartree potential only
   WRT_POTENTIAL= false  ! write potential to hdf5 file
   LELF         =      F    write electronic localiz. function (ELF)
   LORBIT       =     11    0 simple, 1 ext, 2 COOP (PROOUT), +10 PAW based schemes


 Python interface
   PLUGINS active      =      F    recompile with -DPLUGINS to activate

 Dipole corrections
   LMONO      =      F    monopole corrections only (constant potential shift)
   LDIPOL     =      F    correct potential (dipole corrections)
   IDIPOL     =      0    1-x, 2-y, 3-z, 4-all directions 
   EPSILON    =  1.0000000 bulk dielectric constant
   LVACPOTAV  =      F  vacuum potentials using an averaging scheme for the charge density
   VACPOTFLAT =  0.1000000 required flatness to determine vacuum potential

Coulomb truncation method
  LTRUNCATE          =      F  Coulomb kernel truncation to be used
  IDIMENSIONALITY    =      3  Dimensionality of cutoff (0 molecules / 2 surfaces)
  ISURFACE           =     -1  Direction of surface normal
  LCOARSEN           =      F  Coarsen the charge grid before padding, preferred


 Exchange correlation treatment:
   METAGGA = SCAN    functional components
   XC_C    = 1    coefficients multiplying the functional components
   LIBXC   =     F    Libxc                    
   VOSKOWN =     0    Vosko Wilk Nusair interpolation
   LHFCALC =     F    Hartree Fock is set to
   LHFONE  =     F    Hartree Fock one center treatment
   AEXX    =    0.0000 exact exchange contribution

 Parameters of functionals:
   SCAN:
     P1 =  0.000000E+00
     P2 =  0.000000E+00
     P3 =  0.000000E+00

 Accuracy and mixing parameters for tau-dependent meta-GGA functionals:
   LMAXTAU = 6
   LMIXTAU = T

 Van der Waals corrections
   IVDW    =     0    specifies the selected vdW correction

 Linear response parameters
   LEPSILON=     F    determine dielectric tensor
   LRPA    =     F    only Hartree local field effects (RPA)
   LNABLA  =     F    use nabla operator in PAW spheres
   LVEL    =     F    velocity operator in full k-point grid
   CSHIFT  =0.1000    complex shift for real part using Kramers Kronig
   OMEGAMAX=  -1.0    maximum frequency
   DEG_THRESHOLD= 0.2000000E-02 threshold for treating states as degnerate
   RTIME   =   -0.100 relaxation time in fs
  (WPLASMAI=    0.000 imaginary part of plasma frequency in eV, 0.658/RTIME)
   DFIELD  = 0.0000000 0.0000000 0.0000000 field for delta impulse in time

  Optional k-point grid parameters
   LKPOINTS_OPT  =     F    use optional k-point grid
   KPOINTS_OPT_MODE=     1    mode for optional k-point grid

 Orbital magnetization related:
   ORBITALMAG=     F  switch on orbital magnetization
   LCHIMAG   =     F  perturbation theory with respect to B field
   DQ        =  0.001000  dq finite difference perturbation B field
   LLRAUG    =     F  two centre corrections for induced B field
   LBONE     =     F  B-component reconstruction in AE one-centre
   LVGVCALC  =     T  calculate vGv susceptibility
   LVGVAPPL  =     F  apply vGv susceptibility instead of pGv for G=0

 Random number generation:
   RANDOM_GENERATOR = DEFAULT
   PCG_SEED         = not used


--------------------------------------------------------------------------------------------------------


 Static calculation
 charge density and potential will be updated during run
 non-spin polarized calculation
 Variant of blocked Davidson
 perform Loewdin sub-space diagonalisation
    ordering is kept fixed
    before iterative eigenvector-optimisation
 modified Broyden-mixing scheme, WC =      100.0
 initial mixing is a Kerker type mixing with AMIX =  0.4000 and BMIX =      1.0000
 Hartree-type preconditioning will be used
 using additional bands           36
 reciprocal scheme for non local part
 use partial core corrections
 calculate Harris-corrections to forces   (improved forces if not selfconsistent)
 use gradient corrections 
 use of overlap-Matrix (Vanderbilt PP)
 Gauss-broadening in eV      SIGMA  =   0.10


--------------------------------------------------------------------------------------------------------


  energy-cutoff  :     1200.00
  volume of cell :     5254.46
      direct lattice vectors                 reciprocal lattice vectors
    14.553828003  0.000000000  0.000000000     0.068710445  0.000000000  0.000000000
     0.000000000 14.553828003  0.000000000     0.000000000  0.068710445  0.000000000
     0.000000000  0.000000000 24.806962000     0.000000000  0.000000000  0.040311264

  length of vectors
    14.553828003 14.553828003 24.806962000     0.068710445  0.068710445  0.040311264



 old parameters found on file WAVECAR:
  energy-cutoff  :     1200.00
  volume of cell :     5254.46
      direct lattice vectors                 reciprocal lattice vectors
    14.553828003  0.000000000  0.000000000     0.068710445  0.000000000  0.000000000
     0.000000000 14.553828003  0.000000000     0.000000000  0.068710445  0.000000000
     0.000000000  0.000000000 24.806962000     0.000000000  0.000000000  0.040311264

  length of vectors


 k-points in units of 2pi/SCALE and weight: read from INCAR                         
   0.00000000  0.00000000  0.00000000       0.125
   0.03435522  0.00000000  0.00000000       0.125
   0.00000000  0.03435522  0.00000000       0.125
   0.03435522  0.03435522  0.00000000       0.125
   0.00000000  0.00000000  0.02015563       0.125
   0.03435522  0.00000000  0.02015563       0.125
   0.00000000  0.03435522  0.02015563       0.125
   0.03435522  0.03435522  0.02015563       0.125

 k-points in reciprocal lattice and weights: read from INCAR                         
   0.00000000  0.00000000  0.00000000       0.125
   0.50000000  0.00000000  0.00000000       0.125
   0.00000000  0.50000000  0.00000000       0.125
   0.50000000  0.50000000  0.00000000       0.125
   0.00000000  0.00000000  0.50000000       0.125
   0.50000000  0.00000000  0.50000000       0.125
   0.00000000  0.50000000  0.50000000       0.125
   0.50000000  0.50000000  0.50000000       0.125

 position of ions in fractional coordinates (direct lattice) 
   0.67166322  0.22916517  0.38367163
   0.72971384  0.03067135  0.57115837
   0.70643353  0.49983379  0.39323860
   0.77915302  0.89346564  0.49672057
   0.53919004  0.69478291  0.42441338
   0.37452782  0.44012898  0.37036203
   0.13817413  0.83784055  0.49164976
   0.05582311  0.21676827  0.42575775
   0.54665920  0.84943878  0.54949912
   0.75291938  0.52881327  0.53184086
   0.37525914  0.75909400  0.45101319
   0.23724329  0.68958531  0.42589815
   0.02884190  0.23396052  0.53355407
   0.25279164  0.14905723  0.48777959
   0.65516344  0.73898794  0.53529190
   0.81510865  0.33980284  0.45893144
   0.96537448  0.96533002  0.46958046
   0.12952274  0.84919732  0.55754519
   0.51417521  0.55971173  0.52943422
   0.28077764  0.91364571  0.55702310
   0.36159539  0.20586578  0.54968138
   0.79614072  0.80973680  0.52999925
   0.02383426  0.96780561  0.55855472
   0.02182299  0.44360612  0.50597553
   0.70592180  0.05429516  0.51426573
   0.58194278  0.95974398  0.48919143
   0.36645900  0.36497691  0.41030586
   0.51123442  0.39838027  0.53306485
   0.92154486  0.45935488  0.43310052
   0.19867944  0.96335767  0.41035651
   0.91052302  0.21003273  0.46645906
   0.35927977  0.36386172  0.56398919
   0.71630293  0.56669732  0.43746915
   0.84318061  0.06598464  0.46458796
   0.97542898  0.82497140  0.42324577
   0.94537450  0.35729859  0.57386625
   0.10139650  0.57663033  0.53036484
   0.24362523  0.56885154  0.49149390
   0.30706934  0.99608553  0.47541490
   0.92396673  0.73417778  0.49521701
   0.37556789  0.64402209  0.52399395
   0.45780828  0.03375915  0.45273837
   0.27243222  0.07609900  0.57955868
   0.50622504  0.32444773  0.44831906
   0.09277133  0.06201120  0.45116955
   0.39529774  0.80309546  0.54142895
   0.64049510  0.31980590  0.57377877
   0.04115564  0.71242089  0.55945862
   0.12957763  0.32877746  0.48132270
   0.11753669  0.09815858  0.54635386
   0.66569703  0.28442934  0.43364686
   0.64150436  0.60343412  0.58405453
   0.27580810  0.40465749  0.48478682
   0.63426987  0.19782708  0.51293116
   0.78606017  0.37719110  0.54908961
   0.86070974  0.59151696  0.47198287
   0.13687420  0.81639155  0.42642440
   0.59389791  0.64789110  0.46627223
   0.48017238  0.17818720  0.48899111

 position of ions in cartesian coordinates  (Angst):
   9.77527095  3.33523052  9.51772752
  10.62012974  0.44638554 14.16870388
  10.28131210  7.27449497  9.75505497
  11.33965899 13.00334527 12.32212831
   7.84727907 10.11175103 10.52840647
   5.45081352  6.40556143  9.18755677
   2.01096250 12.19378720 12.19633694
   0.81243994  3.15480814 10.56175622
   7.95598394 12.36258593 13.63140376
  10.95785915  7.69625743 13.19335600
   5.46145705 11.04772355 11.18826718
   3.45279801 10.03610595 10.56523917
   0.41976005  3.40502115 13.23585556
   3.67908601  2.16935324 12.10032987
   9.53513602 10.75510344 13.27896584
  11.86295116  4.94543203 11.38469472
  14.04989410 14.04924709 11.64886459
   1.88505162 12.35907167 13.83100224
   7.48321753  8.14594827 13.13365463
   4.08638951 13.29704257 13.81805090
   5.26259706  2.99613519 13.63592519
  11.58689514 11.78477010 13.14767125
   0.34687972 14.08527632 13.85604580
   0.31760810  6.45616711 12.55171565
  10.27386451  0.79020235 12.75737049
   8.46949507 13.96794874 12.13535327
   5.33338127  5.31181113 10.17844199
   7.44041776  5.79795795 13.22371946
  13.41200537  6.68537195 10.74390814
   2.89154640 14.02054179 10.17969844
  13.25159538  3.05678026 11.57143221
   5.22889591  5.29558096 13.99085845
  10.42494966  8.24761529 10.85228057
  12.27150562  0.96032916 11.52501593
  14.19622554 12.00649193 10.49944164
  13.75881782  5.20006224 14.23587815
   1.47570719  8.39217869 13.15674037
   3.54567973  8.27896754 12.19247046
   4.46903439 14.49685751 11.79359926
  13.44725285 10.68509719 12.28482946
   5.46595054  9.37298674 12.99869808
   6.66286294  0.49132489 11.23106345
   3.96493165  1.10753173 14.37709004
   7.36751214  4.72195649 11.12143387
   1.35017798  0.90250032 11.19214599
   5.75309529 11.68811322 13.43120748
   9.32165552  4.65440012 14.23370822
   0.59897205 10.36845105 13.87846877
   1.88585048  4.78497066 11.94015392
   1.71060884  1.42858312 13.55337943
   9.68844003  4.13953571 10.75746117
   9.33634407  8.78227637 14.48861849
   4.01406366  5.88931545 12.02608816
   9.23105466  2.87914136 12.72426372
  11.44018457  5.48957433 13.62124519
  12.52662155  8.60883605 11.70846106
   1.99204359 11.88162216 10.57829381
   8.64348805  9.42929560 11.56679745
   6.98834617  2.59330581 12.13038400



--------------------------------------------------------------------------------------------------------


 k-point     1 :   0.0000 0.0000 0.0000  plane waves:  495661
 k-point     2 :   0.5000 0.0000 0.0000  plane waves:  496066
 k-point     3 :   0.0000 0.5000 0.0000  plane waves:  496066
 k-point     4 :   0.5000 0.5000 0.0000  plane waves:  495932
 k-point     5 :   0.0000 0.0000 0.5000  plane waves:  495908
 k-point     6 :   0.5000 0.0000 0.5000  plane waves:  496048
 k-point     7 :   0.0000 0.5000 0.5000  plane waves:  496048
 k-point     8 :   0.5000 0.5000 0.5000  plane waves:  496104

 maximum and minimum number of plane-waves per node :     31092    30906

 maximum number of plane-waves:    496104
 maximum index in each direction: 
   IXMAX=   41   IYMAX=   41   IZMAX=   70
   IXMIN=  -41   IYMIN=  -41   IZMIN=  -70


 parallel 3D FFT for wavefunctions:
    minimum data exchange during FFTs selected (reduces bandwidth)
 parallel 3D FFT for charge:
    minimum data exchange during FFTs selected (reduces bandwidth)


 total amount of memory used by VASP MPI-rank0   331485. kBytes
=======================================================================

   base                                    :      30000. kBytes
   nonl-proj                               :      61086. kBytes
   fftplans                                :      95290. kBytes
   grid                                    :      73508. kBytes
   one-center                              :         12. kBytes
   wavefun                                 :      71589. kBytes

     INWAV:  cpu time     21.1621: real time     21.1743
 Broyden mixing: mesh for mixing (old mesh)
   NGX = 83   NGY = 83   NGZ =141
  (NGX  =336   NGY  =336   NGZ  =560)
  gives a total of 971349 points

 initial charge density was supplied:
 number of electron     214.9999999 magnetization 
 keeping initial charge density in first step


--------------------------------------------------------------------------------------------------------


 Maximum index for augmentation-charges        11235 (set IRDMAX)


--------------------------------------------------------------------------------------------------------


 First call to EWALD:  gamma=   0.102
 Maximum number of real-space cells   3x   3x   2
 Maximum number of reciprocal cells   2x   2x   4

    FEWALD:  cpu time      0.0097: real time      0.0098


--------------------------------------- Ionic step        1  -------------------------------------------




--------------------------------------- Iteration      1(   1)  ---------------------------------------


    POTLOK:  cpu time      1.8323: real time      1.8335
    SETDIJ:  cpu time      1.2025: real time      1.2037
    EDDIAG:  cpu time     39.7333: real time     39.7554
     EDDAV:  cpu time    173.4764: real time    173.5778
       DOS:  cpu time      0.0083: real time      0.0084
    CHARGE:  cpu time     22.5885: real time     22.6106
    MIXING:  cpu time      0.0446: real time      0.0451
    --------------------------------------------
      LOOP:  cpu time    238.8861: real time    239.0347

 eigenvalue-minimisations  :  2304
 total energy-change (2. order) :-0.5418350E+03  (-0.6227192E+00)
 number of electron     214.9999999 magnetization 
 augmentation part      -11.7232317 magnetization 

 Broyden mixing:
  rms(total) = 0.87082E+00    rms(broyden)= 0.24879E+02
  rms(prec ) = 0.90743E+00
  weight for this iteration     100.00
  WARNING: grid for Broyden might be to small

 Free energy of the ion-electron system (eV)
  ---------------------------------------------------
  alpha Z        PSCENC =        18.60417436
  Ewald energy   TEWEN  =     21922.37471145
  -Hartree energ DENC   =    -26521.20601482
  -exchange      EXHF   =         0.00000000
  -V(xc)+E(xc)   XCENC  =      -238.18995108
  PAW double counting   =     19102.10442271   -18583.62790790
  entropy T*S    EENTRO =        -0.18506079
  eigenvalues    EBANDS =     -1688.60334256
  atomic energy  EATOM  =      5446.89399499
  Solvation  Ediel_sol  =         0.00000000
  ---------------------------------------------------
  free energy    TOTEN  =      -541.83497365 eV

  energy without entropy =     -541.64991286  energy(sigma->0) =     -541.74244325


--------------------------------------------------------------------------------------------------------




--------------------------------------- Iteration      1(   2)  ---------------------------------------


    POTLOK:  cpu time      1.7986: real time      1.8240
    SETDIJ:  cpu time      1.1930: real time      1.1937
    EDDIAG:  cpu time     39.8451: real time     39.8661
     EDDAV:  cpu time    173.9940: real time    174.0951
       DOS:  cpu time      0.0033: real time      0.0033
    CHARGE:  cpu time     22.4948: real time     22.5146
    MIXING:  cpu time      0.0369: real time      0.0371
    --------------------------------------------
      LOOP:  cpu time    239.3657: real time    239.5339

 eigenvalue-minimisations  :  2320
 total energy-change (2. order) : 0.3780172E+02  (-0.5832911E+00)
 number of electron     214.9999999 magnetization 
 augmentation part      -11.6865176 magnetization 

 Broyden mixing:
  rms(total) = 0.59640E+00    rms(broyden)= 0.14330E+02
  rms(prec ) = 0.61550E+00
  weight for this iteration     100.00
  WARNING: grid for Broyden might be to small

 eigenvalues of (default mixing * dielectric matrix)
  average eigenvalue GAMMA=   0.6346
  0.6346

 Free energy of the ion-electron system (eV)
  ---------------------------------------------------
  alpha Z        PSCENC =        18.60417436
  Ewald energy   TEWEN  =     21922.37471145
  -Hartree energ DENC   =    -26512.52013290
  -exchange      EXHF   =         0.00000000
  -V(xc)+E(xc)   XCENC  =      -233.17781157
  PAW double counting   =     22758.68475752   -22240.07545780
  entropy T*S    EENTRO =        -0.17575573
  eigenvalues    EBANDS =     -1664.64173357
  atomic energy  EATOM  =      5446.89399499
  Solvation  Ediel_sol  =         0.00000000
  ---------------------------------------------------
  free energy    TOTEN  =      -504.03325325 eV

  energy without entropy =     -503.85749752  energy(sigma->0) =     -503.94537538


--------------------------------------------------------------------------------------------------------




--------------------------------------- Iteration      1(   3)  ---------------------------------------


    POTLOK:  cpu time      1.8025: real time      1.8266
    SETDIJ:  cpu time      1.2072: real time      1.2078
    EDDIAG:  cpu time     39.6945: real time     39.7150
     EDDAV:  cpu time    172.5577: real time    172.6562
       DOS:  cpu time      0.0038: real time      0.0038
    CHARGE:  cpu time     22.4587: real time     22.4801
    MIXING:  cpu time      0.0346: real time      0.0346
    --------------------------------------------
      LOOP:  cpu time    237.7589: real time    237.9241

 eigenvalue-minimisations  :  2304
 total energy-change (2. order) :-0.1648851E+01  (-0.4838633E+00)
 number of electron     214.9999999 magnetization 
 augmentation part      -11.6464500 magnetization 

 Broyden mixing:
  rms(total) = 0.30352E+00    rms(broyden)= 0.16724E+02
  rms(prec ) = 0.35727E+00
  weight for this iteration     100.00
  WARNING: grid for Broyden might be to small

 eigenvalues of (default mixing * dielectric matrix)
  average eigenvalue GAMMA=   0.7249
  0.8249  0.6248

 Free energy of the ion-electron system (eV)
  ---------------------------------------------------
  alpha Z        PSCENC =        18.60417436
  Ewald energy   TEWEN  =     21922.37471145
  -Hartree energ DENC   =    -26513.86685720
  -exchange      EXHF   =         0.00000000
  -V(xc)+E(xc)   XCENC  =      -234.75728609
  PAW double counting   =     26561.31353727   -26042.78529636
  entropy T*S    EENTRO =        -0.18394934
  eigenvalues    EBANDS =     -1663.27513309
  atomic energy  EATOM  =      5446.89399499
  Solvation  Ediel_sol  =         0.00000000
  ---------------------------------------------------
  free energy    TOTEN  =      -505.68210400 eV

  energy without entropy =     -505.49815466  energy(sigma->0) =     -505.59012933


--------------------------------------------------------------------------------------------------------




--------------------------------------- Iteration      1(   4)  ---------------------------------------


    POTLOK:  cpu time      1.7990: real time      1.8261
    SETDIJ:  cpu time      1.1954: real time      1.1962
    EDDIAG:  cpu time     39.8686: real time     39.8916
     EDDAV:  cpu time    179.8733: real time    179.9807
       DOS:  cpu time      0.0031: real time      0.0031
    CHARGE:  cpu time     22.4879: real time     22.5093
    MIXING:  cpu time      0.0350: real time      0.0350
    --------------------------------------------
      LOOP:  cpu time    245.2623: real time    245.4421

 eigenvalue-minimisations  :  2464
 total energy-change (2. order) : 0.9508640E-01  (-0.8622739E-01)
 number of electron     214.9999999 magnetization 
 augmentation part      -11.6427394 magnetization 

 Broyden mixing:
  rms(total) = 0.13236E+00    rms(broyden)= 0.85492E+00
  rms(prec ) = 0.18055E+00
  weight for this iteration     100.00
  WARNING: grid for Broyden might be to small

 eigenvalues of (default mixing * dielectric matrix)
  average eigenvalue GAMMA=   1.0429
  1.8970  0.6431  0.5886

 Free energy of the ion-electron system (eV)
  ---------------------------------------------------
  alpha Z        PSCENC =        18.60417436
  Ewald energy   TEWEN  =     21922.37471145
  -Hartree energ DENC   =    -26515.33351454
  -exchange      EXHF   =         0.00000000
  -V(xc)+E(xc)   XCENC  =      -235.05664871
  PAW double counting   =     30342.68857502   -29824.20147706
  entropy T*S    EENTRO =        -0.15993839
  eigenvalues    EBANDS =     -1661.39689472
  atomic energy  EATOM  =      5446.89399499
  Solvation  Ediel_sol  =         0.00000000
  ---------------------------------------------------
  free energy    TOTEN  =      -505.58701761 eV

  energy without entropy =     -505.42707922  energy(sigma->0) =     -505.50704841


--------------------------------------------------------------------------------------------------------




--------------------------------------- Iteration      1(   5)  ---------------------------------------


    POTLOK:  cpu time      1.7927: real time      1.8203
    SETDIJ:  cpu time      1.1995: real time      1.2003
    EDDIAG:  cpu time     39.7219: real time     39.7469
     EDDAV:  cpu time    182.1407: real time    182.2523
       DOS:  cpu time      0.0028: real time      0.0220
    CHARGE:  cpu time     22.4540: real time     22.4756
    MIXING:  cpu time      0.0357: real time      0.0357
    --------------------------------------------
      LOOP:  cpu time    247.3472: real time    247.5531

 eigenvalue-minimisations  :  2520
 total energy-change (2. order) :-0.1650353E-02  (-0.3357711E-01)
 number of electron     214.9999999 magnetization 
 augmentation part      -11.6427053 magnetization 

 Broyden mixing:
  rms(total) = 0.58216E-01    rms(broyden)= 0.12234E+01
  rms(prec ) = 0.76250E-01
  weight for this iteration     100.00
  WARNING: grid for Broyden might be to small

 eigenvalues of (default mixing * dielectric matrix)
  average eigenvalue GAMMA=   1.0196
  2.2428  0.7477  0.6119  0.4759

 Free energy of the ion-electron system (eV)
  ---------------------------------------------------
  alpha Z        PSCENC =        18.60417436
  Ewald energy   TEWEN  =     21922.37471145
  -Hartree energ DENC   =    -26515.40857673
  -exchange      EXHF   =         0.00000000
  -V(xc)+E(xc)   XCENC  =      -235.57721795
  PAW double counting   =     30398.44962661   -29879.95690522
  entropy T*S    EENTRO =        -0.18156457
  eigenvalues    EBANDS =     -1660.78691089
  atomic energy  EATOM  =      5446.89399499
  Solvation  Ediel_sol  =         0.00000000
  ---------------------------------------------------
  free energy    TOTEN  =      -505.58866796 eV

  energy without entropy =     -505.40710339  energy(sigma->0) =     -505.49788567


--------------------------------------------------------------------------------------------------------




--------------------------------------- Iteration      1(   6)  ---------------------------------------


    POTLOK:  cpu time      1.7930: real time      1.8211
    SETDIJ:  cpu time      1.1994: real time      1.2002
    EDDIAG:  cpu time     39.8783: real time     39.8996
     EDDAV:  cpu time    178.2613: real time    178.3602
       DOS:  cpu time      0.0026: real time      0.0026
    CHARGE:  cpu time     22.4955: real time     22.5156
    MIXING:  cpu time      0.0357: real time      0.0357
    --------------------------------------------
      LOOP:  cpu time    243.6657: real time    243.8349

 eigenvalue-minimisations  :  2424
 total energy-change (2. order) : 0.4395179E-02  (-0.7663701E-02)
 number of electron     214.9999999 magnetization 
 augmentation part      -11.6433095 magnetization 

 Broyden mixing:
  rms(total) = 0.33168E-01    rms(broyden)= 0.22680E+00
  rms(prec ) = 0.41098E-01
  weight for this iteration     100.00
  WARNING: grid for Broyden might be to small

 eigenvalues of (default mixing * dielectric matrix)
  average eigenvalue GAMMA=   0.9851
  2.5522  0.8642  0.6263  0.5161  0.3667

 Free energy of the ion-electron system (eV)
  ---------------------------------------------------
  alpha Z        PSCENC =        18.60417436
  Ewald energy   TEWEN  =     21922.37471145
  -Hartree energ DENC   =    -26515.45633252
  -exchange      EXHF   =         0.00000000
  -V(xc)+E(xc)   XCENC  =      -235.78560239
  PAW double counting   =     30170.84474716   -29652.33926787
  entropy T*S    EENTRO =        -0.18126934
  eigenvalues    EBANDS =     -1660.53942861
  atomic energy  EATOM  =      5446.89399499
  Solvation  Ediel_sol  =         0.00000000
  ---------------------------------------------------
  free energy    TOTEN  =      -505.58427278 eV

  energy without entropy =     -505.40300344  energy(sigma->0) =     -505.49363811


--------------------------------------------------------------------------------------------------------




--------------------------------------- Iteration      1(   7)  ---------------------------------------


    POTLOK:  cpu time      1.7875: real time      1.8209
    SETDIJ:  cpu time      1.2040: real time      1.2047
    EDDIAG:  cpu time     39.7218: real time     39.7427
     EDDAV:  cpu time    180.4501: real time    180.5561
       DOS:  cpu time      0.0025: real time      0.0025
    CHARGE:  cpu time     22.4880: real time     22.5093
    MIXING:  cpu time      0.0363: real time      0.0363
    --------------------------------------------
      LOOP:  cpu time    245.6901: real time    245.8725

 eigenvalue-minimisations  :  2496
 total energy-change (2. order) : 0.1923372E-02  (-0.1352288E-02)
 number of electron     214.9999999 magnetization 
 augmentation part      -11.6427195 magnetization 

 Broyden mixing:
  rms(total) = 0.16913E-01    rms(broyden)= 0.20051E+00
  rms(prec ) = 0.18168E-01
  weight for this iteration     100.00
  WARNING: grid for Broyden might be to small

 eigenvalues of (default mixing * dielectric matrix)
  average eigenvalue GAMMA=   0.9606
  2.5817  0.9731  0.6947  0.6195  0.5329  0.3614

 Free energy of the ion-electron system (eV)
  ---------------------------------------------------
  alpha Z        PSCENC =        18.60417436
  Ewald energy   TEWEN  =     21922.37471145
  -Hartree energ DENC   =    -26515.46864681
  -exchange      EXHF   =         0.00000000
  -V(xc)+E(xc)   XCENC  =      -235.78217824
  PAW double counting   =     30107.22847797   -29588.71601745
  entropy T*S    EENTRO =        -0.18066710
  eigenvalues    EBANDS =     -1660.53619857
  atomic energy  EATOM  =      5446.89399499
  Solvation  Ediel_sol  =         0.00000000
  ---------------------------------------------------
  free energy    TOTEN  =      -505.58234941 eV

  energy without entropy =     -505.40168231  energy(sigma->0) =     -505.49201586


--------------------------------------------------------------------------------------------------------




--------------------------------------- Iteration      1(   8)  ---------------------------------------


    POTLOK:  cpu time      1.7925: real time      1.8232
    SETDIJ:  cpu time      1.2054: real time      1.2063
    EDDIAG:  cpu time     39.6886: real time     39.7122
     EDDAV:  cpu time    179.9505: real time    180.0530
       DOS:  cpu time      0.0034: real time      0.0034
    CHARGE:  cpu time     22.4669: real time     22.4879
    MIXING:  cpu time      0.0369: real time      0.0369
    --------------------------------------------
      LOOP:  cpu time    245.1442: real time    245.3230

 eigenvalue-minimisations  :  2488
 total energy-change (2. order) :-0.7755006E-03  (-0.6467164E-03)
 number of electron     214.9999999 magnetization 
 augmentation part      -11.6418002 magnetization 

 Broyden mixing:
  rms(total) = 0.91489E-02    rms(broyden)= 0.81518E-01
  rms(prec ) = 0.10826E-01
  weight for this iteration     100.00
  WARNING: grid for Broyden might be to small

 eigenvalues of (default mixing * dielectric matrix)
  average eigenvalue GAMMA=   0.9231
  2.5668  1.2111  0.7018  0.6257  0.4968  0.4968  0.3623

 Free energy of the ion-electron system (eV)
  ---------------------------------------------------
  alpha Z        PSCENC =        18.60417436
  Ewald energy   TEWEN  =     21922.37471145
  -Hartree energ DENC   =    -26515.52628972
  -exchange      EXHF   =         0.00000000
  -V(xc)+E(xc)   XCENC  =      -235.67101731
  PAW double counting   =     30115.86393694   -29597.34280949
  entropy T*S    EENTRO =        -0.17916355
  eigenvalues    EBANDS =     -1660.60066258
  atomic energy  EATOM  =      5446.89399499
  Solvation  Ediel_sol  =         0.00000000
  ---------------------------------------------------
  free energy    TOTEN  =      -505.58312491 eV

  energy without entropy =     -505.40396136  energy(sigma->0) =     -505.49354313


--------------------------------------------------------------------------------------------------------




--------------------------------------- Iteration      1(   9)  ---------------------------------------


    POTLOK:  cpu time      1.7898: real time      1.8207
    SETDIJ:  cpu time      1.2117: real time      1.2123
    EDDIAG:  cpu time     39.7024: real time     39.7245
     EDDAV:  cpu time    186.1126: real time    186.2176
       DOS:  cpu time      0.0042: real time      0.0042
    CHARGE:  cpu time     22.4956: real time     22.5169
    MIXING:  cpu time      0.0374: real time      0.0375
    --------------------------------------------
      LOOP:  cpu time    251.3540: real time    251.5337

 eigenvalue-minimisations  :  2632
 total energy-change (2. order) :-0.4397356E-03  (-0.1611643E-03)
 number of electron     214.9999999 magnetization 
 augmentation part      -11.6414017 magnetization 

 Broyden mixing:
  rms(total) = 0.63498E-02    rms(broyden)= 0.65164E-01
  rms(prec ) = 0.82634E-02
  weight for this iteration     100.00
  WARNING: grid for Broyden might be to small

 eigenvalues of (default mixing * dielectric matrix)
  average eigenvalue GAMMA=   0.9343
  2.5503  1.5186  0.9067  0.6347  0.6347  0.4347  0.4347  0.3601

 Free energy of the ion-electron system (eV)
  ---------------------------------------------------
  alpha Z        PSCENC =        18.60417436
  Ewald energy   TEWEN  =     21922.37471145
  -Hartree energ DENC   =    -26515.44171913
  -exchange      EXHF   =         0.00000000
  -V(xc)+E(xc)   XCENC  =      -235.64035981
  PAW double counting   =     30130.50945912   -29611.98376744
  entropy T*S    EENTRO =        -0.18020672
  eigenvalues    EBANDS =     -1660.71985146
  atomic energy  EATOM  =      5446.89399499
  Solvation  Ediel_sol  =         0.00000000
  ---------------------------------------------------
  free energy    TOTEN  =      -505.58356464 eV

  energy without entropy =     -505.40335792  energy(sigma->0) =     -505.49346128


--------------------------------------------------------------------------------------------------------




--------------------------------------- Iteration      1(  10)  ---------------------------------------


    POTLOK:  cpu time      1.7960: real time      1.8264
    SETDIJ:  cpu time      1.2114: real time      1.2120
    EDDIAG:  cpu time     39.7376: real time     39.7608
     EDDAV:  cpu time    178.4970: real time    178.5999
       DOS:  cpu time      0.0031: real time      0.0031
    CHARGE:  cpu time     22.4957: real time     22.5165
    MIXING:  cpu time      0.0397: real time      0.0398
    --------------------------------------------
      LOOP:  cpu time    243.7805: real time    243.9584

 eigenvalue-minimisations  :  2448
 total energy-change (2. order) :-0.4005793E-05  (-0.7647487E-04)
 number of electron     214.9999999 magnetization 
 augmentation part      -11.6415766 magnetization 

 Broyden mixing:
  rms(total) = 0.20308E-02    rms(broyden)= 0.21769E-01
  rms(prec ) = 0.24922E-02
  weight for this iteration     100.00
  WARNING: grid for Broyden might be to small

 eigenvalues of (default mixing * dielectric matrix)
  average eigenvalue GAMMA=   1.0535
  2.5700  2.5700  1.0290  0.8302  0.6272  0.6272  0.4512  0.3882  0.3882

 Free energy of the ion-electron system (eV)
  ---------------------------------------------------
  alpha Z        PSCENC =        18.60417436
  Ewald energy   TEWEN  =     21922.37471145
  -Hartree energ DENC   =    -26515.34251561
  -exchange      EXHF   =         0.00000000
  -V(xc)+E(xc)   XCENC  =      -235.64726411
  PAW double counting   =     30133.95551731   -29615.42801886
  entropy T*S    EENTRO =        -0.18000042
  eigenvalues    EBANDS =     -1660.81416777
  atomic energy  EATOM  =      5446.89399499
  Solvation  Ediel_sol  =         0.00000000
  ---------------------------------------------------
  free energy    TOTEN  =      -505.58356865 eV

  energy without entropy =     -505.40356823  energy(sigma->0) =     -505.49356844


--------------------------------------------------------------------------------------------------------




--------------------------------------- Iteration      1(  11)  ---------------------------------------


    POTLOK:  cpu time      1.8032: real time      1.8283
    SETDIJ:  cpu time      1.1957: real time      1.1965
    EDDIAG:  cpu time     39.9191: real time     39.9383
     EDDAV:  cpu time    178.4613: real time    178.5629
       DOS:  cpu time      0.0023: real time      0.0023
    CHARGE:  cpu time     22.4530: real time     22.4759
    MIXING:  cpu time      0.0410: real time      0.0410
    --------------------------------------------
      LOOP:  cpu time    243.8755: real time    244.0453

 eigenvalue-minimisations  :  2432
 total energy-change (2. order) : 0.3747746E-04  (-0.4592611E-04)
 number of electron     214.9999999 magnetization 
 augmentation part      -11.6415989 magnetization 

 Broyden mixing:
  rms(total) = 0.14234E-02    rms(broyden)= 0.10474E-01
  rms(prec ) = 0.17954E-02
  weight for this iteration     100.00
  WARNING: grid for Broyden might be to small

 eigenvalues of (default mixing * dielectric matrix)
  average eigenvalue GAMMA=   1.0492
  2.7171  2.7171  1.0160  0.7816  0.7816  0.6238  0.6087  0.4723  0.3871  0.3871

 Free energy of the ion-electron system (eV)
  ---------------------------------------------------
  alpha Z        PSCENC =        18.60417436
  Ewald energy   TEWEN  =     21922.37471145
  -Hartree energ DENC   =    -26515.24281671
  -exchange      EXHF   =         0.00000000
  -V(xc)+E(xc)   XCENC  =      -235.64799404
  PAW double counting   =     30131.86294784   -29613.33454011
  entropy T*S    EENTRO =        -0.17997504
  eigenvalues    EBANDS =     -1660.91403390
  atomic energy  EATOM  =      5446.89399499
  Solvation  Ediel_sol  =         0.00000000
  ---------------------------------------------------
  free energy    TOTEN  =      -505.58353117 eV

  energy without entropy =     -505.40355613  energy(sigma->0) =     -505.49354365


--------------------------------------------------------------------------------------------------------




--------------------------------------- Iteration      1(  12)  ---------------------------------------


    POTLOK:  cpu time      1.7980: real time      1.8269
    SETDIJ:  cpu time      1.1980: real time      1.1987
    EDDIAG:  cpu time     39.7280: real time     39.7498
     EDDAV:  cpu time    182.0607: real time    182.1683
       DOS:  cpu time      0.0027: real time      0.0027
    CHARGE:  cpu time     22.4637: real time     22.4840
    MIXING:  cpu time      0.0398: real time      0.0398
    --------------------------------------------
      LOOP:  cpu time    247.2907: real time    247.4702

 eigenvalue-minimisations  :  2536
 total energy-change (2. order) :-0.4424377E-04  (-0.1571483E-04)
 number of electron     214.9999999 magnetization 
 augmentation part      -11.6416510 magnetization 

 Broyden mixing:
  rms(total) = 0.64622E-03    rms(broyden)= 0.87607E-02
  rms(prec ) = 0.86679E-03
  weight for this iteration     100.00
  WARNING: grid for Broyden might be to small

 eigenvalues of (default mixing * dielectric matrix)
  average eigenvalue GAMMA=   1.1310
  3.2663  2.6352  1.6814  1.0583  0.7593  0.6621  0.6252  0.5134  0.4013  0.4013
  0.4367

 Free energy of the ion-electron system (eV)
  ---------------------------------------------------
  alpha Z        PSCENC =        18.60417436
  Ewald energy   TEWEN  =     21922.37471145
  -Hartree energ DENC   =    -26515.12118199
  -exchange      EXHF   =         0.00000000
  -V(xc)+E(xc)   XCENC  =      -235.65242597
  PAW double counting   =     30130.54177386   -29612.01275819
  entropy T*S    EENTRO =        -0.17997041
  eigenvalues    EBANDS =     -1661.03189350
  atomic energy  EATOM  =      5446.89399499
  Solvation  Ediel_sol  =         0.00000000
  ---------------------------------------------------
  free energy    TOTEN  =      -505.58357541 eV

  energy without entropy =     -505.40360500  energy(sigma->0) =     -505.49359021


--------------------------------------------------------------------------------------------------------




--------------------------------------- Iteration      1(  13)  ---------------------------------------


    POTLOK:  cpu time      1.7936: real time      1.8239
    SETDIJ:  cpu time      1.2068: real time      1.2074
    EDDIAG:  cpu time     39.9107: real time     39.9329
     EDDAV:  cpu time    180.3396: real time    180.4427
       DOS:  cpu time      0.0024: real time      0.0024
    CHARGE:  cpu time     22.4761: real time     22.4970
    MIXING:  cpu time      0.0420: real time      0.0421
    --------------------------------------------
      LOOP:  cpu time    245.7712: real time    245.9483

 eigenvalue-minimisations  :  2472
 total energy-change (2. order) :-0.6321101E-04  (-0.1500614E-04)
 number of electron     214.9999999 magnetization 
 augmentation part      -11.6416962 magnetization 

 Broyden mixing:
  rms(total) = 0.41541E-03    rms(broyden)= 0.69974E-02
  rms(prec ) = 0.60662E-03
  weight for this iteration     100.00
  WARNING: grid for Broyden might be to small

 eigenvalues of (default mixing * dielectric matrix)
  average eigenvalue GAMMA=   1.2164
  4.2156  2.5872  2.1027  1.0229  0.8733  0.7856  0.4004  0.4104  0.4104  0.6395
  0.6126  0.5366

 Free energy of the ion-electron system (eV)
  ---------------------------------------------------
  alpha Z        PSCENC =        18.60417436
  Ewald energy   TEWEN  =     21922.37471145
  -Hartree energ DENC   =    -26514.99985333
  -exchange      EXHF   =         0.00000000
  -V(xc)+E(xc)   XCENC  =      -235.65669111
  PAW double counting   =     30130.08331814   -29611.55404908
  entropy T*S    EENTRO =        -0.17998166
  eigenvalues    EBANDS =     -1661.14926238
  atomic energy  EATOM  =      5446.89399499
  Solvation  Ediel_sol  =         0.00000000
  ---------------------------------------------------
  free energy    TOTEN  =      -505.58363863 eV

  energy without entropy =     -505.40365697  energy(sigma->0) =     -505.49364780


--------------------------------------------------------------------------------------------------------




--------------------------------------- Iteration      1(  14)  ---------------------------------------


    POTLOK:  cpu time      1.8263: real time      1.8279
    SETDIJ:  cpu time      1.2028: real time      1.2037
    EDDIAG:  cpu time     39.9435: real time     39.9662
     EDDAV:  cpu time    178.6228: real time    178.7185
       DOS:  cpu time      0.0039: real time      0.0039
    CHARGE:  cpu time     22.4615: real time     22.4816
    MIXING:  cpu time      0.0413: real time      0.0413
    --------------------------------------------
      LOOP:  cpu time    244.1021: real time    244.2432

 eigenvalue-minimisations  :  2432
 total energy-change (2. order) :-0.8154860E-04  (-0.1112145E-04)
 number of electron     214.9999999 magnetization 
 augmentation part      -11.6417375 magnetization 

 Broyden mixing:
  rms(total) = 0.22337E-03    rms(broyden)= 0.56214E-02
  rms(prec ) = 0.38558E-03
  weight for this iteration     100.00
  WARNING: grid for Broyden might be to small

 eigenvalues of (default mixing * dielectric matrix)
  average eigenvalue GAMMA=   1.4360
  6.6016  2.6034  2.6034  1.1458  1.1458  0.8507  0.4049  0.4097  0.4097  0.6940
  0.6197  0.5898  0.5898

 Free energy of the ion-electron system (eV)
  ---------------------------------------------------
  alpha Z        PSCENC =        18.60417436
  Ewald energy   TEWEN  =     21922.37471145
  -Hartree energ DENC   =    -26514.90844078
  -exchange      EXHF   =         0.00000000
  -V(xc)+E(xc)   XCENC  =      -235.66042706
  PAW double counting   =     30129.81991590   -29611.29078033
  entropy T*S    EENTRO =        -0.17996614
  eigenvalues    EBANDS =     -1661.23690257
  atomic energy  EATOM  =      5446.89399499
  Solvation  Ediel_sol  =         0.00000000
  ---------------------------------------------------
  free energy    TOTEN  =      -505.58372017 eV

  energy without entropy =     -505.40375403  energy(sigma->0) =     -505.49373710


--------------------------------------------------------------------------------------------------------




--------------------------------------- Iteration      1(  15)  ---------------------------------------


    POTLOK:  cpu time      1.7928: real time      1.8188
    SETDIJ:  cpu time      1.2107: real time      1.2116
    EDDIAG:  cpu time     39.9335: real time     39.9547
     EDDAV:  cpu time    178.6836: real time    178.7900
       DOS:  cpu time      0.0041: real time      0.0041
    CHARGE:  cpu time     22.4980: real time     22.5183
    MIXING:  cpu time      0.0418: real time      0.0418
    --------------------------------------------
      LOOP:  cpu time    244.1646: real time    244.3394

 eigenvalue-minimisations  :  2432
 total energy-change (2. order) :-0.9118538E-04  (-0.1396248E-04)
 number of electron     214.9999999 magnetization 
 augmentation part      -11.6417616 magnetization 

 Broyden mixing:
  rms(total) = 0.17967E-03    rms(broyden)= 0.43307E-02
  rms(prec ) = 0.30112E-03
  weight for this iteration     100.00
  WARNING: grid for Broyden might be to small

 eigenvalues of (default mixing * dielectric matrix)
  average eigenvalue GAMMA=   1.5418
  8.3394  2.7042  2.7042  1.3021  1.2339  0.8342  0.8342  0.4096  0.4096  0.4062
  0.6595  0.6221  0.5628  0.5628

 Free energy of the ion-electron system (eV)
  ---------------------------------------------------
  alpha Z        PSCENC =        18.60417436
  Ewald energy   TEWEN  =     21922.37471145
  -Hartree energ DENC   =    -26514.81601099
  -exchange      EXHF   =         0.00000000
  -V(xc)+E(xc)   XCENC  =      -235.66314970
  PAW double counting   =     30129.71080480   -29611.18183515
  entropy T*S    EENTRO =        -0.17997669
  eigenvalues    EBANDS =     -1661.32652443
  atomic energy  EATOM  =      5446.89399499
  Solvation  Ediel_sol  =         0.00000000
  ---------------------------------------------------
  free energy    TOTEN  =      -505.58381136 eV

  energy without entropy =     -505.40383467  energy(sigma->0) =     -505.49382301


--------------------------------------------------------------------------------------------------------




--------------------------------------- Iteration      1(  16)  ---------------------------------------


    POTLOK:  cpu time      1.8232: real time      1.8245
    SETDIJ:  cpu time      1.2063: real time      1.2071
    EDDIAG:  cpu time     39.9256: real time     39.9466
     EDDAV:  cpu time    178.5978: real time    178.7026
       DOS:  cpu time      0.0138: real time      0.0140
    CHARGE:  cpu time     22.4831: real time     22.5061
    MIXING:  cpu time      0.0563: real time      0.0568
    --------------------------------------------
      LOOP:  cpu time    244.1068: real time    244.2585

 eigenvalue-minimisations  :  2432
 total energy-change (2. order) :-0.7674155E-04  (-0.1136229E-04)
 number of electron     214.9999999 magnetization 
 augmentation part      -11.6417812 magnetization 

 Broyden mixing:
  rms(total) = 0.11565E-03    rms(broyden)= 0.29645E-02
  rms(prec ) = 0.19856E-03
  weight for this iteration     100.00
  WARNING: grid for Broyden might be to small

 eigenvalues of (default mixing * dielectric matrix)
  average eigenvalue GAMMA=   1.5802
  9.2416  2.7708  2.7708  1.6179  1.0455  0.9446  0.9446  0.7731  0.4066  0.4095
  0.4095  0.6467  0.6351  0.5432  0.5432

 Free energy of the ion-electron system (eV)
  ---------------------------------------------------
  alpha Z        PSCENC =        18.60417436
  Ewald energy   TEWEN  =     21922.37471145
  -Hartree energ DENC   =    -26514.73638459
  -exchange      EXHF   =         0.00000000
  -V(xc)+E(xc)   XCENC  =      -235.66487055
  PAW double counting   =     30129.67282068   -29611.14401717
  entropy T*S    EENTRO =        -0.17997912
  eigenvalues    EBANDS =     -1661.40433815
  atomic energy  EATOM  =      5446.89399499
  Solvation  Ediel_sol  =         0.00000000
  ---------------------------------------------------
  free energy    TOTEN  =      -505.58388810 eV

  energy without entropy =     -505.40390898  energy(sigma->0) =     -505.49389854


--------------------------------------------------------------------------------------------------------




--------------------------------------- Iteration      1(  17)  ---------------------------------------


    POTLOK:  cpu time      1.8087: real time      1.8298
    SETDIJ:  cpu time      1.2127: real time      1.2141
    EDDIAG:  cpu time     39.9083: real time     39.9308
     EDDAV:  cpu time    178.8799: real time    178.9785
       DOS:  cpu time      0.0029: real time      0.0030
    CHARGE:  cpu time     22.4768: real time     22.4975
    MIXING:  cpu time      0.0435: real time      0.0435
    --------------------------------------------
      LOOP:  cpu time    244.3322: real time    244.4964

 eigenvalue-minimisations  :  2432
 total energy-change (2. order) :-0.6584779E-04  (-0.1070978E-04)
 number of electron     214.9999999 magnetization 
 augmentation part      -11.6417963 magnetization 

 Broyden mixing:
  rms(total) = 0.87803E-04    rms(broyden)= 0.21200E-02
  rms(prec ) = 0.13762E-03
  weight for this iteration     100.00
  WARNING: grid for Broyden might be to small

 eigenvalues of (default mixing * dielectric matrix)
  average eigenvalue GAMMA=   1.6100
  9.7170  2.8686  2.7959  1.9844  1.1754  1.1754  0.8591  0.8591  0.7409  0.4094
  0.4094  0.4069  0.6344  0.6122  0.5562  0.5562

 Free energy of the ion-electron system (eV)
  ---------------------------------------------------
  alpha Z        PSCENC =        18.60417436
  Ewald energy   TEWEN  =     21922.37471145
  -Hartree energ DENC   =    -26514.65813954
  -exchange      EXHF   =         0.00000000
  -V(xc)+E(xc)   XCENC  =      -235.66597157
  PAW double counting   =     30129.94986371   -29611.42119581
  entropy T*S    EENTRO =        -0.17997970
  eigenvalues    EBANDS =     -1661.48141183
  atomic energy  EATOM  =      5446.89399499
  Solvation  Ediel_sol  =         0.00000000
  ---------------------------------------------------
  free energy    TOTEN  =      -505.58395395 eV

  energy without entropy =     -505.40397425  energy(sigma->0) =     -505.49396410


--------------------------------------------------------------------------------------------------------




--------------------------------------- Iteration      1(  18)  ---------------------------------------


    POTLOK:  cpu time      1.8249: real time      1.8266
    SETDIJ:  cpu time      1.2075: real time      1.2082
    EDDIAG:  cpu time     39.9370: real time     39.9579
     EDDAV:  cpu time    179.8741: real time    179.9701
       DOS:  cpu time      0.0039: real time      0.0039
    CHARGE:  cpu time     22.4718: real time     22.4918
    MIXING:  cpu time      0.0444: real time      0.0444
    --------------------------------------------
      LOOP:  cpu time    245.3635: real time    245.5029

 eigenvalue-minimisations  :  2456
 total energy-change (2. order) :-0.3717688E-04  (-0.3814835E-05)
 number of electron     214.9999999 magnetization 
 augmentation part      -11.6418078 magnetization 

 Broyden mixing:
  rms(total) = 0.53859E-04    rms(broyden)= 0.13771E-02
  rms(prec ) = 0.80888E-04
  weight for this iteration     100.00
  WARNING: grid for Broyden might be to small

 eigenvalues of (default mixing * dielectric matrix)
  average eigenvalue GAMMA=   1.6148
  9.8892  3.0931  2.7325  2.2638  1.3675  1.0551  0.9450  0.9450  0.8841  0.4094
  0.4094  0.4070  0.6763  0.5559  0.5960  0.5960  0.6267

 Free energy of the ion-electron system (eV)
  ---------------------------------------------------
  alpha Z        PSCENC =        18.60417436
  Ewald energy   TEWEN  =     21922.37471145
  -Hartree energ DENC   =    -26514.61420882
  -exchange      EXHF   =         0.00000000
  -V(xc)+E(xc)   XCENC  =      -235.66661220
  PAW double counting   =     30129.96179903   -29611.43315886
  entropy T*S    EENTRO =        -0.17998416
  eigenvalues    EBANDS =     -1661.52470691
  atomic energy  EATOM  =      5446.89399499
  Solvation  Ediel_sol  =         0.00000000
  ---------------------------------------------------
  free energy    TOTEN  =      -505.58399113 eV

  energy without entropy =     -505.40400697  energy(sigma->0) =     -505.49399905


--------------------------------------------------------------------------------------------------------




--------------------------------------- Iteration      1(  19)  ---------------------------------------


[...]
    OFIELD:  cpu time      0.0034: real time      0.0035

  FORCE on cell =-STRESS in cart. coord.  units (eV):
  Direction    XX          YY          ZZ          XY          YZ          ZX
  --------------------------------------------------------------------------------------
  Alpha Z    18.60417    18.60417    18.60417
  Ewald   25573.68914 25550.30513-29201.63777   -64.67834    43.45885    50.07991
  Hartree 25926.96003 25933.04630-25345.43477   -42.95366    30.12946    30.87709
  E(xc)    -646.29808  -646.46503  -644.04538    -0.45062    -0.10584     0.02128
  Local  -54061.55725-54042.98079 52031.10854   110.30987   -67.94424   -79.40518
  n-local  1979.26691  1977.04239  1892.97774    -1.02458    -0.30706     1.23988
  augment  -289.28607  -289.26010  -283.09010     0.55857     0.53447    -0.18038
  Kinetic  1486.93210  1488.88897  1533.26671   -10.09709    -6.41514    -0.06441
  Fock        0.00000     0.00000     0.00000     0.00000     0.00000     0.00000
  -------------------------------------------------------------------------------------
  Total     -11.68906   -10.81897     1.74913    -8.33585    -0.64950     2.56818
  in kB      -3.56420    -3.29889     0.53334    -2.54175    -0.19804     0.78308
  external pressure =       -2.11 kB  Pullay stress =        0.00 kB


 VOLUME and BASIS-vectors are now :
 -----------------------------------------------------------------------------
  energy-cutoff  :     1200.00
  volume of cell :     5254.46
      direct lattice vectors                 reciprocal lattice vectors
    14.553828003  0.000000000  0.000000000     0.068710445  0.000000000  0.000000000
     0.000000000 14.553828003  0.000000000     0.000000000  0.068710445  0.000000000
     0.000000000  0.000000000 24.806962000     0.000000000  0.000000000  0.040311264

  length of vectors
    14.553828003 14.553828003 24.806962000     0.068710445  0.068710445  0.040311264


 FORCES acting on ions
    electron-ion (+dipol)            ewald-force                    non-local-force                 convergence-correction
 -----------------------------------------------------------------------------------------------
   -.158E+01 0.161E+02 0.749E+02   0.174E+01 -.179E+02 -.778E+02   -.187E+00 0.172E+01 0.263E+01   -.978E-06 0.872E-05 0.113E-04
   -.571E+01 0.560E+01 -.635E+02   0.646E+01 -.648E+01 0.663E+02   -.709E+00 0.652E+00 -.293E+01   -.298E-05 0.338E-04 0.101E-04
   0.536E+01 0.887E+01 0.724E+02   -.571E+01 -.111E+02 -.750E+02   0.294E+00 0.214E+01 0.238E+01   0.588E-05 -.129E-04 0.101E-05
   0.638E+01 -.114E+02 0.130E+02   -.680E+01 0.138E+02 -.147E+02   0.500E+00 -.233E+01 0.170E+01   -.664E-05 0.601E-04 -.350E-04
   0.649E+01 -.125E+02 0.620E+02   -.853E+01 0.143E+02 -.645E+02   0.163E+01 -.141E+01 0.225E+01   -.114E-04 -.706E-05 -.677E-05
   -.105E+01 -.181E+02 0.711E+02   0.121E+01 0.206E+02 -.734E+02   -.284E+00 -.234E+01 0.209E+01   -.346E-05 -.905E-05 0.108E-04
   -.179E+01 0.706E+01 0.213E+01   0.214E+01 -.684E+01 -.188E+01   -.106E+00 -.169E+00 0.131E+00   0.324E-05 0.752E-06 0.610E-05
   -.708E+01 -.187E+02 0.221E+03   0.559E+01 0.187E+02 -.223E+03   0.138E+01 0.138E+00 0.940E+00   0.611E-06 0.487E-04 0.463E-04
   -.102E+02 -.222E+02 -.147E+03   0.121E+02 0.232E+02 0.146E+03   -.174E+01 -.758E+00 0.103E+01   -.756E-04 -.770E-05 0.296E-04
   -.128E+02 -.126E+02 -.110E+03   0.132E+02 0.119E+02 0.110E+03   -.254E+00 0.512E+00 0.264E+00   -.482E-05 -.104E-03 0.298E-04
   -.383E+02 -.124E+02 0.156E+03   0.362E+02 0.127E+02 -.154E+03   0.156E+01 -.677E+00 -.145E+01   -.358E-05 -.339E-04 -.898E-05
   0.639E+01 0.327E+02 0.192E+03   -.487E+01 -.320E+02 -.191E+03   -.121E+01 -.372E+00 -.876E+00   0.845E-05 -.610E-04 0.835E-06
   0.107E+02 0.383E+01 -.138E+03   -.104E+02 -.226E+01 0.139E+03   0.112E+00 -.159E+01 0.384E+00   0.576E-06 0.565E-04 0.218E-04
   -.997E+01 -.389E+02 0.618E+02   0.119E+02 0.390E+02 -.637E+02   -.208E+01 -.594E-01 0.139E+01   -.329E-05 0.802E-04 0.319E-04
   -.161E+02 -.365E+02 -.885E+02   0.156E+02 0.358E+02 0.882E+02   0.905E+00 0.845E+00 0.892E+00   -.130E-03 -.122E-03 0.440E-04
   0.655E+01 0.652E+01 0.122E+03   -.611E+01 -.687E+01 -.120E+03   -.732E+00 0.485E+00 -.256E+01   0.152E-04 0.112E-04 0.328E-04
   0.533E+02 0.127E+02 0.734E+02   -.525E+02 -.126E+02 -.736E+02   -.101E+01 -.680E-01 -.319E+00   0.292E-04 0.780E-04 -.984E-05
   -.340E+01 0.331E+02 -.181E+03   0.142E+01 -.309E+02 0.178E+03   0.223E+01 -.207E+01 0.232E+01   0.105E-04 0.188E-04 0.198E-04
   0.290E+02 0.567E+01 -.790E+02   -.276E+02 -.483E+01 0.779E+02   -.149E+01 -.807E+00 0.984E+00   -.403E-04 -.926E-04 0.566E-04
   -.221E+02 0.237E+02 -.174E+03   0.230E+02 -.239E+02 0.172E+03   -.821E+00 -.183E+00 0.187E+01   0.209E-05 0.267E-04 0.291E-04
   -.168E+02 -.400E+01 -.162E+03   0.177E+02 0.620E+01 0.159E+03   -.802E+00 -.204E+01 0.380E+01   -.149E-05 0.121E-03 0.381E-04
   -.201E+00 -.198E+02 -.101E+03   0.153E+00 0.197E+02 0.986E+02   0.192E+00 -.474E-01 0.193E+01   0.203E-05 -.312E-04 -.546E-04
   0.592E+02 0.472E+01 -.191E+03   -.594E+02 -.430E+01 0.192E+03   0.170E+00 -.282E+00 -.173E+00   0.382E-04 0.682E-04 0.208E-04
   -.186E+02 -.306E+02 -.295E+02   0.179E+02 0.293E+02 0.283E+02   0.840E+00 0.122E+01 0.106E+01   -.757E-05 -.530E-04 0.163E-04
   -.691E+01 0.216E+02 -.416E+02   0.657E+01 -.201E+02 0.444E+02   0.453E+00 -.118E+01 -.256E+01   0.490E-05 0.115E-03 -.910E-05
   -.264E+02 0.146E+02 0.516E+02   0.237E+02 -.151E+02 -.493E+02   0.200E+01 0.670E+00 -.209E+01   -.111E-04 0.650E-04 -.146E-04
   0.164E+02 0.609E+01 0.212E+03   -.152E+02 -.489E+01 -.211E+03   -.822E+00 -.109E+01 -.705E+00   0.683E-05 0.304E-05 0.597E-04
   0.242E+01 -.168E+02 -.991E+02   -.315E+01 0.163E+02 0.978E+02   0.705E+00 0.447E+00 0.142E+01   -.584E-04 -.432E-04 0.468E-04
   -.243E+02 -.134E+02 0.199E+03   0.260E+02 0.141E+02 -.200E+03   -.172E+01 -.630E+00 0.436E+00   0.281E-04 -.459E-04 -.347E-05
   -.224E+02 0.209E+01 0.240E+03   0.235E+02 -.904E+00 -.240E+03   -.998E+00 -.138E+01 -.523E+00   0.117E-04 0.403E-04 -.105E-04
   0.329E+02 0.144E+02 0.802E+02   -.332E+02 -.145E+02 -.811E+02   -.270E+00 0.102E+00 0.475E+00   0.770E-05 0.514E-04 0.320E-04
   0.223E+02 -.278E+02 -.196E+03   -.229E+02 0.287E+02 0.197E+03   0.334E+00 -.617E+00 -.785E+00   -.815E-05 0.239E-04 0.605E-04
   0.103E+02 -.217E+02 0.180E+03   -.102E+02 0.226E+02 -.179E+03   0.520E+00 -.870E+00 -.400E+00   0.768E-05 -.948E-04 -.865E-05
   0.405E+02 0.215E+02 0.958E+02   -.387E+02 -.214E+02 -.955E+02   -.162E+01 0.130E+00 -.204E+00   -.554E-05 0.860E-04 -.133E-04
   0.456E+02 0.196E+02 0.205E+03   -.470E+02 -.201E+02 -.206E+03   0.110E+01 0.405E+00 0.944E+00   0.320E-04 0.138E-04 -.504E-04
   -.238E+01 -.463E+01 -.222E+03   0.513E+01 0.575E+01 0.225E+03   -.251E+01 -.106E+01 -.237E+01   0.129E-04 -.432E-05 0.391E-05
   -.366E+01 0.570E+01 -.101E+03   0.412E+01 -.413E+01 0.993E+02   -.548E+00 -.119E+01 0.146E+01   0.274E-04 -.992E-04 0.102E-04
   0.184E+01 0.120E+02 0.160E+02   -.301E+01 -.116E+02 -.141E+02   0.136E+01 -.589E+00 -.169E+01   0.110E-04 -.857E-04 0.304E-04
   -.422E+02 0.195E+02 0.744E+02   0.406E+02 -.190E+02 -.756E+02   0.169E+01 -.503E+00 0.797E+00   -.180E-04 0.416E-04 0.108E-04
   0.130E+02 0.600E+01 0.557E+01   -.134E+02 -.415E+01 -.688E+01   0.310E+00 -.164E+01 0.125E+01   0.121E-03 -.924E-04 -.292E-04
   0.104E+02 0.182E+02 -.924E+02   -.933E+01 -.182E+02 0.902E+02   -.798E+00 0.342E-01 0.192E+01   -.105E-04 -.835E-04 0.436E-04
   -.270E+02 0.216E+02 0.151E+03   0.275E+02 -.206E+02 -.150E+03   -.154E+00 -.103E+01 -.139E+01   -.132E-04 0.520E-04 0.517E-05
   -.245E+02 -.627E+00 -.237E+03   0.236E+02 0.140E+01 0.239E+03   0.683E+00 -.594E+00 -.135E+01   0.343E-05 0.658E-04 0.191E-04
   -.350E+01 -.159E+02 0.154E+03   0.210E+01 0.154E+02 -.152E+03   0.156E+01 0.434E+00 -.230E+01   -.200E-04 0.192E-04 0.494E-04
   0.126E+02 -.622E+01 0.141E+03   -.140E+02 0.393E+01 -.142E+03   0.123E+01 0.217E+01 0.804E+00   -.598E-05 0.669E-04 0.230E-04
   -.903E+01 0.104E+01 -.133E+03   0.968E+01 -.738E+00 0.131E+03   -.968E+00 -.268E+00 0.143E+01   -.186E-04 -.358E-04 0.343E-04
   -.399E+00 0.154E+02 -.219E+03   -.126E+00 -.163E+02 0.218E+03   0.346E+00 0.995E+00 0.299E+00   -.248E-04 0.146E-04 0.267E-04
   0.972E+01 0.159E+02 -.181E+03   -.121E+02 -.171E+02 0.181E+03   0.231E+01 0.618E+00 0.459E+00   0.477E-04 -.513E-04 0.279E-04
   -.304E+02 -.261E+02 0.510E+02   0.273E+02 0.280E+02 -.500E+02   0.293E+01 -.173E+01 -.973E+00   0.705E-05 0.132E-04 0.397E-04
   0.188E+02 -.166E+02 -.165E+03   -.204E+02 0.147E+02 0.163E+03   0.155E+01 0.180E+01 0.222E+01   -.733E-05 0.672E-04 0.154E-04
   -.480E+01 -.271E+01 0.173E+03   0.511E+01 -.106E+01 -.173E+03   -.330E+00 0.347E+01 0.318E+00   -.885E-05 0.162E-04 0.334E-04
   -.224E+01 -.635E+01 -.241E+03   0.258E+01 0.706E+01 0.240E+03   -.221E+00 -.635E+00 0.950E+00   -.350E-04 -.109E-03 0.482E-04
   0.142E+02 -.200E+02 0.331E+02   -.121E+02 0.196E+02 -.328E+02   -.196E+01 0.228E+00 -.330E+00   0.323E-04 -.240E-04 0.701E-04
   -.184E+02 0.388E+02 -.602E+02   0.172E+02 -.384E+02 0.590E+02   0.128E+01 -.644E+00 0.108E+01   0.217E-05 0.827E-04 0.187E-04
   -.563E+01 0.148E+02 -.160E+03   0.478E+01 -.134E+02 0.157E+03   0.817E+00 -.133E+01 0.317E+01   0.858E-05 -.237E-04 0.177E-04
   -.283E+02 -.359E+02 0.730E+02   0.271E+02 0.337E+02 -.730E+02   0.100E+01 0.232E+01 -.349E-01   0.221E-04 -.147E-03 -.164E-04
   0.112E+01 0.358E+02 0.187E+03   -.231E+01 -.339E+02 -.185E+03   0.985E+00 -.181E+01 -.130E+01   0.122E-04 -.167E-04 -.699E-05
   0.107E+02 -.260E+02 0.117E+03   -.108E+02 0.239E+02 -.119E+03   -.247E+00 0.141E+01 0.190E+01   -.387E-04 -.815E-04 -.188E-05
   -.583E+01 0.247E+02 0.286E+02   0.702E+01 -.250E+02 -.280E+02   -.915E+00 0.241E+00 -.454E+00   -.874E-05 0.111E-03 0.332E-04
 -----------------------------------------------------------------------------------------------
   -.747E+01 0.108E+02 -.216E+02   -.497E-13 -.604E-13 -.135E-12   0.749E+01 -.108E+02 0.216E+02   -.628E-04 -.108E-04 0.937E-03


 POSITION                                       TOTAL-FORCE (eV/Angst)
 -----------------------------------------------------------------------------------
      9.77527      3.33523      9.51773        -0.019891     -0.124981     -0.185324
     10.62013      0.44639     14.16870         0.046384     -0.228630     -0.075454
     10.28131      7.27449      9.75505        -0.050537     -0.043146     -0.209426
     11.33966     13.00335     12.32213         0.076560      0.118676      0.048125
      7.84728     10.11175     10.52841        -0.410169      0.406913     -0.247205
      5.45081      6.40556      9.18756        -0.120668      0.147345     -0.235952
      2.01096     12.19379     12.19634         0.250167      0.052813      0.379981
      0.81244      3.15481     10.56176        -0.088684      0.110723     -0.056356
      7.95598     12.36259     13.63140         0.067030      0.163791     -0.190369
     10.95786      7.69626     13.19336         0.056172     -0.166805     -0.018209
      5.46146     11.04772     11.18827        -0.552806     -0.652940      0.144698
      3.45280     10.03611     10.56524         0.300210      0.425647      0.175240
      0.41976      3.40502     13.23586         0.486574     -0.079057      0.289219
      3.67909      2.16935     12.10033        -0.234846     -0.146607     -0.171149
      9.53514     10.75510     13.27897         0.454942      0.131017      0.685830
     11.86295      4.94543     11.38469        -0.326691      0.136824      0.035503
     14.04989     14.04925     11.64886        -0.160654      0.063531     -0.457091
      1.88505     12.35907     13.83100         0.339363      0.055485     -0.661797
      7.48322      8.14595     13.13365        -0.105547      0.028069     -0.027809
      4.08639     13.29704     13.81805        -0.035504     -0.459753      0.138551
      5.26260      2.99614     13.63593        -0.079682      0.024690      0.062699
     11.58690     11.78477     13.14767         0.084606     -0.121166     -0.254348
      0.34688     14.08528     13.85605         0.152418      0.098293      0.384590
      0.31761      6.45617     12.55172         0.190283     -0.117186     -0.109022
     10.27386      0.79020     12.75737         0.127580      0.231671      0.056774
      8.46950     13.96795     12.13535        -0.663811      0.307992      0.192330
      5.33338      5.31181     10.17844         0.368997      0.237085      0.374910
      7.44042      5.79796     13.22372        -0.012467     -0.017584      0.163467
     13.41201      6.68537     10.74391        -0.253569      0.023505     -0.027829
      2.89155     14.02054     10.17970        -0.005274     -0.302702     -0.292503
     13.25160      3.05678     11.57143        -0.526999      0.011054     -0.387970
      5.22890      5.29558     13.99086        -0.169448      0.079650      0.164278
     10.42495      8.24762     10.85228         0.594552     -0.089038      0.568032
     12.27151      0.96033     11.52502         0.180036      0.300806      0.166352
     14.19623     12.00649     10.49944        -0.106530     -0.022275     -0.207991
     13.75882      5.20006     14.23588         0.081976     -0.014444      0.319480
      1.47571      8.39218     13.15674        -0.119356      0.329535     -0.021562
      3.54568      8.27897     12.19247         0.249791     -0.113839      0.083942
      4.46903     14.49686     11.79360         0.171653      0.100882     -0.276990
     13.44725     10.68510     12.28483        -0.063721      0.104878      0.031351
      5.46595      9.37299     12.99870         0.219705      0.160209     -0.242730
      6.66286      0.49132     11.23106         0.382259     -0.082634      0.092022
      3.96493      1.10753     14.37709        -0.205855      0.156683      0.011183
      7.36751      4.72196     11.12143         0.228532     -0.172339     -0.141775
      1.35018      0.90250     11.19215        -0.067627      0.007228     -0.320205
      5.75310     11.68811     13.43121        -0.364892      0.005915     -0.012236
      9.32166      4.65440     14.23371        -0.112871      0.115356     -0.342997
      0.59897     10.36845     13.87847         0.124905     -0.505249      0.053520
      1.88585      4.78497     11.94015        -0.106936      0.029705      0.054863
      1.71061      1.42858     13.55338         0.102495      0.021456      0.471712
      9.68844      4.13954     10.75746        -0.053564     -0.208331      0.034062
      9.33634      8.78228     14.48862         0.129458      0.066390     -0.336136
      4.01406      5.88932     12.02609         0.019992     -0.120253     -0.055589
      9.23105      2.87914     12.72426         0.102556     -0.243427     -0.126928
     11.44018      5.48957     13.62125        -0.028726      0.064615     -0.056191
     12.52662      8.60884     11.70846        -0.334368      0.172829     -0.063045
      1.99204     11.88162     10.57829        -0.136850      0.048401      0.176097
      8.64349      9.42930     11.56680        -0.305055     -0.530222      0.316214
      6.98835      2.59331     12.13038         0.234403      0.022943      0.137161
 -----------------------------------------------------------------------------------
    total drift:                                0.014128     -0.003271     -0.002496


--------------------------------------------------------------------------------------------------------



  FREE ENERGIE OF THE ION-ELECTRON SYSTEM (eV)
  ---------------------------------------------------
  free  energy   TOTEN  =      -505.58401948 eV

  energy  without entropy=     -505.40403371  energy(sigma->0) =     -505.49402659



--------------------------------------------------------------------------------------------------------


    POTLOK:  cpu time      2.9753: real time      3.0148


--------------------------------------------------------------------------------------------------------


     LOOP+:  cpu time   5727.9534: real time   5732.0678
    4ORBIT:  cpu time      0.0000: real time      0.0000



 total charge

# of ion       s       p       d       tot
------------------------------------------
    1        0.573   0.016   0.000   0.589
    2        0.560   0.015   0.000   0.576
    3        0.568   0.016   0.000   0.584
    4        0.569   0.017   0.000   0.586
    5        0.571   0.017   0.000   0.588
    6        0.568   0.016   0.000   0.584
    7        0.575   0.021   0.000   0.596
    8        0.816   0.820   0.000   1.636
    9        0.790   0.908   0.000   1.698
   10        0.768   0.914   0.000   1.682
   11        0.822   0.813   0.000   1.635
   12        0.789   0.844   0.000   1.633
   13        0.776   0.871   0.000   1.647
   14        0.834   0.814   0.000   1.648
   15        0.752   0.973   0.000   1.726
   16        0.762   0.902   0.000   1.665
   17        0.761   0.926   0.000   1.686
   18        0.770   0.896   0.000   1.666
   19        0.757   0.935   0.000   1.691
   20        0.764   0.886   0.000   1.650
   21        0.770   0.903   0.000   1.673
   22        0.784   0.905   0.000   1.689
   23        0.814   0.845   0.000   1.659
   24        0.755   0.928   0.000   1.683
   25        0.737   0.964   0.000   1.700
   26        0.780   0.898   0.000   1.678
   27        0.784   0.894   0.000   1.678
   28        0.760   0.895   0.000   1.655
   29        0.823   0.831   0.000   1.653
   30        0.809   0.860   0.000   1.669
   31        0.765   0.912   0.000   1.677
   32        0.804   0.845   0.000   1.649
   33        0.750   0.974   0.000   1.723
   34        0.783   0.883   0.000   1.666
   35        0.809   0.857   0.000   1.666
   36        0.828   0.794   0.000   1.622
   37        0.777   0.899   0.000   1.676
   38        0.756   0.900   0.000   1.656
   39        0.767   0.903   0.000   1.670
   40        0.752   0.919   0.000   1.672
   41        0.759   0.895   0.000   1.655
   42        0.778   0.900   0.000   1.678
   43        0.800   0.811   0.000   1.611
   44        0.767   0.901   0.000   1.668
   45        0.768   0.886   0.000   1.654
   46        0.764   0.893   0.000   1.657
   47        0.802   0.833   0.000   1.635
   48        0.789   0.867   0.000   1.656
   49        0.756   0.901   0.000   1.658
   50        0.757   0.899   0.000   1.655
   51        0.746   0.930   0.000   1.676
   52        0.817   0.843   0.000   1.660
   53        0.756   0.889   0.000   1.645
   54        0.761   0.950   0.000   1.711
   55        0.756   0.945   0.000   1.702
   56        0.760   0.939   0.000   1.699
   57        0.781   0.878   0.000   1.659
   58        0.753   0.963   0.000   1.716
   59        0.760   0.937   0.000   1.697
--------------------------------------------------
tot         44.378  46.491   0.000  90.869


 total amount of memory used by VASP MPI-rank0   331485. kBytes
=======================================================================

   base                                    :      30000. kBytes
   nonl-proj                               :      61086. kBytes
   fftplans                                :      95290. kBytes
   grid                                    :      73508. kBytes
   one-center                              :         12. kBytes
   wavefun                                 :      71589. kBytes

  
  
 General timing and accounting informations for this job:
 ========================================================
  
                  Total CPU time used (sec):     5857.979
                            User time (sec):     5149.435
                          System time (sec):      708.543
                         Elapsed time (sec):     5862.174
  
                   Maximum memory used (kb):      580752.
                   Average memory used (kb):          N/A
  
                          Minor page faults:      8365370
                          Major page faults:         1160
                 Voluntary context switches:         3031
