 vasp.6.5.0 16Dec24 (build Jan 20 2025 08:32:48) complex                         
 executed on        HPECrayEX_GCC date 2025.07.22  01:09:02
 running  128 mpi-ranks, with    1 threads/rank, on    1 nodes
 distrk:  each k-point on  128 cores,    1 groups
 distr:  one band on NCORE=  16 cores,    8 groups


--------------------------------------------------------------------------------------------------------


 INCAR:
   SYSTEM = a-Si SPC
   NCORE = 16
   ISTART = 1
   ICHARG = 1
   ISPIN = 1
   ISYM = 1
   EDIFF = 1E-6
   NELM = 150
   EDIFFG = -0.01
   NSW = 0
   ISIF = 2
   IBRION = -1
   PREC = Accurate
   ENCUT = 1200
   KSPACING = 0.23
   KGAMMA = .TRUE.
   METAGGA = SCAN
   LASPH = .TRUE.
   LDIAG = .FALSE.
   LMIXTAU = .TRUE.
   ADDGRID = .TRUE.
   ALGO = Normal
   ISMEAR = 0
   SIGMA = 0.1
   LORBIT = 11
   NEDOS = 2000
   LWAVE = .FALSE.
   LCHARG = .FALSE.

 POTCAR:    PAW_PBE H 15Jun2001                   
 POTCAR:    PAW_PBE Si 05Jan2001                  
 POTCAR:    PAW_PBE H 15Jun2001                   
   SHA256 =  030f79b5d3ab3cf0e668861823c8fb652ff669f3e15e46930bd03bfd63a607b6 H/POTCAR              
   COPYR  = (c) Copyright 15Jun2001 Georg Kresse                                                    
   COPYR  = This file is part of the software VASP. Any use, copying, and all other rights are regul
   COPYR  = If you do not have a valid VASP license, you may not use, copy or distribute this file. 
   VRHFIN =H: ultrasoft test                                                                        
   LEXCH  = PE                                                                                      
   EATOM  =    12.4884 eV,    0.9179 Ry                                                             
                                                                                                    
   TITEL  = PAW_PBE H 15Jun2001                                                                     
   LULTRA =        F    use ultrasoft PP ?                                                          
   IUNSCR =        0    unscreen: 0-lin 1-nonlin 2-no                                               
   RPACOR =    0.000    partial core radius                                                         
   POMASS =    1.000; ZVAL   =    1.000    mass and valenz                                          
   RCORE  =    1.100    outmost cutoff radius                                                       
   RWIGS  =    0.700; RWIGS  =    0.370    wigner-seitz radius (au A)                               
   ENMAX  =  250.000; ENMIN  =  200.000 eV                                                          
   RCLOC  =    0.701    cutoff for local pot                                                        
   LCOR   =        T    correct aug charges                                                         
   LPAW   =        T    paw PP                                                                      
   EAUG   =  400.000                                                                                
   RMAX   =    1.123    core radius for proj-oper                                                   
   RAUG   =    1.200    factor for augmentation sphere                                              
   RDEP   =    1.112    radius for radial grids                                                     
   RDEPT  =    0.926    core radius for aug-charge                                                  
                                                                                                    
   Atomic configuration                                                                             
    2 entries                                                                                       
     n  l   j            E        occ.                                                              
     1  0  0.50        -6.4927   1.0000                                                             
     2  1  0.50        -3.4015   0.0000                                                             
   Description                                                                                      
     l       E           TYP  RCUT    TYP  RCUT                                                     
     0     -6.4927494     23  1.100                                                                 
     0      6.8029130     23  1.100                                                                 
     1     -4.0817478     23  1.100                                                                 
  local pseudopotential read in
  atomic valenz-charges read in
  non local Contribution for L=           0  read in
    real space projection operators read in
  non local Contribution for L=           0  read in
    real space projection operators read in
  non local Contribution for L=           1  read in
    real space projection operators read in
    PAW grid and wavefunctions read in

   number of l-projection  operators is LMAX  =           3
   number of lm-projection operators is LMMAX =           5

 POTCAR:    PAW_PBE Si 05Jan2001                  
   SHA256 =  79d9987ad8750f624c4d6acb2a16d13abf6a777132adc04dc6c8399be72b42bb Si/POTCAR             
   COPYR  = (c) Copyright 05Jan2001 Georg Kresse                                                    
   COPYR  = This file is part of the software VASP. Any use, copying, and all other rights are regul
   COPYR  = If you do not have a valid VASP license, you may not use, copy or distribute this file. 
   VRHFIN =Si: s2p2                                                                                 
   LEXCH  = PE                                                                                      
   EATOM  =   103.0669 eV,    7.5752 Ry                                                             
                                                                                                    
   TITEL  = PAW_PBE Si 05Jan2001                                                                    
   LULTRA =        F    use ultrasoft PP ?                                                          
   IUNSCR =        1    unscreen: 0-lin 1-nonlin 2-no                                               
   RPACOR =    1.500    partial core radius                                                         
   POMASS =   28.085; ZVAL   =    4.000    mass and valenz                                          
   RCORE  =    1.900    outmost cutoff radius                                                       
   RWIGS  =    2.480; RWIGS  =    1.312    wigner-seitz radius (au A)                               
   ENMAX  =  245.345; ENMIN  =  184.009 eV                                                          
   ICORE  =        2    local potential                                                             
   LCOR   =        T    correct aug charges                                                         
   LPAW   =        T    paw PP                                                                      
   EAUG   =  322.069                                                                                
   DEXC   =    0.000                                                                                
   RMAX   =    1.950    core radius for proj-oper                                                   
   RAUG   =    1.300    factor for augmentation sphere                                              
   RDEP   =    1.993    radius for radial grids                                                     
   RDEPT  =    1.837    core radius for aug-charge                                                  
                                                                                                    
   Atomic configuration                                                                             
    6 entries                                                                                       
     n  l   j            E        occ.                                                              
     1  0  0.50     -1785.8828   2.0000                                                             
     2  0  0.50      -139.4969   2.0000                                                             
     2  1  1.50       -95.5546   6.0000                                                             
     3  0  0.50       -10.8127   2.0000                                                             
     3  1  0.50        -4.0811   2.0000                                                             
     3  2  1.50        -4.0817   0.0000                                                             
   Description                                                                                      
     l       E           TYP  RCUT    TYP  RCUT                                                     
     0    -10.8127223     23  1.900                                                                 
     0     -7.6451159     23  1.900                                                                 
     1     -4.0811372     23  1.900                                                                 
     1      2.4879257     23  1.900                                                                 
     2     -4.0817478      7  1.900                                                                 
  local pseudopotential read in
  partial core-charges read in
  partial kinetic energy density read in
  atomic valenz-charges read in
  non local Contribution for L=           0  read in
    real space projection operators read in
  non local Contribution for L=           0  read in
    real space projection operators read in
  non local Contribution for L=           1  read in
    real space projection operators read in
  non local Contribution for L=           1  read in
    real space projection operators read in
    PAW grid and wavefunctions read in

   number of l-projection  operators is LMAX  =           4
   number of lm-projection operators is LMMAX =           8

 -----------------------------------------------------------------------------
|                                                                             |
|               ----> ADVICE to this user running VASP <----                  |
|                                                                             |
|     You have a (more or less) 'large supercell' and for larger cells it     |
|     might be more efficient to use real-space projection operators.         |
|     Therefore, try LREAL= Auto in the INCAR file.                           |
|     Mind: For very accurate calculation, you might also keep the            |
|     reciprocal projection scheme (i.e. LREAL=.FALSE.).                      |
|                                                                             |
 -----------------------------------------------------------------------------

 -----------------------------------------------------------------------------
|                                                                             |
|               ----> ADVICE to this user running VASP <----                  |
|                                                                             |
|     You enforced a specific xc type in the INCAR file but a different       |
|     type was found in the POTCAR file.                                      |
|     I HOPE YOU KNOW WHAT YOU ARE DOING!                                     |
|                                                                             |
 -----------------------------------------------------------------------------

  PAW_PBE H 15Jun2001                   :
 energy of atom  1       EATOM=  -12.4884
 kinetic energy error for atom=    0.0000 (will be added to EATOM!!)
  PAW_PBE Si 05Jan2001                  :
 energy of atom  2       EATOM= -103.0669
 kinetic energy error for atom=    0.0001 (will be added to EATOM!!)


 POSCAR:  H Si
  positions in cartesian coordinates
  No initial velocities read in


 exchange-correlation table for SCAN
   RHO(1)=    0.500       N(1)  =     2000
   RHO(2)=  100.500       N(2)  =     4000



--------------------------------------------------------------------------------------------------------


 ion  position               nearest neighbor table
   1  0.417  0.741  0.693-  29 1.53
   2  0.130  0.767  0.460-  15 2.31  40 2.33  44 2.36   4 2.48
   3  0.219  0.134  0.711-  43 2.30   6 2.39  48 2.40  31 2.43
   4  0.960  0.753  0.469-   5 2.34  52 2.38  60 2.43   2 2.48
   5  0.928  0.674  0.716-  32 2.32   4 2.34   7 2.36
   6  0.284  0.230  0.502-  55 2.35  53 2.35   3 2.39  13 2.47
   7  0.990  0.525  0.741-  18 2.26   5 2.36  23 2.37  27 2.67
   8  0.470  0.338  0.847-  53 2.38  21 2.39  20 2.45
   9  0.747  0.949  0.496-  10 2.36  51 2.42  60 2.49
  10  0.725  0.049  0.270-  41 2.33  12 2.36   9 2.36  34 2.38
  11  0.927  0.310  0.555-  46 2.31  18 2.32  24 2.34  33 2.41
  12  0.713  0.202  0.366-  33 2.25  10 2.36  28 2.38  16 2.47
  13  0.167  0.328  0.367-  19 2.35  24 2.39  59 2.44   6 2.47
  14  0.944  0.207  0.208-  41 2.33  33 2.35  17 2.41  24 2.42
  15  0.123  0.632  0.310-  52 2.31   2 2.31  50 2.33  19 2.52
  16  0.651  0.193  0.651-  21 2.32  63 2.35  12 2.47  51 2.49
  17  0.010  0.281  0.969-  31 2.26  27 2.32  46 2.33  14 2.41
  18  0.970  0.459  0.489-   7 2.26  22 2.29  11 2.32  19 2.39
  19  0.132  0.478  0.454-  23 2.34  13 2.35  18 2.39  15 2.52
  20  0.388  0.294  0.100-  42 2.20  59 2.39  55 2.45   8 2.45
  21  0.626  0.286  0.880-  16 2.32  26 2.33   8 2.39  28 2.45
  22  0.933  0.513  0.231-  18 2.29  27 2.40  45 2.45  52 2.52
  23  0.153  0.520  0.732-  19 2.34   7 2.37  30 2.39  25 2.47
  24  0.047  0.224  0.441-  11 2.34  48 2.34  13 2.39  14 2.42
  25  0.162  0.674  0.863-  40 2.28  50 2.39  32 2.42  23 2.47  58 3.02  30 3.07
  26  0.770  0.354  0.917-  21 2.33  46 2.36  45 2.44
  27  0.023  0.437  0.024-  17 2.32  22 2.40  30 2.41   7 2.67
  28  0.598  0.240  0.167-  42 2.29  34 2.37  12 2.38  21 2.45
  29  0.377  0.838  0.674-   1 1.53  54 2.30  37 2.43  40 2.44
  30  0.183  0.481  0.013-  59 2.31  23 2.39  27 2.41  50 2.55  25 3.07
  31  0.152  0.219  0.941-  17 2.26  35 2.32  59 2.33   3 2.43
  32  0.013  0.739  0.930-   5 2.32  49 2.41  25 2.42  52 2.47
  33  0.827  0.302  0.316-  12 2.25  14 2.35  11 2.41  45 2.48
  34  0.576  0.078  0.156-  28 2.37  10 2.38  56 2.45  47 2.52
  35  0.211  0.105  0.114-  55 2.32  31 2.32  43 2.40  36 2.44
  36  0.117  0.015  0.305-  39 2.26  48 2.29  44 2.30  35 2.44
  37  0.385  0.903  0.398-  38 2.31  29 2.43  56 2.53  44 2.59
  38  0.415  0.839  0.140-  58 2.29  37 2.31  54 2.42
  39  0.973  0.973  0.237-  36 2.26  60 2.30  41 2.35  49 2.65
  40  0.217  0.789  0.699-  25 2.28  62 2.29   2 2.33  29 2.44
  41  0.862  0.076  0.130-  61 2.31  10 2.33  14 2.33  39 2.35
  42  0.490  0.332  0.290-  20 2.20  28 2.29  53 2.60
  43  0.272  0.019  0.885-  62 2.23   3 2.30  35 2.40  54 2.53
  44  0.212  0.888  0.332-  36 2.30   2 2.36  58 2.43  37 2.59
  45  0.782  0.445  0.170-  26 2.44  22 2.45  33 2.48
  46  0.881  0.251  0.807-  11 2.31  17 2.33  26 2.36  61 2.44
  47  0.551  0.030  0.860-  54 2.38  34 2.52  51 2.55  63 2.71
  48  0.088  0.082  0.556-  36 2.29  24 2.34   3 2.40  57 2.41
  49  0.028  0.903  0.950-  62 2.31  32 2.41  57 2.50  39 2.65
  50  0.241  0.637  0.114-  15 2.33  25 2.39  58 2.40  30 2.55
  51  0.713  0.041  0.739-  61 2.39   9 2.42  16 2.49  47 2.55
  52  0.982  0.679  0.210-  15 2.31   4 2.38  32 2.47  22 2.52
  53  0.431  0.282  0.580-   6 2.35  63 2.35   8 2.38  42 2.60
  54  0.422  0.931  0.890-  29 2.30  47 2.38  38 2.42  43 2.53
  55  0.338  0.159  0.259-  56 2.23  35 2.32   6 2.35  20 2.45
  56  0.447  0.063  0.348-  55 2.23  63 2.43  34 2.45  37 2.53
  57  0.973  0.000  0.714-  61 2.32  48 2.41  60 2.42  49 2.50
  58  0.264  0.800  0.094-  38 2.29  62 2.35  50 2.40  44 2.43  25 3.02
  59  0.229  0.334  0.086-  30 2.31  31 2.33  20 2.39  13 2.44
  60  0.915  0.914  0.481-  39 2.30  57 2.42   4 2.43   9 2.49
  61  0.860  0.086  0.845-  41 2.31  57 2.32  51 2.39  46 2.44
  62  0.185  0.893  0.904-  43 2.23  40 2.29  49 2.31  58 2.35
  63  0.503  0.137  0.599-  16 2.35  53 2.35  56 2.43  47 2.71

  LATTYP: Found a simple tetragonal cell.
 ALAT       =    14.5237936979
 C/A-ratio  =     0.5560640266
  
  Lattice vectors:
  
 A1 = (  14.5237936979,   0.0000000000,   0.0000000000)
 A2 = (   0.0000000000,  14.5237936979,   0.0000000000)
 A3 = (   0.0000000000,   0.0000000000,   8.0761592050)


Analysis of symmetry for initial positions (statically):
=====================================================================
 Subroutine PRICEL returns:
 Original cell was already a primitive cell.
 

 Routine SETGRP: Setting up the symmetry group for a 
 simple tetragonal supercell.


 Subroutine GETGRP returns: Found  1 space group operations
 (whereof  1 operations were pure point group operations)
 out of a pool of 16 trial point group operations.


The static configuration has the point symmetry C_1 .


Analysis of symmetry for dynamics (positions and initial velocities):
=====================================================================
 Subroutine PRICEL returns:
 Original cell was already a primitive cell.
 

 Routine SETGRP: Setting up the symmetry group for a 
 simple tetragonal supercell.


 Subroutine GETGRP returns: Found  1 space group operations
 (whereof  1 operations were pure point group operations)
 out of a pool of 16 trial point group operations.


The dynamic configuration has the point symmetry C_1 .


 Subroutine INISYM returns: Found  1 space group operations
 (whereof  1 operations are pure point group operations),
 and found     1 'primitive' translations


----------------------------------------------------------------------------------------

                                     Primitive cell                                     

  volume of cell :    1703.5897

  direct lattice vectors                    reciprocal lattice vectors
    14.523793698  0.000000000  0.000000000     0.068852534  0.000000000  0.000000000
     0.000000000 14.523793698  0.000000000     0.000000000  0.068852534  0.000000000
     0.000000000  0.000000000  8.076159205     0.000000000  0.000000000  0.123821234

  length of vectors
    14.523793698 14.523793698  8.076159205     0.068852534  0.068852534  0.123821234

  position of ions in fractional coordinates (direct lattice)
     0.417005372  0.741479824  0.693180986
     0.129862764  0.767010344  0.459808915
     0.218866370  0.133556703  0.711085536
     0.959866292  0.752957542  0.469184659
     0.927918716  0.674404374  0.715790743
     0.283938211  0.229950251  0.502246166
     0.989768947  0.524883523  0.740645380
     0.470439759  0.338313811  0.847044966
     0.746932945  0.948849886  0.496282936
     0.724548986  0.049379110  0.270259655
     0.926521010  0.309899748  0.555174791
     0.712658154  0.202248122  0.366170345
     0.167481035  0.328002456  0.367175773
     0.943541356  0.207049209  0.208194261
     0.123151708  0.631844557  0.310139998
     0.651207955  0.193258047  0.651461897
     0.009975217  0.281260536  0.969028693
     0.969863680  0.459438501  0.489175597
     0.131908373  0.478196685  0.454251818
     0.387889701  0.293989304  0.099832108
     0.625784157  0.286330837  0.879970270
     0.932531836  0.513392723  0.231081378
     0.153069511  0.520067977  0.731707963
     0.046891192  0.223709457  0.440921224
     0.161846144  0.673519619  0.862617963
     0.770191331  0.353901336  0.916882619
     0.023151527  0.437340968  0.024428320
     0.597778389  0.240176229  0.167476887
     0.377309132  0.838279602  0.674334156
     0.182988003  0.480956295  0.013484504
     0.151923116  0.218646730  0.941043856
     0.013050929  0.738794576  0.929722881
     0.827490410  0.302138001  0.315555939
     0.576332202  0.078316315  0.156410983
     0.210719049  0.105221820  0.114471121
     0.117332292  0.014700705  0.305184672
     0.385460584  0.902828853  0.397593698
     0.414699501  0.839498292  0.140181734
     0.972528273  0.972707289  0.237463125
     0.217085843  0.788698892  0.699311375
     0.862316022  0.075533984  0.130323087
     0.489946370  0.332366329  0.289792455
     0.271853903  0.019443956  0.884744817
     0.211521870  0.887929164  0.331939965
     0.782089049  0.444967075  0.169508793
     0.880561943  0.251089356  0.807415980
     0.550696338  0.030169803  0.860188590
     0.087656161  0.081634318  0.556482343
     0.028139480  0.903434755  0.950217771
     0.240616197  0.637209547  0.113749491
     0.712844055  0.040723520  0.739320492
     0.982119431  0.678909396  0.210056533
     0.431146306  0.281622012  0.580100006
     0.421575804  0.930934457  0.890409639
     0.337680368  0.159165026  0.259035260
     0.446863274  0.063171443  0.348383424
     0.973161716  0.000147161  0.714434901
     0.263999894  0.800204151  0.094433007
     0.228668905  0.334205381  0.085656682
     0.914581980  0.914093127  0.480753277
     0.859513723  0.085512782  0.845457578
     0.184940661  0.892989826  0.904011401
     0.502684089  0.136584149  0.598855208

  ion indices of the primitive-cell ions
   primitive index   ion index
                 1           1
                 2           2
                 3           3
                 4           4
                 5           5
                 6           6
                 7           7
                 8           8
                 9           9
                10          10
                11          11
                12          12
                13          13
                14          14
                15          15
                16          16
                17          17
                18          18
                19          19
                20          20
                21          21
                22          22
                23          23
                24          24
                25          25
                26          26
                27          27
                28          28
                29          29
                30          30
                31          31
                32          32
                33          33
                34          34
                35          35
                36          36
                37          37
                38          38
                39          39
                40          40
                41          41
                42          42
                43          43
                44          44
                45          45
                46          46
                47          47
                48          48
                49          49
                50          50
                51          51
                52          52
                53          53
                54          54
                55          55
                56          56
                57          57
                58          58
                59          59
                60          60
                61          61
                62          62
                63          63

----------------------------------------------------------------------------------------


 -----------------------------------------------------------------------------
|                                                                             |
|           W    W    AA    RRRRR   N    N  II  N    N   GGGG   !!!           |
|           W    W   A  A   R    R  NN   N  II  NN   N  G    G  !!!           |
|           W    W  A    A  R    R  N N  N  II  N N  N  G       !!!           |
|           W WW W  AAAAAA  RRRRR   N  N N  II  N  N N  G  GGG   !            |
|           WW  WW  A    A  R   R   N   NN  II  N   NN  G    G                |
|           W    W  A    A  R    R  N    N  II  N    N   GGGG   !!!           |
|                                                                             |
|     The requested file  could not be found or opened for reading            |
|     k-point information. Automatic k-point generation is used as a          |
|     fallback, which may lead to unwanted results.                           |
|                                                                             |
 -----------------------------------------------------------------------------



Automatic generation of k-mesh.
 Grid dimensions derived from KSPACING:
 generate k-points for:    2    2    4

 Generating k-lattice:

  Cartesian coordinates                     Fractional coordinates (reciprocal lattice)
     0.034426267  0.000000000  0.000000000     0.500000000  0.000000000  0.000000000
     0.000000000  0.034426267  0.000000000     0.000000000  0.500000000  0.000000000
     0.000000000  0.000000000  0.030955309     0.000000000  0.000000000  0.250000000

  Length of vectors
     0.034426267  0.034426267  0.030955309

  Shift w.r.t. Gamma in fractional coordinates (k-lattice)
     0.000000000  0.000000000  0.000000000

 
 Subroutine IBZKPT returns following result:
 ===========================================
 
 Found     12 irreducible k-points:
 
 Following reciprocal coordinates:
            Coordinates               Weight
  0.000000  0.000000  0.000000      1.000000
  0.500000  0.000000  0.000000      1.000000
  0.000000  0.500000  0.000000      1.000000
  0.500000  0.500000  0.000000      1.000000
  0.000000  0.000000  0.250000      2.000000
  0.500000  0.000000  0.250000      2.000000
  0.000000  0.500000  0.250000      2.000000
  0.500000  0.500000  0.250000      2.000000
  0.000000  0.000000  0.500000      1.000000
  0.500000  0.000000  0.500000      1.000000
  0.000000  0.500000  0.500000      1.000000
  0.500000  0.500000  0.500000      1.000000
 
 Following cartesian coordinates:
            Coordinates               Weight
  0.000000  0.000000  0.000000      1.000000
  0.034426  0.000000  0.000000      1.000000
  0.000000  0.034426  0.000000      1.000000
  0.034426  0.034426  0.000000      1.000000
  0.000000  0.000000  0.030955      2.000000
  0.034426  0.000000  0.030955      2.000000
  0.000000  0.034426  0.030955      2.000000
  0.034426  0.034426  0.030955      2.000000
  0.000000  0.000000  0.061911      1.000000
  0.034426  0.000000  0.061911      1.000000
  0.000000  0.034426  0.061911      1.000000
  0.034426  0.034426  0.061911      1.000000
 


--------------------------------------------------------------------------------------------------------




 Dimension of arrays:
   k-points           NKPTS =     12   k-points in BZ     NKDIM =     12   number of bands    NBANDS=    160
   number of dos      NEDOS =   2000   number of ions     NIONS =     63
   non local maximal  LDIM  =      4   non local SUM 2l+1 LMDIM =      8
   total plane-waves  NPLWV = ******
   max r-space proj   IRMAX =      1   max aug-charges    IRDMAX= 425567
   dimension x,y,z NGX =   168 NGY =  168 NGZ =   96
   dimension x,y,z NGXF=   336 NGYF=  336 NGZF=  192
   support grid    NGXF=   672 NGYF=  672 NGZF=  384
   ions per type =               1  62
   NGX,Y,Z   is equivalent  to a cutoff of  19.23, 19.23, 19.76 a.u.
   NGXF,Y,Z  is equivalent  to a cutoff of  38.46, 38.46, 39.52 a.u.

 SYSTEM =  a-Si SPC                                
 POSCAR =   H Si                                   

 Startparameter for this run:
   NWRITE =      2    write-flag & timer
   PREC   = accura    normal or accurate (medium, high low for compatibility)
   ISTART =      1    job   : 0-new  1-cont  2-samecut
   ICHARG =      1    charge: 1-file 2-atom 10-const
   ISPIN  =      1    spin polarized calculation?
   LNONCOLLINEAR =      F non collinear calculations
   LSORBIT =      F    spin-orbit coupling
   INIWAV =      1    electr: 0-lowe 1-rand  2-diag
   LASPH  =      T    aspherical Exc in radial PAW
 Electronic Relaxation 1
   ENCUT  = 1200.0 eV  88.20 Ry    9.39 a.u.  41.02 41.02 22.81*2*pi/ulx,y,z
   ENINI  = 1200.0     initial cutoff
   ENAUG  =  400.0 eV  augmentation charge cutoff
   NELM   =    150;   NELMIN=  2; NELMDL=  0     # of ELM steps 
   EDIFF  = 0.1E-05   stopping-criterion for ELM
   LREAL  =      F    real-space projection
   NLSPLINE    = F    spline interpolate recip. space projectors
   LCOMPAT=      F    compatible to vasp.4.4
   GGA_COMPAT  = T    GGA compatible to vasp.4.4-vasp.4.6
   LMAXPAW     = -100 max onsite density
   LMAXMIX     =    2 max onsite mixed and CHGCAR
   VOSKOWN=      0    Vosko Wilk Nusair interpolation
   ROPT   =    0.00000   0.00000
 Ionic relaxation
   EDIFFG = -.1E-01   stopping-criterion for IOM
   NSW    =      0    number of steps for IOM
   NBLOCK =      1;   KBLOCK =      1    inner block; outer block 
   IBRION =     -1    ionic relax: 0-MD 1-quasi-New 2-CG
   NFREE  =      0    steps in history (QN), initial steepest desc. (CG)
   ISIF   =      2    stress and relaxation
   IWAVPR =     10    prediction:  0-non 1-charg 2-wave 3-comb
   ISYM   =      1    0-nonsym 1-usesym 2-fastsym
   LCORR  =      T    Harris-Foulkes like correction to forces

   POTIM  = 0.5000    time-step for ionic-motion
   TEIN   =    0.0    initial temperature
   TEBEG  =    0.0;   TEEND  =   0.0 temperature during run
   SMASS  =  -3.00    Nose mass-parameter (am)
   estimated Nose-frequenzy (Omega)   =  0.10E-29 period in steps = 0.13E+47 mass=  -0.482E-26a.u.
   SCALEE = 1.0000    scale energy and forces
   NPACO  =    256;   APACO  = 10.0  distance and # of slots for P.C.
   PSTRESS=    0.0 pullay stress

  Mass of Ions in am
   POMASS =   1.00 28.09
  Ionic Valenz
   ZVAL   =   1.00  4.00
  Atomic Wigner-Seitz radii
   RWIGS  =  -1.00 -1.00
  virtual crystal weights 
   VCA    =   1.00  1.00
   NELECT =     249.0000    total number of electrons
   NUPDOWN=      -1.0000    fix difference up-down

 DOS related values:
   EMIN   =  10.00;   EMAX   =-10.00  energy-range for DOS
   EFERMI =   0.00;   METHOD = LEGACY      
   ISMEAR =     0;   SIGMA  =   0.10  broadening in eV -4-tet -1-fermi 0-gaus
   EFERMI_NEDOS =   21; number of points for ismear=-14 and -15

 Electronic relaxation 2 (details)
   IALGO  =     38    algorithm
   LDIAG  =      F    sub-space diagonalisation (order eigenvalues)
   LSUBROT=      F    optimize rotation matrix (better conditioning)
   TURBO    =      0    0=normal 1=particle mesh
   IRESTART =      0    0=no restart 2=restart with 2 vectors
   NREBOOT  =      0    no. of reboots
   NMIN     =      0    reboot dimension
   EREF     =   0.00    reference energy to select bands
   IMIX   =      4    mixing-type and parameters
     AMIX     =   0.40;   BMIX     =  1.00
     AMIX_MAG =   1.60;   BMIX_MAG =  1.00
     AMIN     =   0.10
     WC   =   100.;   INIMIX=   1;  MIXPRE=   1;  MAXMIX= -45

 Intra band minimization:
   WEIMIN = 0.0000     energy-eigenvalue tresh-hold
   EBREAK =  0.16E-08  absolut break condition
   DEPER  =   0.30     relativ break condition  

   TIME   =   0.40     timestep for ELM

  volume/ion in A,a.u.               =      27.04       182.48
  Fermi-wavevector in a.u.,A,eV,Ry     =   0.862355  1.629615 10.118065  0.743657
  Thomas-Fermi vector in A             =   1.980145

 Write flags
   LWAVE        =      F    write WAVECAR
   LDOWNSAMPLE  =      F    k-point downsampling of WAVECAR
   LCHARG       =      F    write CHGCAR
   LVTOT        =      F    write LOCPOT, total local potential
   LVHAR        =      F    write LOCPOT, Hartree potential only
   WRT_POTENTIAL= false  ! write potential to hdf5 file
   LELF         =      F    write electronic localiz. function (ELF)
   LORBIT       =     11    0 simple, 1 ext, 2 COOP (PROOUT), +10 PAW based schemes


 Python interface
   PLUGINS active      =      F    recompile with -DPLUGINS to activate

 Dipole corrections
   LMONO      =      F    monopole corrections only (constant potential shift)
   LDIPOL     =      F    correct potential (dipole corrections)
   IDIPOL     =      0    1-x, 2-y, 3-z, 4-all directions 
   EPSILON    =  1.0000000 bulk dielectric constant
   LVACPOTAV  =      F  vacuum potentials using an averaging scheme for the charge density
   VACPOTFLAT =  0.1000000 required flatness to determine vacuum potential

Coulomb truncation method
  LTRUNCATE          =      F  Coulomb kernel truncation to be used
  IDIMENSIONALITY    =      3  Dimensionality of cutoff (0 molecules / 2 surfaces)
  ISURFACE           =     -1  Direction of surface normal
  LCOARSEN           =      F  Coarsen the charge grid before padding, preferred


 Exchange correlation treatment:
   METAGGA = SCAN    functional components
   XC_C    = 1    coefficients multiplying the functional components
   LIBXC   =     F    Libxc                    
   VOSKOWN =     0    Vosko Wilk Nusair interpolation
   LHFCALC =     F    Hartree Fock is set to
   LHFONE  =     F    Hartree Fock one center treatment
   AEXX    =    0.0000 exact exchange contribution

 Parameters of functionals:
   SCAN:
     P1 =  0.000000E+00
     P2 =  0.000000E+00
     P3 =  0.000000E+00

 Accuracy and mixing parameters for tau-dependent meta-GGA functionals:
   LMAXTAU = 6
   LMIXTAU = T

 Van der Waals corrections
   IVDW    =     0    specifies the selected vdW correction

 Linear response parameters
   LEPSILON=     F    determine dielectric tensor
   LRPA    =     F    only Hartree local field effects (RPA)
   LNABLA  =     F    use nabla operator in PAW spheres
   LVEL    =     F    velocity operator in full k-point grid
   CSHIFT  =0.1000    complex shift for real part using Kramers Kronig
   OMEGAMAX=  -1.0    maximum frequency
   DEG_THRESHOLD= 0.2000000E-02 threshold for treating states as degnerate
   RTIME   =   -0.100 relaxation time in fs
  (WPLASMAI=    0.000 imaginary part of plasma frequency in eV, 0.658/RTIME)
   DFIELD  = 0.0000000 0.0000000 0.0000000 field for delta impulse in time

  Optional k-point grid parameters
   LKPOINTS_OPT  =     F    use optional k-point grid
   KPOINTS_OPT_MODE=     1    mode for optional k-point grid

 Orbital magnetization related:
   ORBITALMAG=     F  switch on orbital magnetization
   LCHIMAG   =     F  perturbation theory with respect to B field
   DQ        =  0.001000  dq finite difference perturbation B field
   LLRAUG    =     F  two centre corrections for induced B field
   LBONE     =     F  B-component reconstruction in AE one-centre
   LVGVCALC  =     T  calculate vGv susceptibility
   LVGVAPPL  =     F  apply vGv susceptibility instead of pGv for G=0

 Random number generation:
   RANDOM_GENERATOR = DEFAULT
   PCG_SEED         = not used


--------------------------------------------------------------------------------------------------------


 Static calculation
 charge density and potential will be updated during run
 non-spin polarized calculation
 Variant of blocked Davidson
 perform Loewdin sub-space diagonalisation
    ordering is kept fixed
    before iterative eigenvector-optimisation
 modified Broyden-mixing scheme, WC =      100.0
 initial mixing is a Kerker type mixing with AMIX =  0.4000 and BMIX =      1.0000
 Hartree-type preconditioning will be used
 using additional bands           35
 reciprocal scheme for non local part
 use partial core corrections
 calculate Harris-corrections to forces   (improved forces if not selfconsistent)
 use gradient corrections 
 use of overlap-Matrix (Vanderbilt PP)
 Gauss-broadening in eV      SIGMA  =   0.10


--------------------------------------------------------------------------------------------------------


  energy-cutoff  :     1200.00
  volume of cell :     1703.59
      direct lattice vectors                 reciprocal lattice vectors
    14.523793698  0.000000000  0.000000000     0.068852534  0.000000000  0.000000000
     0.000000000 14.523793698  0.000000000     0.000000000  0.068852534  0.000000000
     0.000000000  0.000000000  8.076159205     0.000000000  0.000000000  0.123821234

  length of vectors
    14.523793698 14.523793698  8.076159205     0.068852534  0.068852534  0.123821234



 old parameters found on file WAVECAR:
  energy-cutoff  :     1200.00
  volume of cell :     1703.59
      direct lattice vectors                 reciprocal lattice vectors
    14.523793698  0.000000000  0.000000000     0.068852534  0.000000000  0.000000000
     0.000000000 14.523793698  0.000000000     0.000000000  0.068852534  0.000000000
     0.000000000  0.000000000  8.076159205     0.000000000  0.000000000  0.123821234

  length of vectors


 k-points in units of 2pi/SCALE and weight: read from INCAR                         
   0.00000000  0.00000000  0.00000000       0.062
   0.03442627  0.00000000  0.00000000       0.062
   0.00000000  0.03442627  0.00000000       0.062
   0.03442627  0.03442627  0.00000000       0.062
   0.00000000  0.00000000  0.03095531       0.125
   0.03442627  0.00000000  0.03095531       0.125
   0.00000000  0.03442627  0.03095531       0.125
   0.03442627  0.03442627  0.03095531       0.125
   0.00000000  0.00000000  0.06191062       0.062
   0.03442627  0.00000000  0.06191062       0.062
   0.00000000  0.03442627  0.06191062       0.062
   0.03442627  0.03442627  0.06191062       0.062

 k-points in reciprocal lattice and weights: read from INCAR                         
   0.00000000  0.00000000  0.00000000       0.062
   0.50000000  0.00000000  0.00000000       0.062
   0.00000000  0.50000000  0.00000000       0.062
   0.50000000  0.50000000  0.00000000       0.062
   0.00000000  0.00000000  0.25000000       0.125
   0.50000000  0.00000000  0.25000000       0.125
   0.00000000  0.50000000  0.25000000       0.125
   0.50000000  0.50000000  0.25000000       0.125
   0.00000000  0.00000000  0.50000000       0.062
   0.50000000  0.00000000  0.50000000       0.062
   0.00000000  0.50000000  0.50000000       0.062
   0.50000000  0.50000000  0.50000000       0.062

 position of ions in fractional coordinates (direct lattice) 
   0.41700537  0.74147982  0.69318099
   0.12986276  0.76701034  0.45980891
   0.21886637  0.13355670  0.71108554
   0.95986629  0.75295754  0.46918466
   0.92791872  0.67440437  0.71579074
   0.28393821  0.22995025  0.50224617
   0.98976895  0.52488352  0.74064538
   0.47043976  0.33831381  0.84704497
   0.74693295  0.94884989  0.49628294
   0.72454899  0.04937911  0.27025965
   0.92652101  0.30989975  0.55517479
   0.71265815  0.20224812  0.36617034
   0.16748103  0.32800246  0.36717577
   0.94354136  0.20704921  0.20819426
   0.12315171  0.63184456  0.31014000
   0.65120796  0.19325805  0.65146190
   0.00997522  0.28126054  0.96902869
   0.96986368  0.45943850  0.48917560
   0.13190837  0.47819669  0.45425182
   0.38788970  0.29398930  0.09983211
   0.62578416  0.28633084  0.87997027
   0.93253184  0.51339272  0.23108138
   0.15306951  0.52006798  0.73170796
   0.04689119  0.22370946  0.44092122
   0.16184614  0.67351962  0.86261796
   0.77019133  0.35390134  0.91688262
   0.02315153  0.43734097  0.02442832
   0.59777839  0.24017623  0.16747689
   0.37730913  0.83827960  0.67433416
   0.18298800  0.48095629  0.01348450
   0.15192312  0.21864673  0.94104386
   0.01305093  0.73879458  0.92972288
   0.82749041  0.30213800  0.31555594
   0.57633220  0.07831631  0.15641098
   0.21071905  0.10522182  0.11447112
   0.11733229  0.01470070  0.30518467
   0.38546058  0.90282885  0.39759370
   0.41469950  0.83949829  0.14018173
   0.97252827  0.97270729  0.23746312
   0.21708584  0.78869889  0.69931138
   0.86231602  0.07553398  0.13032309
   0.48994637  0.33236633  0.28979245
   0.27185390  0.01944396  0.88474482
   0.21152187  0.88792916  0.33193996
   0.78208905  0.44496708  0.16950879
   0.88056194  0.25108936  0.80741598
   0.55069634  0.03016980  0.86018859
   0.08765616  0.08163432  0.55648234
   0.02813948  0.90343475  0.95021777
   0.24061620  0.63720955  0.11374949
   0.71284406  0.04072352  0.73932049
   0.98211943  0.67890940  0.21005653
   0.43114631  0.28162201  0.58010001
   0.42157580  0.93093446  0.89040964
   0.33768037  0.15916503  0.25903526
   0.44686327  0.06317144  0.34838342
   0.97316172  0.00014716  0.71443490
   0.26399989  0.80020415  0.09443301
   0.22866890  0.33420538  0.08565668
   0.91458198  0.91409313  0.48075328
   0.85951372  0.08551278  0.84545758
   0.18494066  0.89298983  0.90401140
   0.50268409  0.13658415  0.59885521

 position of ions in cartesian coordinates  (Angst):
   6.05650000 10.76910000  5.59824000
   1.88610000 11.13990000  3.71349000
   3.17877000  1.93975000  5.74284000
  13.94090000 10.93580000  3.78921000
  13.47690000  9.79491000  5.78084000
   4.12386000  3.33975000  4.05622000
  14.37520000  7.62330000  5.98157000
   6.83257000  4.91360000  6.84087000
  10.84830000 13.78090000  4.00806000
  10.52320000  0.71717200  2.18266000
  13.45660000  4.50092000  4.48368000
  10.35050000  2.93741000  2.95725000
   2.43246000  4.76384000  2.96537000
  13.70380000  3.00714000  1.68141000
   1.78863000  9.17678000  2.50474000
   9.45801000  2.80684000  5.26131000
   0.14487800  4.08497000  7.82603000
  14.08610000  6.67279000  3.95066000
   1.91581000  6.94523000  3.66861000
   5.63363000  4.26984000  0.80626000
   9.08876000  4.15861000  7.10678000
  13.54390000  7.45641000  1.86625000
   2.22315000  7.55336000  5.90939000
   0.68103800  3.24911000  3.56095000
   2.35062000  9.78206000  6.96664000
  11.18610000  5.13999000  7.40489000
   0.33624800  6.35185000  0.19728700
   8.68201000  3.48827000  1.35257000
   5.47996000 12.17500000  5.44603000
   2.65768000  6.98531000  0.10890300
   2.20650000  3.17558000  7.60002000
   0.18954900 10.73010000  7.50859000
  12.01830000  4.38819000  2.54848000
   8.37053000  1.13745000  1.26320000
   3.06044000  1.52822000  0.92448700
   1.70411000  0.21351000  2.46472000
   5.59835000 13.11250000  3.21103000
   6.02301000 12.19270000  1.13213000
  14.12480000 14.12740000  1.91779000
   3.15291000 11.45490000  5.64775000
  12.52410000  1.09704000  1.05251000
   7.11588000  4.82722000  2.34041000
   3.94835000  0.28240000  7.14534000
   3.07210000 12.89610000  2.68080000
  11.35890000  6.46261000  1.36898000
  12.78910000  3.64677000  6.52082000
   7.99820000  0.43818000  6.94702000
   1.27310000  1.18564000  4.49424000
   0.40869200 13.12130000  7.67411000
   3.49466000  9.25470000  0.91865900
  10.35320000  0.59146000  5.97087000
  14.26410000  9.86034000  1.69645000
   6.26188000  4.09022000  4.68498000
   6.12288000 13.52070000  7.19109000
   4.90440000  2.31168000  2.09201000
   6.49015000  0.91748900  2.81360000
  14.13400000  0.00213734  5.76989000
   3.83428000 11.62200000  0.76265600
   3.32114000  4.85393000  0.69177700
  13.28320000 13.27610000  3.88264000
  12.48340000  1.24197000  6.82805000
   2.68604000 12.96960000  7.30094000
   7.30088000  1.98372000  4.83645000



--------------------------------------------------------------------------------------------------------


 k-point     1 :   0.0000 0.0000 0.0000  plane waves:  160773
 k-point     2 :   0.5000 0.0000 0.0000  plane waves:  160730
 k-point     3 :   0.0000 0.5000 0.0000  plane waves:  160730
 k-point     4 :   0.5000 0.5000 0.0000  plane waves:  160756
 k-point     5 :   0.0000 0.0000 0.2500  plane waves:  160662
 k-point     6 :   0.5000 0.0000 0.2500  plane waves:  160796
 k-point     7 :   0.0000 0.5000 0.2500  plane waves:  160796
 k-point     8 :   0.5000 0.5000 0.2500  plane waves:  160840
 k-point     9 :   0.0000 0.0000 0.5000  plane waves:  160838
 k-point    10 :   0.5000 0.0000 0.5000  plane waves:  160844
 k-point    11 :   0.0000 0.5000 0.5000  plane waves:  160844
 k-point    12 :   0.5000 0.5000 0.5000  plane waves:  160880

 maximum and minimum number of plane-waves per node :     10138     9962

 maximum number of plane-waves:    160880
 maximum index in each direction: 
   IXMAX=   41   IYMAX=   41   IZMAX=   22
   IXMIN=  -41   IYMIN=  -41   IZMIN=  -23


 parallel 3D FFT for wavefunctions:
    minimum data exchange during FFTs selected (reduces bandwidth)
 parallel 3D FFT for charge:
    minimum data exchange during FFTs selected (reduces bandwidth)


 total amount of memory used by VASP MPI-rank0   152613. kBytes
=======================================================================

   base                                    :      30000. kBytes
   nonl-proj                               :      25663. kBytes
   fftplans                                :      32793. kBytes
   grid                                    :      25285. kBytes
   one-center                              :         12. kBytes
   wavefun                                 :      38860. kBytes

     INWAV:  cpu time      6.8072: real time      6.8097
 Broyden mixing: mesh for mixing (old mesh)
   NGX = 83   NGY = 83   NGZ = 45
  (NGX  =336   NGY  =336   NGZ  =192)
  gives a total of 310005 points

 initial charge density was supplied:
 number of electron     248.9999999 magnetization 
 keeping initial charge density in first step


--------------------------------------------------------------------------------------------------------


 Maximum index for augmentation-charges        11846 (set IRDMAX)


--------------------------------------------------------------------------------------------------------


 First call to EWALD:  gamma=   0.148
 Maximum number of real-space cells   2x   2x   4
 Maximum number of reciprocal cells   3x   3x   2

    FEWALD:  cpu time      0.0120: real time      0.0121


--------------------------------------- Ionic step        1  -------------------------------------------




--------------------------------------- Iteration      1(   1)  ---------------------------------------


    POTLOK:  cpu time      0.5802: real time      0.5810
    SETDIJ:  cpu time      0.9891: real time      0.9900
    EDDIAG:  cpu time     15.0186: real time     15.0306
     EDDAV:  cpu time     67.6375: real time     67.6953
       DOS:  cpu time      0.0110: real time      0.0114
    CHARGE:  cpu time      5.9130: real time      5.9175
    MIXING:  cpu time      0.0207: real time      0.0210
    --------------------------------------------
      LOOP:  cpu time     90.1703: real time     90.2468

 eigenvalue-minimisations  :  3840
 total energy-change (2. order) :-0.6364220E+03  (-0.7050417E+00)
 number of electron     248.9999999 magnetization 
 augmentation part      -13.9651040 magnetization 

 Broyden mixing:
  rms(total) = 0.97790E+00    rms(broyden)= 0.51463E+02
  rms(prec ) = 0.11084E+01
  weight for this iteration     100.00
  WARNING: grid for Broyden might be to small

 Free energy of the ion-electron system (eV)
  ---------------------------------------------------
  alpha Z        PSCENC =        76.62024278
  Ewald energy   TEWEN  =     -2389.90339213
  -Hartree energ DENC   =     -4454.54539658
  -exchange      EXHF   =         0.00000000
  -V(xc)+E(xc)   XCENC  =      -302.36310755
  PAW double counting   =     22818.90188673   -22200.60947247
  entropy T*S    EENTRO =        -0.12820909
  eigenvalues    EBANDS =      -587.02670778
  atomic energy  EATOM  =      6402.63218022
  Solvation  Ediel_sol  =         0.00000000
  ---------------------------------------------------
  free energy    TOTEN  =      -636.42197587 eV

  energy without entropy =     -636.29376678  energy(sigma->0) =     -636.35787132


--------------------------------------------------------------------------------------------------------




--------------------------------------- Iteration      1(   2)  ---------------------------------------


    POTLOK:  cpu time      0.5694: real time      0.5927
    SETDIJ:  cpu time      0.9926: real time      0.9931
    EDDIAG:  cpu time     15.1781: real time     15.1901
     EDDAV:  cpu time     68.0880: real time     68.1431
       DOS:  cpu time      0.0035: real time      0.0035
    CHARGE:  cpu time      5.6381: real time      5.6431
    MIXING:  cpu time      0.0135: real time      0.0137
    --------------------------------------------
      LOOP:  cpu time     90.4831: real time     90.5792

 eigenvalue-minimisations  :  3864
 total energy-change (2. order) : 0.4443223E+02  (-0.6575270E+00)
 number of electron     248.9999999 magnetization 
 augmentation part      -13.9069119 magnetization 

 Broyden mixing:
  rms(total) = 0.65754E+00    rms(broyden)= 0.29729E+02
  rms(prec ) = 0.72450E+00
  weight for this iteration     100.00
  WARNING: grid for Broyden might be to small

 eigenvalues of (default mixing * dielectric matrix)
  average eigenvalue GAMMA=   0.6339
  0.6339

 Free energy of the ion-electron system (eV)
  ---------------------------------------------------
  alpha Z        PSCENC =        76.62024278
  Ewald energy   TEWEN  =     -2389.90339213
  -Hartree energ DENC   =     -4448.03449065
  -exchange      EXHF   =         0.00000000
  -V(xc)+E(xc)   XCENC  =      -295.69307493
  PAW double counting   =     27355.43047310   -26736.97620014
  entropy T*S    EENTRO =        -0.12134295
  eigenvalues    EBANDS =      -555.94414010
  atomic energy  EATOM  =      6402.63218022
  Solvation  Ediel_sol  =         0.00000000
  ---------------------------------------------------
  free energy    TOTEN  =      -591.98974480 eV

  energy without entropy =     -591.86840185  energy(sigma->0) =     -591.92907333


--------------------------------------------------------------------------------------------------------




--------------------------------------- Iteration      1(   3)  ---------------------------------------


    POTLOK:  cpu time      0.5693: real time      0.5925
    SETDIJ:  cpu time      0.9823: real time      0.9826
    EDDIAG:  cpu time     15.1653: real time     15.1768
     EDDAV:  cpu time     67.5766: real time     67.6328
       DOS:  cpu time      0.0036: real time      0.0036
    CHARGE:  cpu time      5.7524: real time      5.7571
    MIXING:  cpu time      0.0118: real time      0.0118
    --------------------------------------------
      LOOP:  cpu time     90.0613: real time     90.1572

 eigenvalue-minimisations  :  3840
 total energy-change (2. order) :-0.2177968E+01  (-0.5393116E+00)
 number of electron     248.9999999 magnetization 
 augmentation part      -13.8599573 magnetization 

 Broyden mixing:
  rms(total) = 0.42528E+00    rms(broyden)= 0.14934E+02
  rms(prec ) = 0.45403E+00
  weight for this iteration     100.00
  WARNING: grid for Broyden might be to small

 eigenvalues of (default mixing * dielectric matrix)
  average eigenvalue GAMMA=   0.6653
  0.7151  0.6154

 Free energy of the ion-electron system (eV)
  ---------------------------------------------------
  alpha Z        PSCENC =        76.62024278
  Ewald energy   TEWEN  =     -2389.90339213
  -Hartree energ DENC   =     -4449.64967460
  -exchange      EXHF   =         0.00000000
  -V(xc)+E(xc)   XCENC  =      -299.12534882
  PAW double counting   =     30525.25582926   -29906.85670320
  entropy T*S    EENTRO =        -0.12431175
  eigenvalues    EBANDS =      -553.01653410
  atomic energy  EATOM  =      6402.63218022
  Solvation  Ediel_sol  =         0.00000000
  ---------------------------------------------------
  free energy    TOTEN  =      -594.16771235 eV

  energy without entropy =     -594.04340060  energy(sigma->0) =     -594.10555647


--------------------------------------------------------------------------------------------------------




--------------------------------------- Iteration      1(   4)  ---------------------------------------


    POTLOK:  cpu time      0.5647: real time      0.5955
    SETDIJ:  cpu time      0.9835: real time      0.9840
    EDDIAG:  cpu time     15.1702: real time     15.1826
     EDDAV:  cpu time     69.6483: real time     69.7090
       DOS:  cpu time      0.0042: real time      0.0042
    CHARGE:  cpu time      5.8012: real time      5.8053
    MIXING:  cpu time      0.0119: real time      0.0119
    --------------------------------------------
      LOOP:  cpu time     92.1841: real time     92.2926

 eigenvalue-minimisations  :  4048
 total energy-change (2. order) :-0.2821281E+00  (-0.6147107E-01)
 number of electron     248.9999999 magnetization 
 augmentation part      -13.8499107 magnetization 

 Broyden mixing:
  rms(total) = 0.35496E-01    rms(broyden)= 0.16494E+01
  rms(prec ) = 0.52435E-01
  weight for this iteration     100.00
  WARNING: grid for Broyden might be to small

 eigenvalues of (default mixing * dielectric matrix)
  average eigenvalue GAMMA=   0.9228
  1.4717  0.6776  0.6190

 Free energy of the ion-electron system (eV)
  ---------------------------------------------------
  alpha Z        PSCENC =        76.62024278
  Ewald energy   TEWEN  =     -2389.90339213
  -Hartree energ DENC   =     -4453.05269619
  -exchange      EXHF   =         0.00000000
  -V(xc)+E(xc)   XCENC  =      -299.31992681
  PAW double counting   =     36641.75362013   -36023.40068278
  entropy T*S    EENTRO =        -0.12328782
  eigenvalues    EBANDS =      -549.65589787
  atomic energy  EATOM  =      6402.63218022
  Solvation  Ediel_sol  =         0.00000000
  ---------------------------------------------------
  free energy    TOTEN  =      -594.44984047 eV

  energy without entropy =     -594.32655264  energy(sigma->0) =     -594.38819655


--------------------------------------------------------------------------------------------------------




--------------------------------------- Iteration      1(   5)  ---------------------------------------


    POTLOK:  cpu time      0.5667: real time      0.5967
    SETDIJ:  cpu time      0.9867: real time      0.9873
    EDDIAG:  cpu time     15.1777: real time     15.1901
     EDDAV:  cpu time     77.3016: real time     77.3688
       DOS:  cpu time      0.0036: real time      0.0036
    CHARGE:  cpu time      5.9111: real time      5.9170
    MIXING:  cpu time      0.0115: real time      0.0115
    --------------------------------------------
      LOOP:  cpu time     99.9591: real time    100.0750

 eigenvalue-minimisations  :  4800
 total energy-change (2. order) :-0.2596481E-01  (-0.4755750E-02)
 number of electron     248.9999999 magnetization 
 augmentation part      -13.8514745 magnetization 

 Broyden mixing:
  rms(total) = 0.28444E-01    rms(broyden)= 0.49308E+00
  rms(prec ) = 0.46082E-01
  weight for this iteration     100.00
  WARNING: grid for Broyden might be to small

 eigenvalues of (default mixing * dielectric matrix)
  average eigenvalue GAMMA=   1.1435
  2.4336  0.8904  0.6194  0.6307

 Free energy of the ion-electron system (eV)
  ---------------------------------------------------
  alpha Z        PSCENC =        76.62024278
  Ewald energy   TEWEN  =     -2389.90339213
  -Hartree energ DENC   =     -4453.16433946
  -exchange      EXHF   =         0.00000000
  -V(xc)+E(xc)   XCENC  =      -300.13239904
  PAW double counting   =     36386.89629311   -35768.52349966
  entropy T*S    EENTRO =        -0.12522276
  eigenvalues    EBANDS =      -548.77566833
  atomic energy  EATOM  =      6402.63218022
  Solvation  Ediel_sol  =         0.00000000
  ---------------------------------------------------
  free energy    TOTEN  =      -594.47580528 eV

  energy without entropy =     -594.35058251  energy(sigma->0) =     -594.41319389


--------------------------------------------------------------------------------------------------------




--------------------------------------- Iteration      1(   6)  ---------------------------------------


    POTLOK:  cpu time      0.5676: real time      0.5950
    SETDIJ:  cpu time      0.9789: real time      0.9798
    EDDIAG:  cpu time     15.2064: real time     15.2187
     EDDAV:  cpu time     71.7166: real time     71.7806
       DOS:  cpu time      0.0034: real time      0.0034
    CHARGE:  cpu time      5.9443: real time      5.9494
    MIXING:  cpu time      0.0123: real time      0.0123
    --------------------------------------------
      LOOP:  cpu time     94.4294: real time     94.5391

 eigenvalue-minimisations  :  4264
 total energy-change (2. order) :-0.1894481E-02  (-0.1207962E-02)
 number of electron     248.9999999 magnetization 
 augmentation part      -13.8519916 magnetization 

 Broyden mixing:
  rms(total) = 0.17893E-01    rms(broyden)= 0.20488E+00
  rms(prec ) = 0.22067E-01
  weight for this iteration     100.00
  WARNING: grid for Broyden might be to small

 eigenvalues of (default mixing * dielectric matrix)
  average eigenvalue GAMMA=   1.0610
  2.5854  0.9688  0.6236  0.6236  0.5036

 Free energy of the ion-electron system (eV)
  ---------------------------------------------------
  alpha Z        PSCENC =        76.62024278
  Ewald energy   TEWEN  =     -2389.90339213
  -Hartree energ DENC   =     -4453.21886853
  -exchange      EXHF   =         0.00000000
  -V(xc)+E(xc)   XCENC  =      -300.36308195
  PAW double counting   =     36331.72453389   -35713.34459498
  entropy T*S    EENTRO =        -0.12411160
  eigenvalues    EBANDS =      -548.50060744
  atomic energy  EATOM  =      6402.63218022
  Solvation  Ediel_sol  =         0.00000000
  ---------------------------------------------------
  free energy    TOTEN  =      -594.47769976 eV

  energy without entropy =     -594.35358815  energy(sigma->0) =     -594.41564396


--------------------------------------------------------------------------------------------------------




--------------------------------------- Iteration      1(   7)  ---------------------------------------


    POTLOK:  cpu time      0.6031: real time      0.6292
    SETDIJ:  cpu time      0.9845: real time      0.9849
    EDDIAG:  cpu time     15.1561: real time     15.1673
     EDDAV:  cpu time     70.6640: real time     70.7249
       DOS:  cpu time      0.0045: real time      0.0045
    CHARGE:  cpu time      5.7049: real time      5.7093
    MIXING:  cpu time      0.0125: real time      0.0126
    --------------------------------------------
      LOOP:  cpu time     93.1296: real time     93.2325

 eigenvalue-minimisations  :  4112
 total energy-change (2. order) :-0.8431227E-03  (-0.4277266E-03)
 number of electron     248.9999999 magnetization 
 augmentation part      -13.8514313 magnetization 

 Broyden mixing:
  rms(total) = 0.11350E-01    rms(broyden)= 0.95598E-01
  rms(prec ) = 0.13913E-01
  weight for this iteration     100.00
  WARNING: grid for Broyden might be to small

 eigenvalues of (default mixing * dielectric matrix)
  average eigenvalue GAMMA=   1.0432
  2.5709  1.1195  0.8685  0.6350  0.6350  0.4306

 Free energy of the ion-electron system (eV)
  ---------------------------------------------------
  alpha Z        PSCENC =        76.62024278
  Ewald energy   TEWEN  =     -2389.90339213
  -Hartree energ DENC   =     -4453.41061481
  -exchange      EXHF   =         0.00000000
  -V(xc)+E(xc)   XCENC  =      -300.36770479
  PAW double counting   =     36317.19350421   -35698.80667945
  entropy T*S    EENTRO =        -0.12390594
  eigenvalues    EBANDS =      -548.31217297
  atomic energy  EATOM  =      6402.63218022
  Solvation  Ediel_sol  =         0.00000000
  ---------------------------------------------------
  free energy    TOTEN  =      -594.47854288 eV

  energy without entropy =     -594.35463694  energy(sigma->0) =     -594.41658991


--------------------------------------------------------------------------------------------------------




--------------------------------------- Iteration      1(   8)  ---------------------------------------


    POTLOK:  cpu time      0.5725: real time      0.5945
    SETDIJ:  cpu time      0.9831: real time      0.9835
    EDDIAG:  cpu time     15.0926: real time     15.1048
     EDDAV:  cpu time     72.0301: real time     72.0922
       DOS:  cpu time      0.0034: real time      0.0034
    CHARGE:  cpu time      5.6589: real time      5.6635
    MIXING:  cpu time      0.0121: real time      0.0121
    --------------------------------------------
      LOOP:  cpu time     94.3527: real time     94.4540

 eigenvalue-minimisations  :  4288
 total energy-change (2. order) :-0.5133287E-03  (-0.1384308E-03)
 number of electron     248.9999999 magnetization 
 augmentation part      -13.8507052 magnetization 

 Broyden mixing:
  rms(total) = 0.51914E-02    rms(broyden)= 0.25182E-01
  rms(prec ) = 0.70741E-02
  weight for this iteration     100.00
  WARNING: grid for Broyden might be to small

 eigenvalues of (default mixing * dielectric matrix)
  average eigenvalue GAMMA=   1.0190
  2.5482  1.4122  0.9291  0.6551  0.6289  0.5246  0.4348

 Free energy of the ion-electron system (eV)
  ---------------------------------------------------
  alpha Z        PSCENC =        76.62024278
  Ewald energy   TEWEN  =     -2389.90339213
  -Hartree energ DENC   =     -4453.50259035
  -exchange      EXHF   =         0.00000000
  -V(xc)+E(xc)   XCENC  =      -300.31535936
  PAW double counting   =     36323.20786233   -35704.81453990
  entropy T*S    EENTRO =        -0.12421460
  eigenvalues    EBANDS =      -548.27924519
  atomic energy  EATOM  =      6402.63218022
  Solvation  Ediel_sol  =         0.00000000
  ---------------------------------------------------
  free energy    TOTEN  =      -594.47905621 eV

  energy without entropy =     -594.35484160  energy(sigma->0) =     -594.41694891


--------------------------------------------------------------------------------------------------------




--------------------------------------- Iteration      1(   9)  ---------------------------------------


    POTLOK:  cpu time      0.5665: real time      0.5919
    SETDIJ:  cpu time      0.9820: real time      0.9832
    EDDIAG:  cpu time     15.1163: real time     15.1289
     EDDAV:  cpu time     70.2323: real time     70.2937
       DOS:  cpu time      0.0035: real time      0.0035
    CHARGE:  cpu time      5.7558: real time      5.7599
    MIXING:  cpu time      0.0119: real time      0.0129
    --------------------------------------------
      LOOP:  cpu time     92.6685: real time     92.7744

 eigenvalue-minimisations  :  4120
 total energy-change (2. order) :-0.2222815E-03  (-0.6211711E-04)
 number of electron     248.9999999 magnetization 
 augmentation part      -13.8504603 magnetization 

 Broyden mixing:
  rms(total) = 0.15797E-02    rms(broyden)= 0.53129E-01
  rms(prec ) = 0.24128E-02
  weight for this iteration     100.00
  WARNING: grid for Broyden might be to small

 eigenvalues of (default mixing * dielectric matrix)
  average eigenvalue GAMMA=   1.0866
  2.5706  2.0721  1.0098  0.8400  0.6431  0.6320  0.5081  0.4173

 Free energy of the ion-electron system (eV)
  ---------------------------------------------------
  alpha Z        PSCENC =        76.62024278
  Ewald energy   TEWEN  =     -2389.90339213
  -Hartree energ DENC   =     -4453.49697365
  -exchange      EXHF   =         0.00000000
  -V(xc)+E(xc)   XCENC  =      -300.29275523
  PAW double counting   =     36336.31182649   -35717.91459335
  entropy T*S    EENTRO =        -0.12414384
  eigenvalues    EBANDS =      -548.31166979
  atomic energy  EATOM  =      6402.63218022
  Solvation  Ediel_sol  =         0.00000000
  ---------------------------------------------------
  free energy    TOTEN  =      -594.47927849 eV

  energy without entropy =     -594.35513465  energy(sigma->0) =     -594.41720657


--------------------------------------------------------------------------------------------------------




--------------------------------------- Iteration      1(  10)  ---------------------------------------


    POTLOK:  cpu time      0.5699: real time      0.5927
    SETDIJ:  cpu time      0.9852: real time      0.9860
    EDDIAG:  cpu time     15.0883: real time     15.0999
     EDDAV:  cpu time     70.0806: real time     70.1421
       DOS:  cpu time      0.0034: real time      0.0034
    CHARGE:  cpu time      5.7663: real time      5.7713
    MIXING:  cpu time      0.0123: real time      0.0123
    --------------------------------------------
      LOOP:  cpu time     92.5058: real time     92.6076

 eigenvalue-minimisations  :  4104
 total energy-change (2. order) :-0.4483285E-04  (-0.2712942E-04)
 number of electron     248.9999999 magnetization 
 augmentation part      -13.8505362 magnetization 

 Broyden mixing:
  rms(total) = 0.98826E-03    rms(broyden)= 0.14610E-01
  rms(prec ) = 0.16503E-02
  weight for this iteration     100.00
  WARNING: grid for Broyden might be to small

 eigenvalues of (default mixing * dielectric matrix)
  average eigenvalue GAMMA=   1.1365
  2.7417  2.5998  1.0553  0.9528  0.7006  0.6188  0.6188  0.5301  0.4105

 Free energy of the ion-electron system (eV)
  ---------------------------------------------------
  alpha Z        PSCENC =        76.62024278
  Ewald energy   TEWEN  =     -2389.90339213
  -Hartree energ DENC   =     -4453.43335663
  -exchange      EXHF   =         0.00000000
  -V(xc)+E(xc)   XCENC  =      -300.30544252
  PAW double counting   =     36340.01628194   -35721.61811526
  entropy T*S    EENTRO =        -0.12408757
  eigenvalues    EBANDS =      -548.36363415
  atomic energy  EATOM  =      6402.63218022
  Solvation  Ediel_sol  =         0.00000000
  ---------------------------------------------------
  free energy    TOTEN  =      -594.47932332 eV

  energy without entropy =     -594.35523575  energy(sigma->0) =     -594.41727954


--------------------------------------------------------------------------------------------------------




--------------------------------------- Iteration      1(  11)  ---------------------------------------


    POTLOK:  cpu time      0.5663: real time      0.5908
    SETDIJ:  cpu time      0.9822: real time      0.9826
    EDDIAG:  cpu time     15.1545: real time     15.1674
     EDDAV:  cpu time     71.0938: real time     71.1551
       DOS:  cpu time      0.0037: real time      0.0037
    CHARGE:  cpu time      5.7710: real time      5.7763
    MIXING:  cpu time      0.0131: real time      0.0132
    --------------------------------------------
      LOOP:  cpu time     93.5847: real time     93.6891

 eigenvalue-minimisations  :  4192
 total energy-change (2. order) :-0.1002223E-03  (-0.9208495E-05)
 number of electron     248.9999999 magnetization 
 augmentation part      -13.8505475 magnetization 

 Broyden mixing:
  rms(total) = 0.63842E-03    rms(broyden)= 0.65728E-02
  rms(prec ) = 0.12035E-02
  weight for this iteration     100.00
  WARNING: grid for Broyden might be to small

 eigenvalues of (default mixing * dielectric matrix)
  average eigenvalue GAMMA=   1.1596
  3.1121  2.5861  1.2357  1.0468  0.8264  0.4120  0.6666  0.6257  0.5854  0.4993

 Free energy of the ion-electron system (eV)
  ---------------------------------------------------
  alpha Z        PSCENC =        76.62024278
  Ewald energy   TEWEN  =     -2389.90339213
  -Hartree energ DENC   =     -4453.37168368
  -exchange      EXHF   =         0.00000000
  -V(xc)+E(xc)   XCENC  =      -300.31094013
  PAW double counting   =     36338.83998448   -35720.44128489
  entropy T*S    EENTRO =        -0.12412429
  eigenvalues    EBANDS =      -548.42040592
  atomic energy  EATOM  =      6402.63218022
  Solvation  Ediel_sol  =         0.00000000
  ---------------------------------------------------
  free energy    TOTEN  =      -594.47942354 eV

  energy without entropy =     -594.35529926  energy(sigma->0) =     -594.41736140


--------------------------------------------------------------------------------------------------------




--------------------------------------- Iteration      1(  12)  ---------------------------------------


    POTLOK:  cpu time      0.5672: real time      0.5945
    SETDIJ:  cpu time      0.9819: real time      0.9831
    EDDIAG:  cpu time     15.1062: real time     15.1183
     EDDAV:  cpu time     69.6858: real time     69.7455
       DOS:  cpu time      0.0038: real time      0.0038
    CHARGE:  cpu time      5.7391: real time      5.7445
    MIXING:  cpu time      0.0132: real time      0.0132
    --------------------------------------------
      LOOP:  cpu time     92.0971: real time     92.2029

 eigenvalue-minimisations  :  4048
 total energy-change (2. order) :-0.8616118E-04  (-0.6425943E-05)
 number of electron     248.9999999 magnetization 
 augmentation part      -13.8505831 magnetization 

 Broyden mixing:
  rms(total) = 0.47069E-03    rms(broyden)= 0.38056E-02
  rms(prec ) = 0.95112E-03
  weight for this iteration     100.00
  WARNING: grid for Broyden might be to small

 eigenvalues of (default mixing * dielectric matrix)
  average eigenvalue GAMMA=   1.1391
  3.2573  2.5999  1.4844  1.0364  0.9086  0.6807  0.6315  0.5900  0.5326  0.4045
  0.4045

 Free energy of the ion-electron system (eV)
  ---------------------------------------------------
  alpha Z        PSCENC =        76.62024278
  Ewald energy   TEWEN  =     -2389.90339213
  -Hartree energ DENC   =     -4453.30888331
  -exchange      EXHF   =         0.00000000
  -V(xc)+E(xc)   XCENC  =      -300.31559954
  PAW double counting   =     36337.46114009   -35719.06214095
  entropy T*S    EENTRO =        -0.12413688
  eigenvalues    EBANDS =      -548.47891997
  atomic energy  EATOM  =      6402.63218022
  Solvation  Ediel_sol  =         0.00000000
  ---------------------------------------------------
  free energy    TOTEN  =      -594.47950971 eV

  energy without entropy =     -594.35537283  energy(sigma->0) =     -594.41744127


--------------------------------------------------------------------------------------------------------




--------------------------------------- Iteration      1(  13)  ---------------------------------------


    POTLOK:  cpu time      0.5673: real time      0.5935
    SETDIJ:  cpu time      0.9826: real time      0.9829
    EDDIAG:  cpu time     15.1892: real time     15.2022
     EDDAV:  cpu time     69.8147: real time     69.8787
       DOS:  cpu time      0.0034: real time      0.0034
    CHARGE:  cpu time      5.7389: real time      5.7430
    MIXING:  cpu time      0.0132: real time      0.0132
    --------------------------------------------
      LOOP:  cpu time     92.3092: real time     92.4168

 eigenvalue-minimisations  :  4032
 total energy-change (2. order) :-0.7656228E-04  (-0.6582716E-05)
 number of electron     248.9999999 magnetization 
 augmentation part      -13.8506289 magnetization 

 Broyden mixing:
  rms(total) = 0.26762E-03    rms(broyden)= 0.25380E-02
  rms(prec ) = 0.57119E-03
  weight for this iteration     100.00
  WARNING: grid for Broyden might be to small

 eigenvalues of (default mixing * dielectric matrix)
  average eigenvalue GAMMA=   1.1268
  3.2723  2.6156  1.6132  1.0466  1.0466  0.7789  0.6332  0.6332  0.5568  0.4978
  0.4275  0.3995

 Free energy of the ion-electron system (eV)
  ---------------------------------------------------
  alpha Z        PSCENC =        76.62024278
  Ewald energy   TEWEN  =     -2389.90339213
  -Hartree energ DENC   =     -4453.23869794
  -exchange      EXHF   =         0.00000000
  -V(xc)+E(xc)   XCENC  =      -300.32131302
  PAW double counting   =     36336.38831137   -35717.98926995
  entropy T*S    EENTRO =        -0.12411593
  eigenvalues    EBANDS =      -548.54353167
  atomic energy  EATOM  =      6402.63218022
  Solvation  Ediel_sol  =         0.00000000
  ---------------------------------------------------
  free energy    TOTEN  =      -594.47958627 eV

  energy without entropy =     -594.35547034  energy(sigma->0) =     -594.41752830


--------------------------------------------------------------------------------------------------------




--------------------------------------- Iteration      1(  14)  ---------------------------------------


    POTLOK:  cpu time      0.5936: real time      0.5949
    SETDIJ:  cpu time      0.9859: real time      0.9866
    EDDIAG:  cpu time     15.2604: real time     15.2720
     EDDAV:  cpu time     69.8096: real time     69.8693
       DOS:  cpu time      0.0038: real time      0.0038
    CHARGE:  cpu time      5.7806: real time      5.7856
    MIXING:  cpu time      0.0133: real time      0.0133
    --------------------------------------------
      LOOP:  cpu time     92.4471: real time     92.5254

 eigenvalue-minimisations  :  4048
 total energy-change (2. order) :-0.6382046E-04  (-0.6386785E-05)
 number of electron     248.9999999 magnetization 
 augmentation part      -13.8506745 magnetization 

 Broyden mixing:
  rms(total) = 0.18716E-03    rms(broyden)= 0.28120E-02
  rms(prec ) = 0.37610E-03
  weight for this iteration     100.00
  WARNING: grid for Broyden might be to small

 eigenvalues of (default mixing * dielectric matrix)
  average eigenvalue GAMMA=   1.2077
  3.5652  2.6130  2.3085  1.3164  1.0719  0.9284  0.7399  0.6348  0.6174  0.5881
  0.5049  0.4166  0.3945

 Free energy of the ion-electron system (eV)
  ---------------------------------------------------
  alpha Z        PSCENC =        76.62024278
  Ewald energy   TEWEN  =     -2389.90339213
  -Hartree energ DENC   =     -4453.16604719
  -exchange      EXHF   =         0.00000000
  -V(xc)+E(xc)   XCENC  =      -300.32613977
  PAW double counting   =     36336.89562121   -35718.49682979
  entropy T*S    EENTRO =        -0.12411749
  eigenvalues    EBANDS =      -548.61116792
  atomic energy  EATOM  =      6402.63218022
  Solvation  Ediel_sol  =         0.00000000
  ---------------------------------------------------
  free energy    TOTEN  =      -594.47965009 eV

  energy without entropy =     -594.35553260  energy(sigma->0) =     -594.41759134


--------------------------------------------------------------------------------------------------------




--------------------------------------- Iteration      1(  15)  ---------------------------------------


    POTLOK:  cpu time      0.5651: real time      0.5923
    SETDIJ:  cpu time      0.9849: real time      0.9853
    EDDIAG:  cpu time     15.1521: real time     15.1642
     EDDAV:  cpu time     70.3656: real time     70.4212
       DOS:  cpu time      0.0036: real time      0.0036
    CHARGE:  cpu time      5.7168: real time      5.7220
    MIXING:  cpu time      0.0135: real time      0.0135
    --------------------------------------------
      LOOP:  cpu time     92.8017: real time     92.9020

 eigenvalue-minimisations  :  4096
 total energy-change (2. order) :-0.3822249E-04  (-0.5035607E-05)
 number of electron     248.9999999 magnetization 
 augmentation part      -13.8506962 magnetization 

 Broyden mixing:
  rms(total) = 0.13153E-03    rms(broyden)= 0.45243E-02
  rms(prec ) = 0.23296E-03
  weight for this iteration     100.00
  WARNING: grid for Broyden might be to small

 eigenvalues of (default mixing * dielectric matrix)
  average eigenvalue GAMMA=   1.2183
  3.7965  2.6122  2.6122  1.2982  1.1053  0.9250  0.8543  0.6818  0.6514  0.6220
  0.5733  0.5051  0.4169  0.4021

 Free energy of the ion-electron system (eV)
  ---------------------------------------------------
  alpha Z        PSCENC =        76.62024278
  Ewald energy   TEWEN  =     -2389.90339213
  -Hartree energ DENC   =     -4453.10411739
  -exchange      EXHF   =         0.00000000
  -V(xc)+E(xc)   XCENC  =      -300.32800385
  PAW double counting   =     36337.16495344   -35718.76651074
  entropy T*S    EENTRO =        -0.12411431
  eigenvalues    EBANDS =      -548.67092633
  atomic energy  EATOM  =      6402.63218022
  Solvation  Ediel_sol  =         0.00000000
  ---------------------------------------------------
  free energy    TOTEN  =      -594.47968831 eV

  energy without entropy =     -594.35557400  energy(sigma->0) =     -594.41763116


--------------------------------------------------------------------------------------------------------




--------------------------------------- Iteration      1(  16)  ---------------------------------------


    POTLOK:  cpu time      0.5932: real time      0.5935
    SETDIJ:  cpu time      0.9826: real time      0.9838
    EDDIAG:  cpu time     15.0760: real time     15.0880
     EDDAV:  cpu time     70.7601: real time     70.8219
       DOS:  cpu time      0.0038: real time      0.0038
    CHARGE:  cpu time      5.8155: real time      5.8208
    MIXING:  cpu time      0.0139: real time      0.0139
    --------------------------------------------
      LOOP:  cpu time     93.2451: real time     93.3257

 eigenvalue-minimisations  :  4152
 total energy-change (2. order) :-0.8561874E-05  (-0.9016322E-06)
 number of electron     248.9999999 magnetization 
 augmentation part      -13.8506990 magnetization 

 Broyden mixing:
  rms(total) = 0.77055E-04    rms(broyden)= 0.14827E-02
  rms(prec ) = 0.12304E-03
  weight for this iteration     100.00
  WARNING: grid for Broyden might be to small

 eigenvalues of (default mixing * dielectric matrix)
  average eigenvalue GAMMA=   1.2382
  3.9359  2.6762  2.6762  1.3744  1.3744  1.0182  0.9556  0.7746  0.6499  0.6224
  0.6224  0.5667  0.5074  0.4169  0.4018

 Free energy of the ion-electron system (eV)
  ---------------------------------------------------
  alpha Z        PSCENC =        76.62024278
  Ewald energy   TEWEN  =     -2389.90339213
  -Hartree energ DENC   =     -4453.08045095
  -exchange      EXHF   =         0.00000000
  -V(xc)+E(xc)   XCENC  =      -300.32786940
  PAW double counting   =     36337.07022271   -35718.67186795
  entropy T*S    EENTRO =        -0.12411738
  eigenvalues    EBANDS =      -548.69464478
  atomic energy  EATOM  =      6402.63218022
  Solvation  Ediel_sol  =         0.00000000
  ---------------------------------------------------
  free energy    TOTEN  =      -594.47969687 eV

  energy without entropy =     -594.35557950  energy(sigma->0) =     -594.41763819


--------------------------------------------------------------------------------------------------------




--------------------------------------- Iteration      1(  17)  ---------------------------------------


    POTLOK:  cpu time      0.5665: real time      0.5929
    SETDIJ:  cpu time      0.9826: real time      0.9831
    EDDIAG:  cpu time     15.1290: real time     15.1408
     EDDAV:  cpu time     59.7845: real time     59.8368
       DOS:  cpu time      0.0035: real time      0.0035
    CHARGE:  cpu time      5.8424: real time      5.8469
    MIXING:  cpu time      0.0140: real time      0.0140
    --------------------------------------------
      LOOP:  cpu time     82.3224: real time     82.4181

 eigenvalue-minimisations  :  3032
 total energy-change (2. order) :-0.2761870E-05  (-0.3130336E-06)
 number of electron     248.9999999 magnetization 
 augmentation part      -13.8506971 magnetization 

 Broyden mixing:
  rms(total) = 0.55859E-04    rms(broyden)= 0.55187E-03
  rms(prec ) = 0.95190E-04
  weight for this iteration     100.00
  WARNING: grid for Broyden might be to small

 eigenvalues of (default mixing * dielectric matrix)
  average eigenvalue GAMMA=   1.2743
  4.0955  2.7704  2.7514  2.0626  1.2891  1.0790  0.9407  0.8956  0.7319  0.4175
  0.4012  0.5066  0.6518  0.6200  0.6200  0.5552

 Free energy of the ion-electron system (eV)
  ---------------------------------------------------
  alpha Z        PSCENC =        76.62024278
  Ewald energy   TEWEN  =     -2389.90339213
  -Hartree energ DENC   =     -4453.07008694
  -exchange      EXHF   =         0.00000000
  -V(xc)+E(xc)   XCENC  =      -300.32743442
  PAW double counting   =     36336.98757982   -35718.58920249
  entropy T*S    EENTRO =        -0.12411546
  eigenvalues    EBANDS =      -548.70547101
  atomic energy  EATOM  =      6402.63218022
  Solvation  Ediel_sol  =         0.00000000
  ---------------------------------------------------
  free energy    TOTEN  =      -594.47969963 eV

  energy without entropy =     -594.35558417  energy(sigma->0) =     -594.41764190


--------------------------------------------------------------------------------------------------------




--------------------------------------- Iteration      1(  18)  ---------------------------------------


    POTLOK:  cpu time      0.5664: real time      0.5916
[...]
  Total      -8.72569   -14.90164   -31.19086    -3.05803    13.11197     9.37589
  in kB      -8.20626   -14.01456   -29.33411    -2.87599    12.33144     8.81775
  external pressure =      -17.18 kB  Pullay stress =        0.00 kB


 VOLUME and BASIS-vectors are now :
 -----------------------------------------------------------------------------
  energy-cutoff  :     1200.00
  volume of cell :     1703.59
      direct lattice vectors                 reciprocal lattice vectors
    14.523793698  0.000000000  0.000000000     0.068852534  0.000000000  0.000000000
     0.000000000 14.523793698  0.000000000     0.000000000  0.068852534  0.000000000
     0.000000000  0.000000000  8.076159205     0.000000000  0.000000000  0.123821234

  length of vectors
    14.523793698 14.523793698  8.076159205     0.068852534  0.068852534  0.123821234


 FORCES acting on ions
    electron-ion (+dipol)            ewald-force                    non-local-force                 convergence-correction
 -----------------------------------------------------------------------------------------------
   -.378E+02 0.409E+02 0.977E+00   0.390E+02 -.430E+02 -.871E+00   -.995E+00 0.270E+01 -.325E+00   -.281E-04 0.202E-04 -.915E-06
   -.148E+02 0.276E+02 -.991E+01   0.154E+02 -.280E+02 0.890E+01   -.856E+00 0.734E+00 0.166E+01   -.694E-04 0.236E-04 -.140E-04
   -.446E+02 -.116E+02 0.560E+01   0.430E+02 0.110E+02 -.563E+01   0.673E+00 0.131E+01 -.640E+00   -.411E-04 -.289E-04 -.749E-05
   0.120E+03 0.234E+02 0.337E+00   -.118E+03 -.227E+02 0.438E+00   -.104E+01 0.496E+00 -.604E+00   -.353E-04 0.443E-04 0.283E-04
   0.157E+03 -.462E+00 -.578E+01   -.156E+03 -.182E+00 0.687E+01   -.219E+00 0.261E+00 -.699E+00   -.106E-03 0.881E-04 -.142E-04
   -.349E+02 -.556E+02 -.298E+02   0.367E+02 0.554E+02 0.282E+02   -.165E+01 0.900E+00 0.154E+01   -.370E-04 -.197E-05 -.283E-04
   0.917E+02 -.275E+02 -.193E+02   -.894E+02 0.287E+02 0.162E+02   -.246E+01 -.719E+00 0.415E+01   -.107E-04 0.490E-04 0.156E-05
   -.197E+02 -.133E+03 0.118E+02   0.206E+02 0.137E+03 -.116E+02   -.845E+00 -.268E+01 0.987E-01   -.298E-04 -.539E-05 0.150E-04
   0.707E+02 0.133E+03 -.381E+01   -.714E+02 -.134E+03 0.363E+01   0.122E+01 0.117E+01 0.317E+00   -.199E-04 -.823E-04 0.142E-05
   0.376E+02 0.996E+02 0.132E+02   -.370E+02 -.976E+02 -.111E+02   -.737E+00 -.182E+01 -.145E+01   0.302E-04 -.667E-04 0.640E-04
   0.591E+02 -.453E+02 -.242E+02   -.583E+02 0.452E+02 0.218E+02   -.908E+00 0.146E+00 0.130E+01   0.245E-04 -.438E-04 -.251E-04
   0.304E+02 -.361E+02 -.242E+02   -.290E+02 0.366E+02 0.214E+02   -.199E+01 -.269E+00 0.329E+01   0.877E-05 -.801E-04 0.187E-04
   -.468E+02 -.556E+02 -.176E+02   0.471E+02 0.549E+02 0.172E+02   0.573E+00 -.103E+00 0.348E+00   -.107E-04 -.445E-05 -.224E-04
   0.246E+02 -.214E+01 0.256E+01   -.259E+02 0.320E+01 -.238E+01   0.172E+01 -.343E+00 -.179E+00   0.276E-04 -.613E-04 0.221E-04
   -.412E+02 0.223E+02 -.174E+02   0.414E+02 -.182E+02 0.149E+02   0.838E+00 -.466E+01 0.244E+01   -.192E-04 0.833E-06 -.786E-05
   -.105E+01 -.440E+02 0.480E+01   -.644E+00 0.412E+02 -.447E+01   0.218E+01 0.935E+00 -.137E+01   0.279E-04 -.882E-04 -.118E-04
   0.150E+02 -.285E+02 0.187E+02   -.162E+02 0.276E+02 -.180E+02   0.630E-01 0.445E+00 -.996E-01   0.395E-04 -.317E-04 0.265E-04
   0.836E+02 -.491E+02 -.792E+01   -.811E+02 0.497E+02 0.926E+01   -.192E+01 -.958E+00 -.103E+01   0.187E-04 0.148E-04 -.221E-04
   -.782E+02 -.328E+02 -.119E+01   0.749E+02 0.318E+02 0.252E+01   0.277E+01 0.144E+01 -.131E+01   0.191E-04 -.150E-05 -.361E-04
   -.438E+02 -.846E+02 0.302E+02   0.443E+02 0.858E+02 -.271E+02   -.163E+01 -.130E+01 -.410E+01   -.546E-04 0.144E-04 0.318E-04
   0.156E+02 -.972E+02 0.936E+01   -.152E+02 0.975E+02 -.990E+01   -.504E+00 0.323E+00 0.937E+00   0.163E-04 -.750E-04 -.717E-06
   0.107E+03 -.678E+02 0.756E+01   -.108E+03 0.660E+02 -.721E+01   -.717E+00 0.209E+01 -.134E+01   0.514E-04 0.380E-04 0.759E-05
   -.943E+02 -.671E+01 0.194E+02   0.922E+02 0.750E+01 -.180E+02   0.215E+01 0.190E-01 -.597E+00   0.571E-05 -.348E-04 -.609E-05
   0.137E-01 -.147E+02 -.148E+02   -.216E+01 0.151E+02 0.149E+02   0.142E+01 -.364E+00 -.747E+00   -.163E-05 -.417E-04 -.254E-04
   -.502E+02 0.344E+02 0.156E+02   0.513E+02 -.329E+02 -.159E+02   -.123E+01 -.236E+01 0.253E+00   -.590E-04 0.828E-05 0.147E-04
   0.663E+02 -.115E+03 0.235E+02   -.666E+02 0.115E+03 -.235E+02   0.317E+00 -.168E+00 0.685E+00   -.139E-05 -.363E-04 -.162E-04
   0.391E+02 -.438E+02 0.895E+01   -.384E+02 0.441E+02 -.781E+01   -.120E+01 0.128E+01 -.163E+01   0.527E-04 0.339E-05 0.250E-04
   -.156E+01 -.715E+02 0.924E+01   0.851E+00 0.693E+02 -.593E+01   0.117E+01 0.148E+01 -.307E+01   0.228E-04 -.604E-04 0.620E-05
   -.113E+03 0.844E+02 0.205E+02   0.113E+03 -.868E+02 -.185E+02   -.786E+00 0.663E+00 -.255E+01   -.508E-04 0.722E-04 -.114E-04
   -.944E+02 -.365E+02 0.444E-01   0.926E+02 0.323E+02 -.209E+01   0.204E+01 0.428E+01 0.117E+01   0.114E-04 -.719E-05 0.489E-04
   -.155E+02 -.251E+02 0.317E+02   0.164E+02 0.252E+02 -.301E+02   0.157E-01 -.232E+00 -.217E+01   -.235E-04 -.902E-05 0.323E-04
   0.943E+02 0.113E+02 -.980E+01   -.935E+02 -.112E+02 0.667E+01   -.917E+00 0.289E+00 0.337E+01   -.741E-04 0.370E-04 -.120E-04
   0.739E+02 -.784E+02 -.106E+02   -.740E+02 0.757E+02 0.111E+02   0.457E+00 0.346E+01 -.528E+00   0.146E-04 -.675E-04 0.334E-04
   -.610E+01 0.759E+02 0.136E+02   0.631E+01 -.735E+02 -.133E+02   -.912E+00 -.251E+01 -.118E+01   0.637E-04 -.338E-04 0.540E-05
   -.192E+02 0.104E+02 -.291E+01   0.207E+02 -.992E+01 0.185E+01   -.156E+01 -.146E+01 0.134E+01   -.377E-04 -.149E-04 0.158E-04
   -.802E+01 0.205E+02 0.179E+01   0.646E+01 -.214E+02 -.902E+00   0.241E+01 0.144E+01 -.143E+01   -.480E-04 -.263E-05 0.569E-05
   -.980E+02 0.738E+02 -.201E+02   0.973E+02 -.742E+02 0.180E+02   -.384E+00 0.143E+01 0.229E+01   0.459E-05 0.335E-04 0.420E-05
   -.143E+03 0.111E+03 -.728E+01   0.142E+03 -.113E+03 0.706E+01   0.138E+01 0.136E+01 -.625E+00   0.630E-04 0.112E-04 0.304E-04
   0.641E+02 0.643E+02 0.194E+02   -.638E+02 -.621E+02 -.174E+02   -.507E+00 -.266E+01 -.397E+01   -.227E-04 -.169E-04 0.255E-04
   -.724E+02 0.538E+02 0.288E+02   0.705E+02 -.537E+02 -.272E+02   0.229E+01 0.282E+00 -.214E+01   -.526E-04 0.580E-04 -.305E-04
   0.586E+02 0.560E+02 0.894E+01   -.570E+02 -.559E+02 -.922E+01   -.842E+00 -.382E+00 0.424E+00   0.555E-06 -.495E-04 0.258E-04
   -.417E+02 -.156E+03 -.307E+02   0.411E+02 0.155E+03 0.274E+02   0.875E+00 0.983E+00 0.486E+01   -.225E-04 0.231E-04 0.111E-04
   -.678E+02 0.108E+02 0.158E+02   0.652E+02 -.119E+02 -.148E+02   0.405E+01 0.136E+01 -.148E+00   -.497E-04 -.870E-05 0.973E-05
   -.458E+02 0.342E+02 -.176E+02   0.452E+02 -.350E+02 0.171E+02   0.166E+01 0.439E-01 0.344E+00   -.728E-04 0.271E-04 0.167E-04
   0.118E+03 -.124E+03 -.397E+01   -.121E+03 0.126E+03 0.544E+01   0.297E+01 -.209E+01 -.127E+01   -.161E-04 0.762E-04 0.369E-04
   0.561E+02 -.265E+02 0.145E+02   -.552E+02 0.280E+02 -.137E+02   -.110E+01 -.158E+01 -.526E+00   0.226E-04 -.804E-04 -.204E-04
   -.283E+02 0.790E+02 0.323E+01   0.272E+02 -.794E+02 -.205E+01   0.123E+01 0.106E+01 -.123E+01   0.845E-04 0.216E-06 -.228E-04
   0.682E+01 0.191E+02 -.215E+02   -.525E+01 -.181E+02 0.199E+02   -.946E+00 -.427E+00 0.251E+01   -.431E-04 -.298E-04 -.260E-04
   0.753E+02 0.323E+02 -.320E+01   -.729E+02 -.337E+02 0.290E+01   -.282E+01 0.128E+01 0.737E+00   -.293E-04 0.223E-04 -.586E-05
   -.144E+03 0.400E+02 -.157E+02   0.143E+03 -.388E+02 0.172E+02   0.117E+01 -.202E+01 -.154E+01   -.417E-05 -.880E-04 0.589E-04
   0.321E+02 0.963E+02 -.176E+02   -.310E+02 -.939E+02 0.149E+02   -.166E+01 -.172E+01 0.187E+01   0.128E-04 -.600E-04 -.556E-04
   0.123E+03 -.100E+02 0.190E+02   -.120E+03 0.862E+01 -.177E+02   -.389E+01 0.877E-01 -.169E+01   0.310E-05 0.496E-04 0.187E-04
   -.344E+02 -.117E+03 -.105E+02   0.328E+02 0.112E+03 0.121E+02   0.140E+01 0.394E+01 -.175E+01   -.175E-04 -.397E-06 -.337E-04
   -.952E+02 0.669E+02 0.325E+01   0.956E+02 -.673E+02 -.330E+01   -.516E+00 0.119E+01 0.101E+01   -.351E-05 0.626E-04 -.333E-05
   -.440E+02 -.436E+01 0.854E+01   0.435E+02 0.398E+01 -.751E+01   -.137E+00 0.116E+01 -.130E+01   -.387E-04 -.537E-06 -.357E-05
   -.495E+02 0.649E+02 -.842E+01   0.486E+02 -.627E+02 0.810E+01   0.226E+01 -.373E+01 0.985E+00   0.346E-04 -.721E-05 -.527E-05
   0.433E+02 0.450E+02 -.898E+01   -.446E+02 -.449E+02 0.875E+01   0.177E+01 -.836E+00 0.910E-01   -.260E-04 -.427E-04 -.215E-04
   -.817E+02 0.751E+02 -.753E+01   0.847E+02 -.702E+02 0.877E+01   -.279E+01 -.416E+01 -.758E+00   -.544E-04 0.267E-04 0.986E-05
   -.698E+02 -.665E+02 0.133E+02   0.697E+02 0.671E+02 -.142E+02   0.727E+00 -.438E+00 0.141E+01   -.172E-04 0.201E-04 0.264E-04
   0.890E+02 0.741E+02 -.898E+01   -.895E+02 -.734E+02 0.806E+01   -.822E+00 -.143E+01 0.153E+01   -.603E-04 0.166E-05 0.549E-05
   0.502E+02 0.414E+02 0.758E+01   -.502E+02 -.427E+02 -.645E+01   -.639E+00 0.167E+01 -.143E+01   -.168E-04 -.589E-04 -.127E-04
   -.111E+02 0.224E+02 0.726E+01   0.118E+02 -.230E+02 -.861E+01   -.148E+01 -.132E-01 0.103E+01   -.699E-04 0.593E-04 -.434E-05
   -.984E+01 0.264E+02 -.157E+02   0.112E+02 -.236E+02 0.148E+02   -.117E+01 -.310E+01 0.160E+01   0.696E-04 -.503E-04 0.992E-05
 -----------------------------------------------------------------------------------------------
   0.979E+00 0.279E+01 0.185E+01   0.231E-13 -.192E-12 -.124E-13   -.988E+00 -.280E+01 -.185E+01   -.645E-03 -.487E-03 0.187E-03


 POSITION                                       TOTAL-FORCE (eV/Angst)
 -----------------------------------------------------------------------------------
      6.05650     10.76910      5.59824         0.280727      0.619053     -0.218543
      1.88610     11.13990      3.71349        -0.227923      0.337082      0.738287
      3.17877      1.93975      5.74284        -0.878773      0.760176     -0.678054
     13.94090     10.93580      3.78921         0.513562      1.213435      0.135093
     13.47690      9.79491      5.78084         0.122383     -0.369688      0.347914
      4.12386      3.33975      4.05622         0.077200      0.722758      0.033631
     14.37520      7.62330      5.98157        -0.193308      0.425528      1.219851
      6.83257      4.91360      6.84087         0.025542     -0.036432      0.253837
     10.84830     13.78090      4.00806         0.676849      0.080086      0.130595
     10.52320      0.71717      2.18266        -0.171347      0.136685      0.628470
     13.45660      4.50092      4.48368        -0.148441     -0.009370     -1.054293
     10.35050      2.93741      2.95725        -0.789069      0.310620      0.621004
      2.43246      4.76384      2.96537         0.980496     -0.811944     -0.002461
     13.70380      3.00714      1.68141         0.475258      0.729818      0.000285
      1.78863      9.17678      2.50474         1.113213     -0.807867      0.134290
      9.45801      2.80684      5.26131         0.537308     -1.843735     -1.113533
      0.14488      4.08497      7.82603        -1.060149     -0.424075      0.668306
     14.08610      6.67279      3.95066         0.516695     -0.509185      0.257344
      1.91581      6.94523      3.66861        -0.415837      0.525983      0.008789
      5.63363      4.26984      0.80626        -1.124538     -0.207523     -1.199918
      9.08876      4.15861      7.10678        -0.079500      0.635502      0.428397
     13.54390      7.45641      1.86625        -0.906429      0.382033     -1.046772
      2.22315      7.55336      5.90939        -0.001988      0.845654      0.762352
      0.68104      3.24911      3.56095        -0.678923      0.030012     -0.632575
      2.35062      9.78206      6.96664        -0.241127     -1.003226     -0.020832
     11.18610      5.13999      7.40489        -0.042646      0.399844      0.782349
      0.33625      6.35185      0.19729        -0.522934      1.636269     -0.609429
      8.68201      3.48827      1.35257         0.522137     -0.589316      0.078836
      5.47996     12.17500      5.44603        -0.244070     -1.680281     -0.722783
      2.65768      6.98531      0.10890         0.312540      0.352183     -0.857054
      2.20650      3.17558      7.60002         0.895585     -0.191569     -0.648969
      0.18955     10.73010      7.50859        -0.160134      0.447375      0.438351
     12.01830      4.38819      2.54848         0.456178      0.955113     -0.064984
      8.37053      1.13745      1.26320        -0.719093     -0.159210     -0.970113
      3.06044      1.52822      0.92449        -0.168308     -1.043587      0.331076
      1.70411      0.21351      2.46472         0.984938      0.613164     -0.589733
      5.59835     13.11250      3.21103        -1.116114      1.183469      0.229067
      6.02301     12.19270      1.13213         0.390592     -0.190704     -0.890503
     14.12480     14.12740      1.91779        -0.214507     -0.520332     -2.178971
      3.15291     11.45490      5.64775         0.425680      0.433565     -0.538738
     12.52410      1.09704      1.05251         0.745568     -0.300838      0.170079
      7.11588      4.82722      2.34041         0.227073      0.397904      1.758835
      3.94835      0.28240      7.14534         1.494407      0.348800      0.829145
      3.07210     12.89610      2.68080         1.068430     -0.807991     -0.115616
     11.35890      6.46261      1.36898         0.267197     -0.723160      0.090430
     12.78910      3.64677      6.52082        -0.227815     -0.126991      0.252185
      7.99820      0.43818      6.94702         0.144705      0.725615     -0.114221
      1.27310      1.18564      4.49424         0.582085      0.560964      1.087953
      0.40869     13.12130      7.67411        -0.464912     -0.076679      0.441377
      3.49466      9.25470      0.91866        -0.595329     -0.911142     -0.170271
     10.35320      0.59146      5.97087        -0.711030      0.631418     -0.775400
     14.26410      9.86034      1.69645        -0.823433     -1.343895     -0.372191
      6.26188      4.09022      4.68498        -0.094375     -0.215702     -0.347402
      6.12288     13.52070      7.19109        -0.190438      0.756432      0.990766
      4.90440      2.31168      2.09201        -0.688080      0.852156     -0.317404
      6.49015      0.91749      2.81360         1.423407     -1.651567      0.717031
     14.13400      0.00214      5.76989         0.555259     -0.814465     -0.148635
      3.83428     11.62200      0.76266         0.068304      0.492278      0.454322
      3.32114      4.85393      0.69178         0.689633      0.131306      0.609533
     13.28320     13.27610      3.88264        -1.316036     -0.802041      0.665917
     12.48340      1.24197      6.82805        -0.656780      0.452479     -0.374095
      2.68604     12.96960      7.30094        -0.865006     -0.612757     -0.273346
      7.30088      1.98372      4.83645         0.165436     -0.339488      0.751142
 -----------------------------------------------------------------------------------
    total drift:                               -0.009574     -0.005745      0.001462


--------------------------------------------------------------------------------------------------------



  FREE ENERGIE OF THE ION-ELECTRON SYSTEM (eV)
  ---------------------------------------------------
  free  energy   TOTEN  =      -594.47970021 eV

  energy  without entropy=     -594.35558500  energy(sigma->0) =     -594.41764260



--------------------------------------------------------------------------------------------------------


    POTLOK:  cpu time      1.6129: real time      1.6141


--------------------------------------------------------------------------------------------------------


     LOOP+:  cpu time   1772.1115: real time   1774.0121
    4ORBIT:  cpu time      0.0000: real time      0.0000



 total charge

# of ion       s       p       d       tot
------------------------------------------
    1        0.550   0.014   0.000   0.564
    2        0.766   0.925   0.000   1.691
    3        0.754   0.912   0.000   1.666
    4        0.761   0.875   0.000   1.636
    5        0.796   0.861   0.000   1.657
    6        0.754   0.912   0.000   1.666
    7        0.766   0.899   0.000   1.665
    8        0.799   0.815   0.000   1.614
    9        0.796   0.822   0.000   1.618
   10        0.753   0.937   0.000   1.690
   11        0.758   0.946   0.000   1.703
   12        0.769   0.926   0.000   1.695
   13        0.752   0.896   0.000   1.648
   14        0.765   0.916   0.000   1.681
   15        0.765   0.924   0.000   1.688
   16        0.760   0.901   0.000   1.661
   17        0.751   0.967   0.000   1.717
   18        0.758   0.977   0.000   1.734
   19        0.759   0.896   0.000   1.655
   20        0.754   0.916   0.000   1.670
   21        0.750   0.915   0.000   1.665
   22        0.760   0.878   0.000   1.639
   23        0.766   0.908   0.000   1.674
   24        0.756   0.930   0.000   1.686
   25        0.780   0.886   0.000   1.665
   26        0.801   0.818   0.000   1.619
   27        0.774   0.855   0.000   1.629
   28        0.759   0.918   0.000   1.677
   29        0.743   0.934   0.000   1.677
   30        0.767   0.862   0.000   1.629
   31        0.752   0.959   0.000   1.711
   32        0.759   0.890   0.000   1.649
   33        0.767   0.931   0.000   1.698
   34        0.763   0.869   0.000   1.633
   35        0.757   0.929   0.000   1.686
   36        0.756   0.964   0.000   1.719
   37        0.760   0.847   0.000   1.607
   38        0.794   0.872   0.000   1.666
   39        0.758   0.930   0.000   1.688
   40        0.761   0.958   0.000   1.720
   41        0.752   0.963   0.000   1.714
   42        0.800   0.859   0.000   1.660
   43        0.759   0.941   0.000   1.700
   44        0.772   0.888   0.000   1.660
   45        0.825   0.778   0.000   1.602
   46        0.756   0.931   0.000   1.686
   47        0.769   0.802   0.000   1.571
   48        0.750   0.944   0.000   1.694
   49        0.758   0.871   0.000   1.629
   50        0.777   0.895   0.000   1.672
   51        0.758   0.858   0.000   1.617
   52        0.755   0.896   0.000   1.651
   53        0.758   0.885   0.000   1.643
   54        0.758   0.886   0.000   1.644
   55        0.764   0.951   0.000   1.715
   56        0.754   0.901   0.000   1.655
   57        0.750   0.900   0.000   1.649
   58        0.769   0.897   0.000   1.666
   59        0.760   0.926   0.000   1.686
   60        0.753   0.898   0.000   1.650
   61        0.753   0.929   0.000   1.682
   62        0.764   0.982   0.000   1.746
   63        0.766   0.874   0.000   1.640
--------------------------------------------------
tot         47.949  55.942   0.000 103.891


 total amount of memory used by VASP MPI-rank0   152613. kBytes
=======================================================================

   base                                    :      30000. kBytes
   nonl-proj                               :      25663. kBytes
   fftplans                                :      32793. kBytes
   grid                                    :      25285. kBytes
   one-center                              :         12. kBytes
   wavefun                                 :      38860. kBytes

  
  
 General timing and accounting informations for this job:
 ========================================================
  
                  Total CPU time used (sec):     1824.135
                            User time (sec):     1817.221
                          System time (sec):        6.914
                         Elapsed time (sec):     1826.062
  
                   Maximum memory used (kb):      331276.
                   Average memory used (kb):          N/A
  
                          Minor page faults:       275031
                          Major page faults:         1136
                 Voluntary context switches:         2963
