LAMMPS data file via write_data, version 2 Apr 2025, timestep = 6560000, units = metal

1000 atoms
2 atom types

-1.2557357656481525 24.693323290741954 xlo xhi
-1.2557357656481525 24.693323290741954 ylo yhi
-1.2557357656481525 24.693323290741954 zlo zhi

Atom Type Labels

1 H
2 Si

Masses

1 1.00784
2 28.0855

Atoms # atomic

814 2 2.5163481012495854 0.774851053637184 0.9015281817948031 0 0 0
844 2 1.1954899250876756 1.2336036097738474 2.696647055881692 0 0 0
404 2 -0.4334765087768714 1.587755369490647 -0.5607987410329982 0 1 0
810 2 -0.6071816273729651 2.3703435171940845 1.7459876600563393 0 1 0
410 2 1.1163007176445636 -0.124215340849259 -0.7140234844070473 1 1 1
710 2 0.46953651443462885 -0.9042138826119945 3.434103630472028 0 0 0
422 2 2.2019377698433096 2.73135407523003 3.956695942366925 1 1 0
368 2 5.851510245221386 1.3994161481269618 3.3075648823203805 0 0 1
962 2 4.391394164339275 -0.6233603753312534 0.542171848396173 0 1 0
862 2 4.308635296615845 2.02654981998291 4.85266830494956 1 1 0
416 2 5.908994638826239 2.7088363350823887 1.4742633398068063 0 1 0
623 2 5.519026209914599 -0.8028351941821981 2.6553095535437117 0 1 0
663 2 7.164764907602166 2.0793284382398762 -0.2376397918251496 0 0 0
413 2 5.796037205594684 0.4399725586496881 -1.1837049560073836 0 1 1
527 2 3.7427670442962606 2.8050093154876725 0.782360306262667 0 0 0
951 2 7.875499428416905 2.0387997240090368 4.099340865880096 0 0 0
774 2 9.647806941072668 -0.5563707253089094 -0.3774357947602327 0 1 0
946 2 9.377819232007965 1.7647905242668602 0.34351533282030355 0 0 0
920 2 9.69252267499918 2.0907333981549785 2.5962666313507183 0 1 1
845 2 11.443586570233824 -0.8082132689934289 4.016011964377124 0 0 0
788 2 11.404197884743965 8.230478702499529 3.3687971452310324 0 0 0
953 2 1.2563182838412716 5.118597413717671 0.4968761602914231 0 1 1
464 2 2.8102768632547592 4.2991248536426925 2.3119007717206306 0 0 1
999 2 -0.9683110679520206 4.655299929294631 1.0649190058710545 0 0 1
119 1 0.3907530087165918 5.430772273375619 5.0303765433078755 1 -1 0
630 2 4.231107417138762 6.129585618978802 2.744727575400833 0 0 0
695 2 6.094117160632527 4.982235689277724 1.7217655126143678 0 0 0
693 2 4.04927629836973 6.958231227195494 4.920386933060223 0 0 0
675 2 7.206855118059465 6.038987509825438 -0.05374255131637651 0 0 0
276 1 3.83532331369285 7.102244218289167 1.6762974084614348 2 1 0
545 2 7.192677890942505 4.066603266548541 5.090404487772971 0 1 0
523 2 11.290750928672157 5.175084475870986 1.179394690437043 0 0 0
895 2 10.864098130240205 3.526559897439993 -0.5439396443268478 0 1 1
857 2 7.814298927323909 5.336170931129024 3.267719679196964 0 1 1
854 2 9.939250241616646 4.475204382024393 2.955558414413951 0 0 0
650 2 11.282832616062787 4.700154380294121 4.895620825800278 0 0 0
436 2 1.9113522266161174 7.437934526243385 0.2084168121297143 0 0 0
791 2 0.290180175758316 10.988282609022404 -0.7996087969247525 1 0 1
852 2 -0.3402587323944063 10.380334541426238 2.9489055082538442 0 0 0
840 2 -0.19791537069138898 8.659323628563522 -0.5363435518334609 0 0 1
12 1 -0.12128154656180334 10.025273914020127 4.358392399660219 2 1 0
764 2 2.311917369799767 11.181152867883744 0.16626940944584834 0 0 0
847 2 -1.1281835806161102 8.439378753274214 1.541746405213516 0 0 0
58 1 2.654311840425222 10.778000533638338 3.299109947638927 1 0 0
945 2 1.6294585921532048 11.474990454971813 2.3310904040161344 0 0 0
590 2 3.8470719912958966 8.003377830543185 -1.0380974843732078 0 0 1
396 2 4.4834057672219085 9.969962444092891 -0.09121169833484366 1 1 1
760 2 5.325617883972555 10.280051904134975 2.1565017114163103 0 0 0
207 1 4.462228486399772 9.917983563790637 3.2413027002863677 1 0 1
643 2 11.557988905291868 1.389477300087416 3.6305877108101106 0 0 0
680 2 9.056890144519725 7.49689999501631 -0.21453748729204491 0 0 0
915 2 11.05009030337621 7.5953266037705305 1.0835345839142443 0 0 0
833 2 7.545901497533915 9.491500251599655 2.4418170090202884 0 0 0
397 2 9.69833803382591 8.086898143444165 4.969988281646707 0 0 0
933 2 8.665964588136049 11.205991776908233 3.6270651656471706 0 0 0
741 2 9.97835751292083 11.270027441462776 0.347767080272424 0 0 0
897 2 7.654587228732751 7.500083907127763 3.965362600455914 0 0 0
627 2 8.313043709317881 9.65920343143251 0.2146432236848741 0 0 1
356 2 6.496732919442553 10.650231777665237 -0.9397227245503448 0 0 1
861 2 9.472546204561302 -1.2551100811088816 5.1397669344650065 0 0 1
335 1 2.9866896665786067 8.204320679868975 4.7976691583713595 -4 1 0
750 2 -0.8744954121120376 0.932702807425922 6.321046884528294 0 0 1
433 2 1.3213620119924188 2.6871780750778704 8.914891161563181 0 0 0
312 1 0.6287732973079065 1.6866559113829926 9.986271188933555 1 -1 0
785 2 0.6029355605052193 -1.0085235338544691 5.861709978262023 0 1 0
608 2 -0.027763576782388943 2.97330642786718 7.069099898319774 1 0 0
133 1 2.740400421062176 0.8275613976603564 11.579459643118321 2 -2 0
210 1 -1.1272337565816766 2.0120490387391463 10.046445710587106 0 0 1
687 2 2.9722484985711333 -1.139485355230401 6.324124942450078 0 1 0
556 2 5.339675137953646 -0.7510056864275002 11.618801184246031 0 1 0
656 2 3.4815522923534212 0.18089524619265873 10.428885215391233 0 1 0
654 2 3.4888339155666985 1.7056739350253736 8.674923927944006 0 0 0
772 2 4.252057575617335 0.6314080423888815 6.706429621297862 1 1 0
398 2 6.516564047044918 0.2355573688110626 7.214183132049451 0 1 0
519 2 6.941862789829248 1.7854793461331018 8.944717453809444 0 0 0
479 2 5.169269140050649 3.291770307505147 8.494639616465442 0 0 0
513 2 7.146574126067428 0.4108431777514874 10.99206040587129 0 1 0
932 2 8.437141986714911 0.6497225265963642 5.860506750024181 0 0 0
609 2 10.154866065132529 1.5717492217645477 7.01216985110783 0 0 0
960 2 10.879056310764375 -0.40012173555484065 10.554790522665094 0 0 0
881 2 11.21755371183399 -0.1381756457058363 8.235366627833375 0 0 0
763 2 8.787619919846998 2.932501362933828 8.287504980334989 0 0 0
669 2 8.973863791541001 7.532776223389682 8.856357644434532 0 0 0
778 2 1.1966090050177063 4.339567228393162 5.552444013981523 0 0 0
900 2 1.8474014115732298 4.611467797039427 10.024401972404098 0 0 0
303 1 0.6966344630065668 5.529240934245213 10.432627126694534 -2 0 0
238 1 2.8186171805064717 4.239138380548966 11.222416893190264 -3 -2 0
371 2 3.296476516387184 5.304778087055396 6.326305570597288 0 0 0
579 2 3.3565983855114983 5.878652499418336 8.70087698392106 0 1 1
967 2 6.350068213846599 5.641091289215568 11.084866807630192 0 0 0
625 2 5.160822697775245 3.9470917285449367 6.1375019568376645 0 0 0
826 2 5.511826028827049 5.5545708262872955 8.893632276189289 0 1 0
353 2 7.166077932792755 6.69781283129493 7.536468159519098 0 0 0
853 2 8.440273928506619 4.850842194189369 6.754432410284528 0 1 0
822 2 9.812932037437989 3.9591318696259883 10.033474240697702 0 0 0
909 2 10.21421199099398 6.229479684631872 6.30947422416456 0 0 0
880 2 8.631703003844079 5.994672221412072 10.561407057379634 0 0 0
567 2 11.386504678848453 6.769624611767847 8.221243471424243 0 0 0
101 1 11.267800806602565 4.057461839666455 7.728709027124353 -4 6 0
431 2 11.64181250504931 2.6224804407230904 5.70762619564824 0 0 0
752 2 2.5730923431321235 11.709743884218607 6.815251047204258 0 0 1
314 1 2.8751692098889565 10.891445045907465 8.041396992037123 -4 0 -1
740 2 7.877453976763865 10.84083634381311 7.388392034398139 0 0 0
339 1 11.531284247199968 8.684560487820836 10.475596251840164 0 4 0
33 1 3.2991389522232932 8.984409805859364 8.369364034598853 1 -1 0
103 1 1.5198668291423338 10.390168733698548 10.788527603129474 0 -3 0
935 2 0.742241386699888 11.59064285946112 10.602541296666498 0 1 0
116 1 0.3204212358177909 8.621517574356606 6.759609040268646 2 -3 0
142 1 -0.15203207685190367 9.189431949961426 6.537620646751002 3 0 0
66 1 2.4758891278775885 10.712781676282185 5.742841133012978 1 -1 1
225 1 6.297042902021994 11.05644703957216 10.187551423419173 2 1 0
931 2 4.899099846039734 11.328743314778789 10.3452790495697 0 0 0
1 1 4.147104158277218 8.126967310950768 10.489007718090734 2 0 0
362 2 3.132726761085415 7.960458753842808 9.45506021339386 0 -1 0
168 1 2.1564319847106073 8.146370612608834 10.429630804618329 0 -1 -1
343 1 5.124828363992213 10.957292241708602 5.528516018338106 3 0 -1
287 1 4.865116608589118 9.662112899208372 7.705897032925558 1 -2 0
963 2 5.768892293996729 9.986481791198962 6.628408245902839 0 0 0
781 2 6.161905537137176 7.717006943529732 5.779371742057742 0 0 0
304 1 4.105150706038109 10.181013020611458 9.915482709481186 0 0 1
686 2 9.403235259796402 10.365425424737719 5.61466786458463 0 0 0
69 1 8.343791821442931 10.04667197471238 10.523212413732725 -2 -1 0
813 2 9.12404697274657 9.984811520135706 9.255699102488274 0 0 0
45 1 -0.16961219511659165 6.215621242509413 7.812238281784802 3 2 0
25 1 -0.07820790030498914 5.7451510777106005 7.217981294992438 4 -1 0
712 2 11.625534181440544 11.153257007131774 5.691886693962142 0 0 0
135 1 -0.6686871880497618 11.44151790715621 10.478345785446582 0 -2 1
665 2 1.9259359289525046 1.9068102292676814 16.654353609039823 0 0 0
164 1 1.5390516730349963 0.5883438272975852 16.26963671476161 -1 0 0
327 1 0.1501306158492608 2.631901807929424 11.941516810518431 -4 0 0
28 1 -0.5197469241961954 0.5211238380690524 13.08409785096164 0 -2 0
252 1 -0.4046266456955556 -1.051117639517549 15.057504966198694 1 1 0
536 2 0.32027980035692893 1.743060093482316 13.232161146887265 0 0 0
138 1 1.7618119449966443 1.4198590108062432 13.145202020467128 1 1 0
336 1 1.3781058996052935 2.80440467878776 15.538863519749265 2 0 0
8 1 3.3459548007566218 -0.08912357646806846 14.37985494538276 0 0 -1
713 2 4.0300528086544425 1.9516532581748045 17.466942086577653 0 0 0
292 1 4.347932197055341 1.8489299970581277 13.200940416659758 -1 -4 0
830 2 6.416328211628574 -0.9159956776069034 15.128665649719915 0 0 0
447 2 4.472319202241357 -0.9431376330923318 13.865406116031243 0 1 -1
439 2 10.794964435770916 8.762792783985626 16.733441305600245 0 0 0
246 1 10.394859907969304 11.5671056276319 17.77462363717195 4 2 0
601 2 7.868304476745658 1.97301623102621 12.525839339513203 0 0 0
874 2 7.676242724046924 2.725847724184425 15.934309625248387 0 0 0
991 2 10.200017744527187 -0.24479698263469163 15.067346755781804 0 1 0
943 2 8.096255828144303 0.8728494965382594 14.654880819567246 0 1 0
461 2 11.05754452636451 2.3963198547713653 17.504875980802517 0 0 0
929 2 9.878026111356492 3.0741546031491094 12.086059861459102 0 0 0
676 2 11.54097061088567 1.4709125390812745 11.772481136846933 0 0 0
743 2 11.682867663268226 8.165635664414838 11.934554049129103 -1 0 0
40 1 0.9894101350914526 -0.6098150293747695 12.184895977994351 2 2 0
260 1 -0.0915802364082392 2.6542303192243906 14.39823240048239 3 -2 0
311 1 -0.8697671443391896 5.3544445207003655 13.148999540459236 0 3 1
271 1 1.5165619685911214 4.305431970025224 13.52691889134584 -1 1 0
759 2 -0.6681711504387029 5.891144386217684 16.320820480364397 0 0 0
4 1 -0.3672084411712895 4.742475875732923 13.070413601379808 1 4 0
600 2 2.946564379565938 4.467776880161882 12.936705894417946 0 0 0
143 1 3.71218733158383 5.934108880129682 15.540584241752965 1 -1 0
26 1 3.4748360676046657 5.845300245552732 12.869472965896222 -1 -1 1
544 2 8.675879423743357 2.471040082610567 17.98911376842191 0 0 0
393 2 5.429420919176334 3.210615853085822 15.882659751683518 0 0 0
170 1 10.224433059910398 9.549344514282447 15.674102752535207 2 -2 0
990 2 4.779038605145112 3.226386933652024 13.729221550888902 0 0 0
486 2 5.861055089402097 5.199700904571721 17.180672746055173 0 1 0
550 2 3.985599046739358 6.385523063468117 16.923364254338495 0 0 0
531 2 6.735668145984987 4.007227194709921 12.766073781394311 0 0 0
153 1 7.092406837720187 7.257150699482306 15.074470908735579 1 3 1
451 2 7.595679010629736 6.368340530371712 16.076503322782855 0 0 0
554 2 8.082179238787523 4.563088752503011 14.749756780182336 0 0 0
631 2 10.141881189526293 4.753970104274318 13.64101591492613 0 0 0
996 2 9.803469203415528 6.839291795547306 12.481975596921068 0 0 0
817 2 9.241776266811701 7.3058711074969 17.617928885059264 0 0 0
17 1 2.2422532946995783 7.66030457055647 12.576285526763714 3 1 0
92 1 0.36804540353812776 9.8805032368353 12.908096237850184 2 1 1
171 1 0.5325421327434956 10.065938525298902 13.57444335176396 -1 -1 -1
139 1 0.30677550635415174 -1.2021762065428043 14.828532838485822 1 1 0
163 1 9.614365976527166 11.249331832359799 12.42156591612215 -1 -3 0
51 1 1.5433327093374896 8.05787717080983 12.474781292407037 5 0 1
115 1 8.770106314395152 7.7025034639864405 12.994608198408713 2 2 0
86 1 6.560994046367375 9.642940600576598 12.964407181441219 0 -2 0
162 1 3.7092755706823146 8.348286824530895 13.7527634939026 0 3 0
155 1 3.994595646336034 7.965874842425803 14.357210179594743 0 4 0
315 1 6.524722397584013 10.313489393939394 16.425181370296784 1 -1 1
90 1 3.5796502177635796 9.689213108850884 16.358522042455093 0 1 0
495 2 6.1623646298681045 9.817528097493794 17.720330177078075 0 0 0
359 2 4.156986802044232 8.687664854629881 17.297489533580418 0 1 1
190 1 6.331192985354608 10.069338375167453 13.618928657617031 1 2 0
184 1 0.44986479979757465 -1.1479456690981502 12.0219434348239 -7 5 -1
23 1 11.627085974647809 9.446942062608752 12.710236340906972 2 0 -1
348 1 9.017599068515555 11.662217810898996 12.369631491550525 3 2 -1
209 1 5.953907470144142 6.799927046174396 12.008940974027253 -1 -2 -1
295 1 4.612378019397913 11.295382852935957 11.746751272518388 0 -2 0
633 2 0.8329057029052618 1.0522255557294593 21.905325160455675 1 0 0
533 2 2.366991002732126 -0.015449870482853623 23.344830045097794 0 0 -1
530 2 2.0917682746412054 2.4680719120701466 20.400493393669393 0 1 0
851 2 0.4009553530606451 2.814923884590363 23.417870344697434 1 0 0
32 1 -0.39650150190830913 -1.0107136401329442 18.28305903186213 0 2 0
366 2 4.3368505698914 2.0706018800376818 21.176755402411892 0 0 0
430 2 4.045186980368384 1.5214378133807784 23.464316078754173 1 0 0
727 2 5.6625797702121075 0.36366699205155806 20.58370613348165 0 0 -1
230 1 4.174895309764324 2.8930398659713834 18.69808027101343 1 2 0
694 2 4.632830795081176 -0.20106609040259804 18.49372992422041 0 0 0
443 2 9.038009482263842 -0.6807545734086549 23.22902556570483 1 1 0
681 2 7.852995705512354 0.8486293650599621 19.61068923760645 1 1 0
891 2 9.231589390301384 1.0243153695249818 21.527880294233533 0 0 -1
342 1 10.604309351354166 0.7104522909153046 21.0925658430319 1 1 -1
757 2 8.345554687509404 -1.1212761972126597 18.554092409587184 0 0 0
562 2 0.7456815868607203 2.634769924475259 18.48598877290968 0 0 0
954 2 1.7507855102071903 4.50072836907373 24.280649173351037 0 1 0
888 2 1.9788585387446886 5.890529983521669 22.514025201583394 1 0 0
716 2 -0.3329381382032396 6.344639567189406 22.10321609065099 0 0 0
732 2 2.4571133667438243 6.096282645025479 18.778951115315515 1 0 0
388 2 -0.9810773080084405 6.2714374119829 19.853032736392542 0 1 -1
372 2 2.896879558015754 4.721962907988589 20.733287295076657 0 0 0
811 2 0.3443325267611528 5.035831433742321 18.367837186577873 1 0 0
980 2 5.1453866733815525 4.154028140089424 21.116622397051614 0 0 0
441 2 5.5903263512624575 4.69228802555987 23.45959267063722 0 0 -1
639 2 6.5162446692565865 5.070189773149888 19.49335489808349 0 0 0
679 2 5.709877232676739 6.878925227807136 24.277974665110143 1 0 -1
587 2 3.846428788049172 3.485492198712034 24.49525454975776 0 0 0
988 2 6.681375549061345 7.106145971106459 20.390589889693956 0 0 0
816 2 7.461357415643125 4.049680087617512 24.563625391995473 0 0 0
31 1 11.24319019991831 3.3728125075746824 20.97921301731148 1 2 0
934 2 9.836825877669709 3.3921564444680685 21.590079555115523 0 0 0
453 2 8.80831848327363 4.301885308092792 19.710668385353095 0 0 0
703 2 9.402200919337249 6.836225802450532 23.597871258329057 0 0 -1
583 2 9.616041428645431 4.4548854041681585 23.63069530999315 0 1 0
380 2 10.423356940517383 5.980646697319882 19.14587312679312 0 0 0
76 1 3.492820465546105 -1.1334278223197085 18.543856918674287 -1 -1 0
690 2 -0.9043434889907498 8.485641466884198 19.07825723404917 1 0 0
924 2 1.244285518704905 9.598531719862867 19.636339038234 0 0 0
615 2 1.6514884065612505 9.680469056262849 22.044949447723035 1 0 0
698 2 0.07375229645555503 11.120914491063058 22.82335048610161 1 0 0
820 2 3.100149075900706 8.362955726552197 19.287521975674395 0 0 0
754 2 3.1292507584267977 7.8688485144171505 22.695726367521495 1 0 0
949 2 3.232031963340048 11.46863001541374 21.60640995817041 0 0 -1
948 2 5.388291528377289 10.546990662645891 21.21609448635668 1 -1 -1
923 2 4.633183938876589 8.174514176133764 21.02373778717243 0 0 0
589 2 5.822124637952357 11.60709436044742 19.203605380272585 1 0 0
907 2 7.119248474691705 10.00965996179482 22.84961115879787 0 0 -1
773 2 7.391764869388474 7.656774202315404 22.534531289608054 0 0 -1
480 2 11.247513518314383 11.465834270456359 22.590716696590185 0 0 0
27 1 11.13959050160795 9.283603445349938 22.639026949346736 1 2 0
149 1 9.971140932309307 8.536037655525886 20.446889513387475 2 1 0
552 2 11.16108454116962 7.784666083667874 22.504965894253957 0 0 0
976 2 9.021453590367281 11.070226164947478 21.827685168184267 0 0 0
428 2 9.3588052654324 9.708685666621031 19.82822948397674 0 0 -1
789 2 11.069658748793657 10.367021985049739 18.521350672704237 0 0 0
649 2 7.6479150407193295 8.50120397562823 18.795053422712982 0 0 0
415 2 -1.1969865669839952 0.05160779423618789 21.27721560106714 0 1 0
966 2 2.005838419601432 13.688932582750962 3.1268629342612106 0 0 0
378 2 1.5328907267016443 15.126673816225198 -0.2684220357269308 0 0 0
691 2 -0.6378688942414866 14.381256127902533 -0.6540179982258236 1 0 0
333 1 1.0291930126695488 13.650353657504475 4.271769715165836 5 2 1
823 2 1.8575795351824986 15.771599761952219 1.9165730234847316 1 0 0
191 1 -0.714816210425122 13.904888930390083 5.095249801527288 1 2 0
855 2 7.2551557840411505 22.816592902659607 -1.1520132677382056 1 0 1
427 2 3.138220763067025 13.31004360328796 -0.5628172810607734 0 0 0
768 2 4.178014893258314 13.574626346948586 4.007778159756952 0 0 0
489 2 5.174652638671916 14.015668295071547 0.401946277138008 1 0 1
452 2 5.4924437259086165 12.680120385054538 2.3686648859894324 0 0 0
429 2 4.408081580494891 15.864168151176658 4.233899215028322 0 0 0
849 2 6.772617071927751 13.22084944405161 -1.0835360307213862 0 0 1
867 2 10.463823690533202 14.602560707746754 -1.1773894689835354 0 0 1
417 2 7.659110206017225 13.147475958408792 3.3496646772870173 0 0 0
455 2 8.857897169149021 14.55068753292493 1.8833740351693398 0 0 1
796 2 8.963726870700656 13.30745776075174 -0.11065795032213499 0 0 0
919 2 11.200569640898594 14.122659555104239 2.4785503018982213 0 0 1
581 2 10.622896855027275 11.781769665044006 2.420120293365199 0 0 1
799 2 0.053971463280863 17.3585033382042 2.809615614132455 0 0 0
672 2 -0.3455757035820336 18.994065035246784 1.17542494157385 1 0 0
944 2 1.8853130556389281 19.782823146241682 0.6572739771583296 0 0 0
367 2 1.5736520511460381 18.08460747244939 4.559449150734744 1 -1 0
905 2 -0.937328393976872 18.85510019814933 -1.103773657276624 0 0 1
983 2 11.66311677280578 24.39907614393814 0.031174146506344647 0 -1 0
440 2 3.0227337995729977 18.873891784934145 2.6266960193323023 0 0 1
61 1 5.145626710876871 18.167911683433715 5.062128604994313 -1 -3 0
575 2 5.624911398940485 16.48608728628782 0.4899557920591564 0 0 0
540 2 3.871505037218437 16.823457792242174 2.007355277451486 0 0 0
819 2 5.634474383110114 19.609989612033388 5.075126811008171 0 0 0
993 2 11.32546416303186 20.31585544920617 4.0304349781841236 0 -1 0
506 2 9.33933212810174 16.81196180929316 -0.9349102809359369 1 0 1
877 2 7.856732993094575 16.53854584734507 1.0555804469403212 0 0 0
708 2 8.74743635665273 18.12744074528161 2.408126635551533 0 0 0
512 2 11.127987499006084 18.299839733427284 2.8525435103305243 0 0 0
401 2 8.358521284251434 17.33565717456831 4.58490924621834 0 0 1
906 2 8.111424166724465 20.298933524291847 2.0818605653634905 0 0 0
580 2 -0.721181772086544 21.89469951196898 3.5174816054543543 0 0 0
432 2 1.2777213708951671 22.85501211434545 3.0469214883576745 1 0 0
767 2 2.019453095198348 22.177410499783186 0.8368074663425507 0 0 0
970 2 0.4979842635837748 23.516076948222256 -0.4582645438001275 0 0 0
576 2 3.0495486288251037 22.1796459035426 4.204715472104815 1 0 0
858 2 4.4401325384827555 20.480521269318878 3.3658703715042018 0 0 0
997 2 3.8814227345757155 23.160994135598337 -0.4462788256374012 0 0 1
487 2 5.541278913185389 21.515140508642226 -0.4628615305659397 1 0 0
875 2 4.417325093438293 24.028368643220254 4.517698913997936 0 0 0
666 2 6.874116802803034 23.42308866702021 2.3005825357553853 0 -1 0
835 2 5.92226783928442 21.240288571087937 1.8442595057368356 0 0 1
352 2 8.50324378190244 23.445274293552337 0.6327053031082663 0 -1 1
370 2 9.766337239497338 21.48639618153122 0.8686933144540423 0 0 0
379 2 7.979266395895548 23.008346251192194 4.269064276599983 0 0 0
494 2 8.974921361747565 20.853162040040367 4.2092184559838435 0 0 0
824 2 0.3827139173826888 14.735485550629447 9.554520499506317 0 0 0
308 1 1.8675246532840926 14.691258197741877 9.655635577470694 1 -2 1
105 1 -0.11588850342360524 14.307849677260808 10.852471287423878 -3 1 0
175 1 -0.05115265141458747 16.125653908078817 9.58095056282178 0 -3 -1
2 1 -0.26693446446789815 14.177851631727103 8.347864924916989 -2 -1 -1
612 2 10.360417327271037 23.91693694876757 7.206362848497381 0 -1 0
850 2 10.435384763695607 16.830745075348837 11.330078241006957 0 0 0
59 1 1.3284828021255821 12.486044037262696 9.693043192435592 1 0 0
159 1 1.1196533646482734 12.145664253234676 7.010167832442692 1 0 1
285 1 3.0783550601959693 13.627228075073871 9.7328419163097 1 0 0
189 1 4.779552636043397 14.555414095744426 11.071043683539918 3 -1 0
843 2 4.375341495723679 13.119778660130363 6.200401454124721 0 0 0
910 2 5.719134590957966 14.053429770464794 7.929265775220605 0 0 1
611 2 4.499575953848528 13.543148109729348 9.758837763622005 1 0 0
968 2 10.449602765154093 21.0710767526853 11.40590996561726 0 0 0
793 2 7.727698411850694 13.134001552113535 7.303178486814042 0 0 0
883 2 9.797321488343684 13.831927260957666 8.595546823452082 0 0 0
228 1 9.803831906412276 12.706178926813202 9.501218737240047 0 -1 0
505 2 8.883183817495778 15.416600380142027 10.240927065804625 0 0 -1
216 1 8.06712546126933 14.418248008431078 11.195615467728503 0 -2 0
802 2 7.804314296886144 14.23224291026279 5.327003018423699 0 0 0
224 1 1.695801457793125 15.208212596140891 6.072867125358526 1 2 0
256 1 -0.251098227428481 16.55551244227494 6.7080516086311315 -5 -1 0
193 1 2.145185072127947 16.913101185005473 10.06777155240565 5 0 0
921 2 0.8777857999509435 19.783579669346665 6.033440200480028 1 0 0
977 2 0.6238685884392421 19.321793501157018 8.449026525293133 0 0 -1
126 1 -0.48784018853644073 18.379523898790424 8.74884596095379 -1 -2 -1
918 2 2.4431440486966087 18.117478310873615 9.271229901680693 1 0 0
399 2 2.6196764946748035 16.36120828144408 5.656523179662393 1 0 0
152 1 0.4603857403171989 20.43600210895824 9.28910121466597 2 0 0
57 1 0.1229462791659186 17.671234321913765 10.846427860761295 1 1 0
324 1 2.947630366796594 18.96189299972267 10.252161133490446 -1 -1 2
992 2 5.983593111517381 16.304375473067253 7.566549921533369 1 0 0
913 2 3.830124083409956 17.4749224296416 7.646610051479069 1 0 0
578 2 4.258028417405187 19.809283138508476 7.1175834794985295 0 0 1
922 2 9.709396688611287 15.41626301300896 5.380087491256209 0 0 0
860 2 6.527624072886665 16.076966520582246 5.298577454226319 0 0 0
646 2 9.972684565414625 16.195427352253766 7.385589287620805 0 0 0
521 2 9.415061555168252 18.974996470162957 11.442524244091453 0 0 0
808 2 7.965952337114455 19.4417077108969 5.718409353780686 0 -1 0
747 2 8.050673540242741 16.7789419715629 8.524731611994559 0 0 0
714 2 11.106827937102842 19.17300192007145 8.42842809532298 0 0 0
588 2 8.94363485884541 18.837809146418778 9.223900022259905 0 0 0
221 1 10.858707701467258 19.94724106797908 7.06603756889008 0 0 0
457 2 7.961337000418467 20.467136817124455 7.90111812235401 0 0 0
632 2 8.740817108438572 22.398286837594213 10.38112676364104 0 -1 0
657 2 -0.9794109041992416 21.243654561159047 5.759947116414218 0 0 1
232 1 1.832745365966876 23.03031487903491 8.856705222322107 2 -1 0
490 2 2.7053673490939785 21.264746979048347 6.4321986200435495 0 -1 0
384 2 2.957115808096119 23.00747206465713 7.790661860388596 0 -1 0
887 2 8.710024691187243 22.665166028671834 8.136201094915531 0 0 0
248 1 -0.7890334696121997 21.346575069107658 10.819845986570968 -1 -5 0
645 2 8.772206463894259 24.66626246335352 11.298334935765975 0 0 0
973 2 5.102779502229314 22.992168629544643 11.100192343621927 0 0 0
848 2 6.698912959556458 21.19397035576806 10.80882845613076 0 0 0
937 2 6.6103252462552655 23.864708244451258 7.643884157057503 0 0 0
828 2 5.73876098108072 20.635077846172685 8.681762368487528 0 -1 0
912 2 6.115659372304261 22.879915275780903 5.643263562828404 1 0 0
405 2 4.941508751201845 22.689788435830245 8.797278455219438 1 -1 0
75 1 -1.0869829546978806 20.915963853541783 11.378960575707161 3 -2 0
998 2 -1.254008165166269 17.724213692904236 11.499935114982604 1 0 0
3 1 2.877253149900409 15.925081415062339 11.476870437963568 -3 -2 0
890 2 0.5187727041778236 15.137544979777976 13.858683369371187 0 0 0
197 1 0.6266508233598977 16.075510887366768 12.72542623128822 2 0 0
253 1 0.6750560445149292 13.783812852066859 13.514869780809804 0 -1 0
73 1 2.9477077568967394 13.42633407463909 12.238003075841998 2 0 0
344 1 -0.15987777272009773 12.69705332172745 15.631575509248313 -2 -4 -1
71 1 -0.8427610173996845 15.25394401174024 14.252527932652029 2 -1 0
20 1 1.4212097875176641 15.398505060885585 14.893060687478892 1 -1 0
306 1 -0.33492895072652396 12.796139987486358 16.37303396113294 -1 0 0
93 1 4.690759412478367 12.60095762322063 13.951073253164973 1 1 0
323 1 3.9815736006875424 13.166790569199357 17.156177777145437 2 -2 0
307 1 5.001064103373946 13.242033918553838 13.920741222582881 -1 -1 0
866 2 3.5493277303327737 14.785247311816294 12.131162763931732 1 0 0
60 1 4.401652661235348 15.075065610140994 13.214109415750398 2 -2 -1
70 1 7.2305649789707065 13.758086633126625 12.40112949460526 -1 2 0
44 1 5.724414817005546 13.625143948952674 15.971118287559735 -2 -2 0
244 1 5.74823289538193 14.089399290722978 16.544418486512157 -2 -2 0
291 1 6.931817838981033 13.756579572668274 13.090991867289803 1 -1 0
818 2 7.441741317769809 23.138270833282817 14.464567581544856 0 0 0
64 1 -0.8535229532668711 15.600648507655515 16.57780469399617 2 1 0
169 1 -1.1506489141774674 18.329355110604773 17.105820897967348 1 -1 0
345 1 10.230625541803784 13.783349022621529 17.56208900102429 0 -1 -1
83 1 10.815785590706218 13.38969418800896 17.34864641332379 3 0 0
412 2 6.367070806034205 24.49720720562641 17.385552453845676 0 0 0
250 1 8.41909119439387 12.378182530200116 16.124559761689255 -3 2 1
277 1 8.730606077699647 12.213692845802079 16.75178790083701 0 -2 0
125 1 1.4289981043637563 20.784999503232683 17.096660044148443 1 -2 1
222 1 1.042220432200451 16.75327094756298 16.631044261076006 -2 0 0
985 2 -0.9086082185190081 18.532633554861505 15.720700706467257 0 0 0
176 1 0.3487836167059122 19.34646528964521 15.430240890764816 1 -3 0
136 1 1.3890646751323117 18.68648169578988 13.76064152745243 2 -1 -1
832 2 1.6919181464279824 17.149052873433853 17.85098799915906 0 0 0
334 1 -0.9261177371619207 17.029057517862483 15.136442079304006 -4 2 0
106 1 1.1667308711524575 18.01417538978815 13.904488717252491 -2 -5 -1
9 1 2.8154317580352224 17.9394078138641 17.585378264098317 4 -4 0
7 1 0.8566093191955457 12.38799249215139 11.86980021829865 -5 -8 0
514 2 7.307319931348111 19.41715950689573 12.420918561774009 0 -1 0
114 1 4.494007622452699 15.805320756743344 15.827439782651625 1 -2 0
337 1 4.653833707646036 16.535817345251516 15.676089550491897 4 -2 -1
62 1 7.037701605681971 20.048863435799632 13.820511393826745 -2 2 0
305 1 5.958078614848462 19.766779152613005 16.456226460013426 -4 -2 -1
89 1 6.172995461893742 18.44898941242314 12.484314057619862 1 -1 0
49 1 6.939820979620146 17.02153938483695 18.164331750299276 2 -1 -1
270 1 6.370112832693971 20.344819785560667 16.351129447779684 -2 -1 0
268 1 3.4648985988297563 18.081691658555755 12.997370673411389 0 0 0
10 1 4.164541504220483 18.323889632347253 13.231079050667157 1 -4 -1
223 1 10.610144657628483 16.201957912801163 12.632995977472516 -2 -2 0
95 1 9.46370335950479 20.226223504061736 15.519614468621858 3 1 -1
117 1 9.30253085461134 19.818449580365602 16.121173057723567 4 -2 1
194 1 7.884403016268374 22.143022220905998 15.477996215110258 0 -3 0
109 1 11.62881916783481 13.99685767350959 15.056448821256078 0 2 0
130 1 3.1561890422977426 23.83841061664026 16.258750035093435 -1 5 0
320 1 0.856037437814396 20.39002383571986 17.51269250100333 1 0 1
279 1 10.137942110603168 23.069666138389316 16.924788780770342 1 2 0
129 1 6.807557160592522 16.08039241550715 12.565171384347211 3 0 1
39 1 2.4883381584961612 23.73842280811612 16.5652197024858 -2 0 0
218 1 1.8443263599236772 20.287586815630753 11.944158605736412 2 -7 0
332 1 4.4236209237187625 21.824135482631668 15.813199935276264 0 -1 -1
299 1 -0.28165008976802386 19.39506795254504 12.400998276598537 0 1 0
725 2 10.90860622659233 22.475240929228214 13.313199265915197 0 0 0
330 1 4.565149332502784 21.58723588379255 16.49998972334687 1 -2 -1
5 1 6.80619550121226 22.51030595804189 13.3035779804006 3 -2 -1
298 1 6.167237464585632 22.9575050068687 17.2704264011223 -1 -1 0
179 1 3.9344743904030617 23.616379950111565 13.891000970812035 -1 0 0
557 2 9.351332224848752 24.085666193769654 13.555675287882512 0 0 0
871 2 10.397786123908345 24.55218417392097 17.137064983653012 0 -1 0
273 1 0.14131579230554703 19.81163887116844 12.974455338556403 1 -2 0
349 1 11.23248992456788 12.864446982069662 12.445543242579927 0 0 0
68 1 10.817507760282375 12.499027707213113 12.916533972859837 0 2 0
38 1 6.46444942377029 15.45089380291869 12.728565210692949 -2 0 0
46 1 2.398211637929875 20.710341797494877 12.023783606375474 3 -3 0
150 1 4.176955648761832 22.297013622559973 11.858351941071053 -1 2 0
132 1 9.260126855662941 19.87102321358605 17.897456233972562 0 1 0