LAMMPS data file via write_data, version 2 Apr 2025, timestep = 6560000, units = metal

1000 atoms
2 atom types

-1.584054432455753 23.824740510037593 xlo xhi
-1.584054432455753 23.824740510037593 ylo yhi
-1.584054432455753 23.824740510037593 zlo zhi

Atom Type Labels

1 H
2 Si

Masses

1 1.00784
2 28.0855

Atoms # atomic

658 2 1.6215805795223885 1.7643606624704211 3.0117786487167475 0 0 0
532 2 -0.09695992465308101 0.1201416253189973 2.979697327076316 0 0 0
99 1 1.7971054956892627 -1.360223855022053 -0.22829544365661558 0 2 -1
35 1 7.258824137180847 9.246520035666403 0.9507887344820558 1 -1 1
946 2 3.2834395740445492 1.7886121782808178 1.2049304401242869 1 1 0
749 2 4.994574948608663 0.5785576086631878 2.4923989370829833 0 0 0
936 2 4.119642166899579 -0.6943930222029293 4.138990323268688 0 1 0
575 2 3.116480185271387 1.17196680286678 -1.0005680202596432 0 0 1
786 2 6.350160232908635 2.5517026185889637 3.0287219736507858 0 0 0
477 2 6.823696754118712 -0.5486641399945609 1.3071802873447447 1 0 0
538 2 7.8820949804093114 1.2264865873775945 -0.0924458646488655 0 0 0
561 2 7.824536056326071 -0.7148628513577818 3.3823987545495156 0 1 0
552 2 10.116096212064685 1.555529731052494 0.31334948244926975 0 0 0
935 2 8.26743168034802 1.5282667468332969 3.8863159968732726 -1 0 1
842 2 10.401657257051207 1.8649542681515743 2.787911508931341 0 1 0
489 2 -0.311265189494905 8.395779221441737 4.651747198400816 0 0 1
759 2 -1.3576022716223244 2.637031754213017 0.07126962365976008 0 1 0
901 2 0.8892410457454729 3.9332743897496876 2.975940454621269 0 0 0
515 2 -0.015129681340580126 4.409669165271234 0.833211879017143 1 0 0
649 2 1.6790985193637522 4.476656293890677 -0.7746888556732859 0 0 0
519 2 -0.7485447920089375 6.543132436194767 0.5758978963798764 0 0 0
77 1 3.9427012905780465 3.1649995400472957 1.0870835011455777 5 2 -1
708 2 3.2329781725093403 4.69501845054789 3.43332138542788 0 0 0
982 2 3.683388657949057 5.591338437522626 -0.31740475597707385 0 0 0
541 2 3.979262292255794 6.374724904416693 1.930704698990203 0 0 0
585 2 5.440801440843914 4.10530523414366 -0.6263022677512028 0 0 0
529 2 5.069677010390169 3.8380292709975965 4.480973952142665 1 0 0
7 1 5.444216610955464 6.092535593581899 1.962795227652565 1 -1 0
512 2 7.009686823800674 3.2720736152614442 0.9109838234402647 0 0 0
24 1 10.048380859801725 10.54938632415578 1.7066287886957943 -1 0 0
436 1 9.390644637684469 7.921749917285737 0.5449379731510504 3 6 -1
445 1 8.769467239265031 5.380203345098363 -1.3638938670507048 -2 2 2
255 1 8.412296973488658 3.9010830080320016 0.9024574023357479 -1 0 0
449 1 9.979887787558326 8.214308005441149 0.18437407412459073 2 1 1
547 2 -1.4233916603673429 10.28616596547399 1.000335439992738 0 0 0
850 2 -0.8060451181829094 10.231571294092715 3.3779266107866075 1 0 0
634 2 0.06394050354450598 8.716602674235771 0.050501643054466694 0 0 1
530 2 1.9819805571489963 9.434336662650864 1.0312225921955913 0 0 0
639 2 2.0653779751479875 7.989692477385981 4.407239336061447 0 0 0
285 1 10.906155245560551 7.13509293390843 3.785406403655073 3 1 2
149 1 8.300704963071432 6.58879838509538 1.7398353404044617 0 -1 0
550 2 3.287771549181876 8.448436508228635 2.536237367271621 1 0 1
642 2 3.457692738174771 9.490689972752731 -0.7592763583468171 0 0 0
51 1 4.376320817916142 9.426021554606978 2.8368680631452596 0 -1 1
504 2 5.524167941238989 10.501620742044379 -1.3249159537240973 0 0 0
144 1 5.943200238315478 10.975691334116561 1.780519845921308 3 0 2
101 1 8.105360342753162 6.386138088112352 2.5173543029597276 2 1 -2
654 2 9.649381813957822 10.265224963607166 3.0565622180472376 1 0 0
89 1 8.162269429701121 10.348856833014477 3.299499805385085 4 0 0
569 2 6.827524097303403 10.596087246111985 0.6124078636391053 1 0 0
421 1 7.292196225507887 7.8727542824476675 3.7261026949300726 1 -1 1
326 1 10.231059920424574 9.040072898378865 3.6296197280780946 0 1 0
680 2 -0.32660365842322037 4.804891661299864 4.692815129829946 1 0 0
540 2 1.1155859584635115 0.785959870914422 6.47833015029596 1 0 0
546 2 2.0208562913598596 -0.5554037634960522 8.26252402878672 0 1 0
223 1 0.8988952071034748 -0.4614939837898513 9.191212372086719 1 0 -1
880 2 -0.7168540956313939 0.013544440648717737 5.321195309193086 1 0 0
156 1 9.799516564438731 10.796321214074805 5.8589955129041424 -1 -2 2
622 2 3.6981359290921842 0.6544529483919854 9.311439255915642 0 0 0
497 2 5.579857421246554 -0.6580920013080452 8.615750185781812 1 1 0
463 2 6.244964435066353 0.42014118445570414 6.659453550728543 0 0 0
773 2 4.539514301768776 2.1228227328577916 5.991295674359963 1 0 0
825 2 6.208700634086472 -1.117037777007487 4.974431224771271 0 0 0
948 2 3.6072371626235977 2.6284346520327757 8.027961524632575 0 1 0
909 2 2.749696307625528 0.9038799214626101 4.842095335528865 1 0 0
524 2 7.033016066500897 -0.34854892798691317 10.44239480177215 0 1 0
618 2 8.306625586282951 1.5922263350244275 6.175411132621812 0 0 0
316 1 9.427734230857968 1.1124460669476939 7.077115140164215 1 5 1
945 2 8.192362812385404 1.8107152312681989 10.162529797850294 0 0 0
142 1 9.116848540414578 1.6372582022287112 9.088050951603483 2 2 1
210 1 0.6664599454719302 2.6735695776954262 8.915435616085793 -1 -1 1
764 2 1.404168400473675 2.8165265300134976 7.650770250603413 1 0 0
595 2 1.0431979228905668 4.964836094126574 6.659685729074907 1 0 0
10 1 0.2607955159073194 6.693199564402303 9.445270398065295 0 -1 1
869 2 2.637561754394034 6.015073648300304 5.25798106919875 0 0 0
509 2 0.6864170455849994 6.747571166155268 7.993754638181546 0 0 0
71 1 5.636098098655189 5.065253157702407 5.2715192736608945 0 -1 0
368 1 6.897211757923188 7.693211279958813 10.00070108565894 1 1 1
95 1 0.24602618410941735 10.678143567739003 8.578147228322665 -3 0 3
447 1 4.551725941893141 3.7030000958918032 8.584135662489855 4 1 2
185 1 3.727586421753257 6.3090235799204395 6.182356238344885 -1 -2 1
205 1 7.044097815905316 3.9126157991819586 8.119725644086035 0 0 0
294 1 6.708371690821956 6.82815606304413 7.862739519508118 1 1 -1
306 1 7.238566089923113 5.220427328133873 9.544848140950629 -1 0 0
216 1 9.319617323775722 4.207675233872151 7.78266573019439 3 -2 0
372 1 8.229379798476874 5.0483623905891175 6.219810996988968 3 -1 0
802 2 8.047015856978614 3.869156833283742 7.028830706062456 0 1 0
59 1 10.165375952668585 5.064398905458314 10.501827341547573 2 0 0
64 1 9.983615008349473 6.358148198418306 5.751692194593654 5 1 1
265 1 9.978401790068489 5.730387130610048 6.024663484661104 -2 -5 0
343 1 7.245915673522859 2.8732609093203623 10.040464431615383 -1 0 0
140 1 -1.0829164593467322 -1.0376898534870576 10.818085064618073 0 -1 3
900 2 7.415569078287522 6.727267219468407 9.115798927547724 0 0 1
145 1 2.0413144856151293 7.523000129077561 8.170219080150774 0 0 0
133 1 1.1417114732415827 9.407723533421477 9.926539896003826 5 5 1
756 2 -0.744991433659452 8.347349008793994 6.910899638347027 1 1 0
539 2 -0.3869984760547449 10.569205050329003 7.2685986735050765 1 0 0
250 1 3.0934395011888736 10.749494995193952 5.386997371566059 0 0 3
673 2 9.501395549999698 9.409584166015383 6.378187596497995 0 0 0
232 1 6.194163175264077 9.660485580110654 4.879203834930287 2 1 2
84 1 2.055014080031104 9.239252750077222 7.015844888777231 -1 0 -1
428 1 4.5482248389133275 4.557385803613743 10.630237323072965 3 0 1
143 1 6.0060563458002765 7.453329964089296 5.986492230124563 2 -1 2
394 1 6.473164366532574 9.474511107298817 7.450059224785107 0 -1 1
155 1 6.93132948215945 10.029555622929584 7.17149342423647 0 2 0
88 1 2.584021056501437 7.194275246403224 10.799795454848446 1 3 -1
148 1 2.977981919444182 7.517102067121405 10.27549524501437 -1 4 3
56 1 4.471763256888499 9.38248847135598 6.551574794476798 0 0 1
707 2 3.2890189887409687 10.079761317750954 6.569429128586144 1 0 0
317 1 8.872402465392083 6.723544130608385 8.908943606908924 2 -3 2
337 1 10.758910882372895 6.812421165658426 7.764330885454248 -1 1 3
721 2 6.839879136422644 8.356251331997187 5.0512550850416895 0 1 0
212 1 9.296986708201926 9.274082145731878 7.792936108742255 2 -1 2
72 1 10.655956387962728 8.679052466280842 5.901141172696429 0 -1 1
234 1 8.317671885261918 9.782081102547009 10.294829004912398 -1 2 -3
292 1 8.299331414263351 8.479932318542076 5.585162092763737 3 -3 -1
319 1 0.4943641899632265 11.093081661137369 6.259700504630837 1 -3 -3
17 1 1.962927814888137 3.59265221419067 10.695516573472183 2 -3 -4
434 1 -1.4617070264307235 2.046358057438232 10.586706244474998 3 2 1
423 1 -1.472880069584607 5.040195260459611 9.41494655831959 -3 2 -1
244 1 5.111082996279876 4.120005749102333 10.756180626111261 -3 1 -1
943 2 9.600946066910337 9.842870762714831 11.118789522497107 0 0 0
367 1 -1.032154648898357 1.6853349707623955 16.245452265616578 3 1 2
224 1 0.5003835524186471 -0.5221564934919631 12.093875275807111 1 0 -1
346 1 -0.5143073862989043 0.8029482568459594 14.078900060847264 -2 -2 -3
598 2 1.7667481234463902 -0.44932497979048747 12.7476946339676 -1 0 1
153 1 1.5694555551340392 0.30274620056046464 13.9915752671464 1 -1 0
139 1 3.1115254394943435 0.3684838019552954 16.37352057105653 -6 0 -2
360 1 0.29762091207468977 2.110564540508735 12.290220082031958 2 -1 -1
617 2 -0.21183439627706058 2.112894971095079 13.64470762329294 1 0 -1
924 2 1.914291371459472 -0.35919350554061125 17.00136463995488 0 0 0
389 1 0.8164380227371542 0.5390562751962853 16.505882675869174 4 4 0
221 1 5.348958361137322 -0.42434512531864343 16.927390136691635 0 2 1
840 2 5.510085093417813 -0.318610451312872 12.236272786277766 0 1 0
724 2 3.550422376293791 0.6423561336444905 11.637689930010975 1 0 0
82 1 6.2092306577144 0.5902072512090433 15.35589992875562 5 3 -2
610 2 6.789358076738843 0.8998424975173949 14.00339010633952 0 0 1
118 1 4.074089149701549 3.663360123353754 13.984676456079027 2 4 0
55 1 3.5652140004527295 3.685358629817724 14.502590924866327 1 1 -3
404 1 6.961460990277905 2.2996447423207194 13.601925827945966 3 1 -1
381 1 9.886343119783241 0.018170882917807996 12.678111289831241 3 2 1
181 1 8.097477471306892 0.060389849699735265 13.70362077434317 -3 -5 -2
202 1 9.69625172831497 -0.20835321620115166 15.686154376224055 0 3 -1
608 2 10.288909796517954 -1.3680590644633235 12.143776977067244 0 1 0
581 2 7.78164043450167 7.261546800515701 17.42975038760352 0 0 0
15 1 9.433553899654976 2.6626150823045176 15.295742322135693 -2 -1 2
418 1 -1.0346939508729127 5.777410043022614 11.1664758135477 0 1 2
501 2 9.412188597456806 6.978418567143754 15.764645109001597 0 0 0
889 2 -0.6823681361528048 5.6677488558165425 12.706604930904417 0 0 0
174 1 0.878133951419573 2.6464671568580815 14.546341343638966 3 3 0
542 2 1.7381698901349574 5.6345107199291204 16.676966907567248 0 0 0
397 1 1.7012540143670485 5.589512825189816 15.208925564533393 -1 2 2
430 1 0.8665536529200097 5.6552716829555925 12.969785237629113 0 1 -1
8 1 2.75460422485562 7.366055436035062 13.0013304096506 1 0 -1
897 2 -1.0558733338631288 2.9230764228408033 17.096944947885937 0 1 0
356 1 -0.3347201359434171 10.21911210192063 11.66755705203529 2 1 1
209 1 7.3613524343879835 4.748754948126604 11.833898217302945 -4 -2 -1
12 1 6.017080630339907 2.7247782293059988 16.949446087345834 -1 0 3
324 1 3.0416799452898546 5.953813452927637 17.319316917912865 2 0 0
361 1 8.951510631900243 2.072232513842386 11.42768432684611 -3 0 -2
261 1 5.5416770427299 3.008377243100938 16.408186369847634 0 3 -1
163 1 2.559758412211151 7.786638343510614 12.47100643363717 -1 -3 0
211 1 6.9601865966267376 4.239689959187735 12.177461882177958 2 0 0
129 1 9.565109101093762 3.1638374728554632 14.783920619523988 -2 -1 -1
180 1 7.071811143224517 6.174641394969449 14.383494003542534 -1 0 0
229 1 10.304236030312776 5.744782723794436 15.922807716129322 -3 0 -4
420 1 8.860993573966455 5.534809846905161 13.00887910539452 -1 -1 -1
495 2 8.374666670634241 6.770514150067548 13.676368962571553 0 0 0
231 1 0.09357428142190471 8.063544429054557 11.645312480885188 2 0 1
3 1 -1.2577220990148594 6.930033103021312 13.366473839968686 -1 -3 2
882 2 9.315881039267495 10.727894057703816 15.297024581495526 0 0 0
313 1 1.9048859425226254 9.628260361721 12.050982243554268 0 0 -1
720 2 0.3493493716062064 7.443107360598052 17.154694973516683 0 0 0
559 2 2.030023918160234 10.434498475717323 15.48597739175061 0 0 -1
505 2 0.5047475468969007 8.703314483185485 15.3426000969499 1 0 0
226 1 0.9624612231000977 7.50411368225571 14.506737078631184 3 -2 1
580 2 0.7050901371659051 9.298461634057388 11.313749202478471 1 0 1
676 2 5.394949554604587 8.552234117926824 14.66847960109605 0 0 0
203 1 6.732518537577661 8.240222923845423 11.679114676277614 5 0 3
186 1 3.7124861421816266 9.900409228590307 12.754785403905696 8 1 -2
798 2 6.1537015285548256 9.012826222210846 16.80707869431245 1 0 0
846 2 3.951924059002029 10.29430817956188 14.16507820039039 0 0 -1
37 1 4.803626613791028 7.111243427555751 14.809376201587915 1 1 3
458 2 10.057950414970056 7.799332731809841 12.085374404808482 0 0 0
830 2 7.087699718834482 8.608448209559812 13.026607449487658 1 0 0
701 2 8.396311076563066 10.578591336279736 12.977344846819685 0 0 0
818 2 7.5100390584064645 10.908711792071038 16.767120652268204 0 0 0
640 2 10.68223515151746 8.91902802004293 15.512910482893163 0 0 0
281 1 10.595794577402227 3.940288161302865 17.267730953122786 3 1 -2
328 1 10.277561154679795 3.339676578592729 16.77039749714288 2 -1 0
348 1 1.637780623670463 3.101388173436269 11.242281186314026 -1 -1 -2
888 2 1.1343159778158869 0.32572958150406617 20.64960379416862 1 0 0
560 2 -1.2132945249785436 0.07010792065802396 19.927117929607384 0 0 0
920 2 0.38654475580703074 -0.3708016954829212 22.753182087175837 0 0 -1
105 1 -1.0500966292657237 -1.1575170021602292 19.109874617472244 1 1 0
905 2 -0.5724724349478902 1.6784518431222186 23.51288079525063 0 1 -1
752 2 2.5406547355776077 -0.5407977166789089 19.20924470693356 0 0 -1
459 2 -1.4663240776778905 -1.5062624286375808 23.61280037362372 1 0 0
460 2 4.504828048843221 0.8275703435050787 19.510563014257094 0 0 -1
663 2 4.813995295024281 2.3457099538318356 23.333043180728737 0 0 0
146 1 4.333652083404344 1.3476265063032953 18.17425765922806 4 0 3
854 2 4.1976173441639695 2.4632143509425823 21.065986642433273 0 0 0
681 2 6.138099711023036 -1.5163320803337643 23.006061159469454 1 0 -1
694 2 6.817893860217151 0.8078361203567419 23.32494062211682 0 0 0
730 2 6.8905065015989155 0.49954903526779226 19.625872147731812 0 0 0
132 1 7.348886341533511 1.4161646073987733 18.520714245348756 1 1 0
470 2 8.16755763359385 1.2100806788879397 21.545889473362266 0 0 -1
805 2 10.15357793810236 -0.058578237768585506 21.317853771474418 0 1 -1
9 1 8.333132616321544 2.735893932099744 21.65130692626063 1 0 2
536 2 10.991280458602278 -0.693847411964532 19.222947056723115 0 0 0
276 1 11.003163172686913 0.6414384937537361 18.7651778591419 -4 1 -2
893 2 11.112955566198487 10.517746856562294 18.99190251736615 0 0 0
964 2 1.6213237676935486 2.5364130207096682 23.346518062914456 0 0 0
881 2 1.8659454435895708 2.6171548729032885 21.057568164750528 1 0 0
816 2 -0.7157227047612218 5.186371504954861 21.07909024373798 0 0 -1
994 2 0.21009736069579943 5.593277045785768 23.24199716446673 1 0 0
737 2 1.0526117191736764 4.452986103731717 19.83802052351443 0 0 -1
689 2 1.1458358594995657 3.6200798969857644 17.67848205523358 0 0 0
713 2 2.66305934487998 11.04618767149778 17.61778983377164 0 0 0
411 1 10.41748609354989 8.6595333887756 22.37305160815408 1 0 -2
923 2 4.46556197794763 6.322576373950957 20.30825858470071 0 0 -1
576 2 4.938839589786005 4.204955221994328 19.796058583402754 0 0 -1
274 1 4.356388592791031 3.9962956658086206 18.353596689727787 -1 0 -2
362 1 6.496686822851268 6.529568682740603 22.788282389157352 -1 1 -1
251 1 6.408586392876447 4.375376332771174 19.6323320837407 -2 1 -2
366 1 9.525941515690041 4.4185163862269565 20.45038928071539 0 -1 -3
2 1 10.426050170771473 3.893534034044145 23.54233440386097 2 0 -2
120 1 7.083817596677294 5.995098133372471 17.73186279749386 -1 1 2
323 1 9.320656616745728 5.035942809310212 20.857133981873467 -3 -1 1
983 2 2.1685908998105945 6.643019116793221 20.351315494769757 0 0 0
819 2 1.8868243824107647 10.76183363519279 23.30433276560222 0 0 0
863 2 1.20908048768039 10.735342248294176 19.391177327671898 1 0 -1
833 2 1.6547573376376303 7.271574687905792 22.54010522667948 0 0 -1
848 2 0.8080853117792905 8.223852052465427 19.287734015577968 0 0 0
597 2 0.36327131149081815 9.162462990401567 23.175471369947367 0 0 0
844 2 -1.1292576299553616 7.538218495255048 20.34563157380751 0 0 0
158 1 5.199249547449728 6.995731205834664 19.197003492823633 1 -1 0
702 2 4.372489710198463 9.380858312535254 18.25328891386399 0 0 0
579 2 5.3451738625706655 7.252105882603331 22.298104070279045 0 0 -1
490 2 6.19810467306706 9.356834498891834 22.069275771248833 0 0 0
318 1 3.63187188208466 8.043701182846062 18.37557167244575 0 -1 -1
623 2 5.697142920936355 10.346968381571338 19.98351176395512 0 0 0
866 2 3.5240530993877552 7.480407356501821 23.697824478089004 0 0 0
435 1 2.0729372747889587 2.4572405985337733 17.513461696771678 -2 -2 -3
167 1 10.009031948944937 6.571269089152375 19.527450033539758 1 2 0
403 1 7.591716831050311 8.973215418655236 22.347025078179414 2 0 -2
719 2 8.81922833309817 7.553567177391171 19.576550377430806 0 0 0
164 1 9.391253528652895 10.428467829341935 23.430598593077356 0 -2 -4
75 1 8.140393822390376 6.6570891344943615 20.747431601555682 -3 -4 0
791 2 9.23476057813371 9.752415108879406 20.157200369373882 0 0 0
544 2 10.186930372636244 10.103957384489535 22.25388903241341 0 0 0
706 2 2.2854687708876034 -1.0447071685594203 23.809032993614785 1 1 -1
36 1 9.214173528148597 5.754484206279371 23.608955155894044 1 0 -1
587 2 1.6259048306917272 12.688602317431048 -0.6161259827496548 0 0 0
988 2 -0.35470836309155307 13.848035275449224 -0.7265233111607325 0 0 0
609 2 0.8153203845710375 11.931513396388727 3.471024278250126 0 0 1
625 2 -0.5552077252093452 13.767316950921952 3.3848310213204593 1 0 0
910 2 2.0666263981078696 11.717171238531144 1.5685113549682717 0 0 0
130 1 -0.17613689798799093 14.82350457597819 2.6329811592021546 1 2 1
342 1 -1.118298550186465 14.347253998261536 4.625183173312946 -1 1 0
21 1 1.8460922223091982 11.856212646049071 4.501842352471468 0 0 3
198 1 3.4974851025632923 12.070776339195975 1.8082709628742122 -1 -1 -2
853 2 3.387862041386388 14.14534324995904 -1.2732916866322808 0 0 0
437 1 3.8279371549453405 14.313735184542317 3.2848895473784836 3 2 1
755 2 4.726123042182438 14.624274759894396 2.240804201845667 0 -1 0
257 1 5.83162526921788 13.599684905449761 1.9246549615748725 1 -3 0
855 2 1.5210303438365527 22.34427694907611 4.7191786856051285 0 0 0
217 1 4.473189587032427 11.631175997795761 4.119438531513614 1 0 0
334 1 7.9612737666443 11.471920005298685 0.6583843932673763 -1 0 0
228 1 7.451407246159276 13.728815865719698 -0.26971763067626364 0 0 0
173 1 9.926289535684296 13.765438019884433 2.7048673633320943 -2 0 0
401 1 7.867138198512533 13.954553507968823 1.8646953938941655 -1 0 -4
68 1 10.098765153906193 11.427923707860751 3.7634577585972426 1 -1 1
385 1 8.334449022452674 14.786894547715482 4.050727957839097 -1 1 1
997 2 8.871156830579771 14.719278294724853 2.684415610607733 0 0 0
39 1 -1.4167318948855119 19.03737954074674 -1.4135509549492156 1 4 -1
5 1 6.897199332961971 11.850911305941247 4.206615872669342 -1 1 2
4 1 -0.4906558162198107 16.58772273347394 4.127245121511768 -1 -1 -2
127 1 -0.9804634031878015 16.575668270537513 1.2537188690798056 -1 2 1
971 2 -0.15642643401767398 16.112796212084305 0.020028494614697134 1 0 0
564 2 2.033735291419784 16.99258707247038 0.2212190888726593 0 0 1
192 1 2.0893944628286216 17.71374006149459 1.5061348283078488 1 -1 0
126 1 -0.8375101003590638 16.915929409234835 -1.0801003900394415 1 1 -3
111 1 0.1609647328129611 18.695226082252375 4.513239890612458 2 0 0
227 1 -0.2887009507945464 16.545577298041017 3.418259409944593 5 -3 -3
425 1 0.6072971099003053 19.835722046858685 -0.9874118918697594 -1 -2 1
303 1 5.667896107632506 15.559869386115436 2.9573060932139663 0 1 1
753 2 4.110469164068952 15.661978025739996 0.2752356362824606 1 0 0
723 2 5.460885027485214 17.237983233953138 -0.8426759898369872 0 0 0
659 2 6.699181943689483 18.940777857374563 0.4217924245341105 0 0 1
194 1 3.3480423344190617 19.92307010612462 2.6129950092855374 0 0 0
781 2 7.16363451964175 18.819228113342234 4.651061977405473 0 0 0
46 1 10.37281346464116 16.715025884123783 -1.0418004577778195 -1 0 1
991 2 10.288548666694583 17.718842275810793 -0.07186590983155439 0 -1 0
976 2 7.887037193819724 18.54747366947199 2.398447001967188 0 -1 1
985 2 9.36411098451754 16.829517518188545 1.8342792177313836 0 0 0
83 1 10.921093786403754 17.081695883220675 2.81999584964589 -4 2 -1
175 1 8.880624649495932 19.60637271245721 2.402004610660498 0 -1 1
954 2 9.075342948185403 21.718202608189706 0.4112740317563657 0 0 0
431 1 0.8508590808772256 21.983008535492367 -0.012133033156941364 3 -2 -1
166 1 0.5602424177452052 21.52539894057618 3.8756371382193606 1 3 2
958 2 1.495773391466419 20.6168939519362 -0.10280556515138417 0 -1 0
170 1 1.334189651658782 20.383668753512566 1.2836729079359985 -3 1 3
383 1 -1.1234459216294865 22.732334029450925 1.6788059746682844 3 -2 1
137 1 2.1806946541868184 23.286848002576946 2.0549764331561358 0 0 1
815 2 10.378586679883002 21.900241434391162 2.3141035879583978 0 -1 0
633 2 3.0422185185000474 22.888492282751294 3.1967529021304486 0 0 0
507 2 3.7794664485150395 20.816614172697797 -0.9070205926161147 0 0 1
513 2 4.329899397081058 20.904238331145706 2.825457519431229 0 0 0
769 2 5.433293418555416 20.958075278036652 0.7771104498636703 0 0 0
90 1 6.746266487213916 23.04987063773399 -1.0455840695096121 0 0 0
567 2 6.891646787167803 22.643618087170516 0.47605084824374533 0 -1 0
558 2 10.67878790043727 20.291555471596958 4.051688934980723 0 0 0
614 2 10.210590534977115 22.986153457587967 -1.123217440141852 0 0 0
612 2 8.828106428163093 19.660987214088628 -0.6119198672293565 0 -1 0
750 2 9.916131639963746 23.75474670273767 3.7583630041335097 0 -1 0
653 2 8.97907013793591 19.899540333333462 5.630846860067463 0 0 0
304 1 -1.413041859499762 22.26027637303276 5.730275590201016 2 1 0
43 1 0.6608416746729748 12.668232711298437 10.499691978762968 2 3 1
135 1 3.4512372777787874 13.422649811994347 6.052703341542308 4 2 -1
222 1 2.8859729079040717 13.562621188025377 6.56730351011884 1 0 3
322 1 3.4953035990458314 11.143932894145669 7.629109499726022 2 -1 0
416 1 5.040461953808899 14.82019342078778 6.9005796896273 0 -1 1
354 1 6.098631684939703 12.379787285877825 9.100122507121522 1 -2 0
308 1 6.425891124058811 12.359422142080195 8.434232934059272 3 0 -1
429 1 5.510194762954485 11.73889079345004 6.248761762619925 1 0 -1
295 1 10.703973484562841 15.730037794152851 6.700216157762895 2 1 0
266 1 3.0826558995811526 11.722482807533178 10.881235713725328 0 -1 5
514 2 9.179382776694458 21.77159000254298 8.882659962257097 0 0 0
92 1 7.930205025952432 11.360390229898801 6.874668475863444 2 0 0
402 1 9.254812832497388 13.135034774060411 5.345474986966261 0 1 -2
104 1 7.455323236444309 13.80844743681646 6.53563406443009 2 2 1
682 2 8.461210895366724 12.736276013936378 6.435429463026029 0 -1 0
329 1 9.423817948075602 13.051682433270205 7.633222578240025 2 -1 0
377 1 10.886062434393656 11.931852340256807 9.002931622517588 -1 0 0
256 1 -0.5752324420314854 16.227629600950095 10.882990629265096 1 1 1
208 1 1.2095319039575942 14.910113700344974 7.287732958577138 6 0 2
199 1 0.6454694175385405 15.227254300074007 7.0151482003871095 3 -2 -3
391 1 -0.4921251483345406 15.63754845938112 10.464322435890441 -2 -1 0
517 2 -0.3277078668850326 18.3157445297174 5.879290818799124 0 0 0
406 1 2.1796684784437024 17.60077286242243 7.805660501476455 3 -2 -2
27 1 0.10058587162086985 19.209867320038178 8.776512767334358 3 1 -1
147 1 0.2766576868778736 17.118022894542037 6.509747169668577 0 1 0
289 1 2.9920941603561237 18.692388892953147 5.16511190301061 2 3 2
103 1 6.385099031166874 15.59815288122446 9.333275909954203 -2 -1 -1
369 1 3.2356295744191543 15.77226170750866 10.048857559168162 0 -1 -2
746 2 6.169581921532977 16.619232952938823 10.295061644802782 0 0 0
739 2 4.570806100306341 16.114036183005794 6.304217662017903 0 0 0
464 2 3.9713868628550024 17.02175384310837 9.868511388126894 0 0 0
955 2 3.607258886424484 17.744175256336014 7.667448243968908 0 -1 0
134 1 3.868676686517084 15.785719189045148 5.069968124320169 2 2 0
986 2 3.6781610565475464 19.546641497923567 6.2526518227784615 0 -1 0
960 2 6.696941994493862 16.86264668111285 5.733162542840825 1 0 0
407 1 7.138498253961867 15.722540080447361 4.949843323842179 0 1 1
106 1 -0.8892153453085947 18.215475040389805 10.648631523053647 -3 0 -2
717 2 7.011226248249018 18.671087377177614 9.271858018368388 0 0 0
928 2 8.34810997643117 21.892650191795546 6.6727068998849255 0 0 0
851 2 10.809892134131537 18.301096538581298 10.553849561081494 0 0 0
190 1 8.849062038275154 16.262248607796785 9.98046984566883 0 -4 5
440 1 8.454897443943668 16.03891899360756 8.085933748836373 0 -1 2
475 2 10.348571648176033 15.975380412792367 10.311086849536458 0 0 0
465 2 8.045794225477346 17.38434661542778 7.632005764935375 0 0 0
589 2 10.091126825478861 18.197170043022126 6.951673849075528 -1 -1 0
473 2 8.894273305154488 19.631819437498564 10.017794226165252 1 0 0
771 2 8.56094628008134 23.254336414262966 10.665065960167189 0 -1 0
747 2 5.334766109525267 20.375151366140052 4.897611529450437 0 0 0
966 2 0.03881790127624085 19.915531692895108 7.495462391019846 0 0 0
45 1 -1.0209622365849307 22.867587809052672 9.145394181127719 2 1 1
136 1 0.8097813598224062 20.877964558587536 10.235594806198131 0 0 1
272 1 -0.8019475959536999 21.065592047511046 7.781877277291281 -1 1 0
915 2 1.8985978891928785 20.95573428541516 6.648650799946502 0 -1 0
962 2 1.9634711733775272 21.91005776012014 10.25719973328423 0 -1 0
912 2 10.143544709451447 23.456177371071817 6.08674481890347 0 0 0
183 1 0.7044368510119496 23.316138319784628 5.304209821192641 2 -1 0
374 1 10.841324782790814 14.166642374502729 7.975151019194048 0 -2 1
779 2 2.7768073164311016 22.560495771399545 8.195068176540888 0 -1 0
534 2 5.649498244629398 20.723326037673665 9.873837426373594 0 0 0
767 2 6.160885213633752 22.262652589957064 5.987414996393269 0 0 0
957 2 5.136490308132023 22.43838351135752 8.156906703154467 1 -1 0
273 1 1.1622993545428955 12.932562570294953 10.945308498833436 1 5 3
405 1 1.370666617459976 23.142467568202605 10.979986494928104 2 0 3
47 1 3.372794740303589 12.375293918799976 10.766963916136286 2 0 -2
26 1 5.640015471605446 13.586314894264326 4.824423659617298 2 -1 -2
376 1 10.328670666485756 15.949811908010554 4.798791009091711 1 1 0
508 2 5.619616599506509 12.14225709748894 4.768512443913291 2 0 0
705 2 0.8638646943558377 12.168217883611627 14.471131209397486 0 0 0
488 2 1.883979690012636 14.129328538306451 15.356168965188393 0 0 0
141 1 1.1317610022233429 11.831813842481973 13.079325541615125 1 0 1
76 1 -0.7536639276472076 13.737376981060779 12.672719799923142 0 1 -1
599 2 -1.3632270543845828 12.114939796598389 15.137443305258463 0 0 0
269 1 3.035048227906154 14.18905891416233 12.524751692199954 -1 4 -4
849 2 5.1952968894576275 12.36610144141932 14.167153267546892 1 0 0
604 2 3.7508546492309724 14.13684280166162 13.881343481885695 1 0 0
703 2 6.411779371241685 12.769706068717953 15.955520966003187 0 0 0
484 2 2.7453848317957776 13.388525346033964 17.389615890904295 0 0 0
615 2 7.060419378177649 12.380300330395475 12.540138425177076 0 0 0
574 2 8.272735208857183 14.021460570951785 15.465887129977324 0 0 0
638 2 10.242177128595655 12.747524767840474 15.649566439564095 0 0 0
989 2 8.085014086148986 14.43806476363847 13.214666011732552 0 0 0
794 2 10.379982256792191 15.217084753838735 12.57703862155432 0 0 0
363 1 6.444317911024148 12.64320720021287 11.177736326280204 2 1 4
452 2 0.5328668445912554 16.039697409021656 15.71493416631475 1 0 0
963 2 1.803487497677804 18.031381510504573 15.267599255808234 0 0 0
258 1 0.7408317247759131 19.026422415678248 14.916161945000406 0 -1 1
446 1 1.6908650781968824 18.258494080796694 11.334157694131527 2 0 0
280 1 -1.532245315925003 23.798732168777043 13.335941985917753 1 -3 -3
353 1 -0.3951530615701686 18.167072447264054 11.157958099629079 2 -1 0
86 1 -1.2943420467850801 19.38480872060328 16.05631429327544 1 -1 0
699 2 2.5532272109621497 18.539885587320285 17.46276842090198 0 0 0
743 2 3.140814468797557 18.392666607267287 11.57831670608829 0 0 0
687 2 5.623441101132881 16.086595859226286 16.591312284869844 0 0 -1
543 2 3.7650246280173887 17.9707363825951 13.925213595627216 0 0 0
763 2 4.974856995056025 16.023906857050918 14.250242869900896 0 0 0
872 2 6.627278059478339 16.191056226068213 12.541345997051074 0 0 0
725 2 5.440879740137464 19.563217548779775 14.42560146644931 1 0 0
992 2 10.8709334910275 17.22979586551594 14.176110782702015 0 0 0
594 2 7.09717623665113 18.309797036648824 13.287838498009178 0 0 0
777 2 8.738382765013874 17.565237656677482 14.888198031143679 0 0 0
668 2 7.902677331414743 16.124329440397297 16.428253978765845 0 0 0
38 1 0.637912841922363 20.85087238717623 17.211467293781986 -2 0 -1
499 2 9.009421260239618 19.690541304762057 15.70120695668785 1 0 0
438 1 -0.8357423312685646 20.762713564643207 12.734717742018873 3 -2 -1
410 1 0.279528456136948 21.52849088483265 17.437452815455778 0 -1 1
41 1 2.273461664468587 23.638533174512112 13.24899048077944 1 4 3
321 1 1.862156369359203 23.79293759147353 16.30525574529601 2 -1 0
586 2 5.832233124857403 23.70524556322802 17.206101461669142 0 0 0
115 1 3.2354303706897705 21.775513356159195 14.114110569275637 2 0 0
50 1 3.37074934162328 21.99716659385254 16.41748657758656 3 -1 -1
782 2 5.965895757566629 22.984168319532152 13.248386518342897 0 -1 0
727 2 4.391422616280733 21.291290189930102 13.378332026161656 1 0 0
861 2 6.972920434308421 20.752223478355383 15.861301382982036 0 0 0
531 2 7.026539825127507 23.025238600219232 15.34267518091812 0 -1 0
577 2 8.095980312324187 19.971995940539557 12.198667095915834 1 0 0
751 2 10.577295449564609 22.519729975474817 13.822913893320653 0 0 0
528 2 10.837032123714803 20.071562860309292 17.21888995420123 0 0 0