 vasp.6.5.0 16Dec24 (build Jan 20 2025 08:32:48) complex                         
 executed on        HPECrayEX_GCC date 2025.07.29  02:10:35
 running  128 mpi-ranks, with    1 threads/rank, on    1 nodes
 distrk:  each k-point on  128 cores,    1 groups
 distr:  one band on NCORE=  16 cores,    8 groups


--------------------------------------------------------------------------------------------------------


 INCAR:
   SYSTEM = a-Si SPC
   NCORE = 16
   ISTART = 1
   ICHARG = 1
   ISPIN = 1
   ISYM = 1
   EDIFF = 1E-6
   NELM = 150
   EDIFFG = -0.01
   NSW = 0
   ISIF = 2
   IBRION = -1
   PREC = Accurate
   ENCUT = 1200
   KSPACING = 0.23
   KGAMMA = .TRUE.
   METAGGA = SCAN
   LASPH = .TRUE.
   LDIAG = .FALSE.
   LMIXTAU = .TRUE.
   ADDGRID = .TRUE.
   ALGO = Normal
   ISMEAR = 0
   SIGMA = 0.1
   LORBIT = 11
   NEDOS = 2000
   LWAVE = .FALSE.
   LCHARG = .FALSE.

 POTCAR:    PAW_PBE H 15Jun2001                   
 POTCAR:    PAW_PBE Si 05Jan2001                  
 POTCAR:    PAW_PBE H 15Jun2001                   
   SHA256 =  030f79b5d3ab3cf0e668861823c8fb652ff669f3e15e46930bd03bfd63a607b6 H/POTCAR              
   COPYR  = (c) Copyright 15Jun2001 Georg Kresse                                                    
   COPYR  = This file is part of the software VASP. Any use, copying, and all other rights are regul
   COPYR  = If you do not have a valid VASP license, you may not use, copy or distribute this file. 
   VRHFIN =H: ultrasoft test                                                                        
   LEXCH  = PE                                                                                      
   EATOM  =    12.4884 eV,    0.9179 Ry                                                             
                                                                                                    
   TITEL  = PAW_PBE H 15Jun2001                                                                     
   LULTRA =        F    use ultrasoft PP ?                                                          
   IUNSCR =        0    unscreen: 0-lin 1-nonlin 2-no                                               
   RPACOR =    0.000    partial core radius                                                         
   POMASS =    1.000; ZVAL   =    1.000    mass and valenz                                          
   RCORE  =    1.100    outmost cutoff radius                                                       
   RWIGS  =    0.700; RWIGS  =    0.370    wigner-seitz radius (au A)                               
   ENMAX  =  250.000; ENMIN  =  200.000 eV                                                          
   RCLOC  =    0.701    cutoff for local pot                                                        
   LCOR   =        T    correct aug charges                                                         
   LPAW   =        T    paw PP                                                                      
   EAUG   =  400.000                                                                                
   RMAX   =    1.123    core radius for proj-oper                                                   
   RAUG   =    1.200    factor for augmentation sphere                                              
   RDEP   =    1.112    radius for radial grids                                                     
   RDEPT  =    0.926    core radius for aug-charge                                                  
                                                                                                    
   Atomic configuration                                                                             
    2 entries                                                                                       
     n  l   j            E        occ.                                                              
     1  0  0.50        -6.4927   1.0000                                                             
     2  1  0.50        -3.4015   0.0000                                                             
   Description                                                                                      
     l       E           TYP  RCUT    TYP  RCUT                                                     
     0     -6.4927494     23  1.100                                                                 
     0      6.8029130     23  1.100                                                                 
     1     -4.0817478     23  1.100                                                                 
  local pseudopotential read in
  atomic valenz-charges read in
  non local Contribution for L=           0  read in
    real space projection operators read in
  non local Contribution for L=           0  read in
    real space projection operators read in
  non local Contribution for L=           1  read in
    real space projection operators read in
    PAW grid and wavefunctions read in

   number of l-projection  operators is LMAX  =           3
   number of lm-projection operators is LMMAX =           5

 POTCAR:    PAW_PBE Si 05Jan2001                  
   SHA256 =  79d9987ad8750f624c4d6acb2a16d13abf6a777132adc04dc6c8399be72b42bb Si/POTCAR             
   COPYR  = (c) Copyright 05Jan2001 Georg Kresse                                                    
   COPYR  = This file is part of the software VASP. Any use, copying, and all other rights are regul
   COPYR  = If you do not have a valid VASP license, you may not use, copy or distribute this file. 
   VRHFIN =Si: s2p2                                                                                 
   LEXCH  = PE                                                                                      
   EATOM  =   103.0669 eV,    7.5752 Ry                                                             
                                                                                                    
   TITEL  = PAW_PBE Si 05Jan2001                                                                    
   LULTRA =        F    use ultrasoft PP ?                                                          
   IUNSCR =        1    unscreen: 0-lin 1-nonlin 2-no                                               
   RPACOR =    1.500    partial core radius                                                         
   POMASS =   28.085; ZVAL   =    4.000    mass and valenz                                          
   RCORE  =    1.900    outmost cutoff radius                                                       
   RWIGS  =    2.480; RWIGS  =    1.312    wigner-seitz radius (au A)                               
   ENMAX  =  245.345; ENMIN  =  184.009 eV                                                          
   ICORE  =        2    local potential                                                             
   LCOR   =        T    correct aug charges                                                         
   LPAW   =        T    paw PP                                                                      
   EAUG   =  322.069                                                                                
   DEXC   =    0.000                                                                                
   RMAX   =    1.950    core radius for proj-oper                                                   
   RAUG   =    1.300    factor for augmentation sphere                                              
   RDEP   =    1.993    radius for radial grids                                                     
   RDEPT  =    1.837    core radius for aug-charge                                                  
                                                                                                    
   Atomic configuration                                                                             
    6 entries                                                                                       
     n  l   j            E        occ.                                                              
     1  0  0.50     -1785.8828   2.0000                                                             
     2  0  0.50      -139.4969   2.0000                                                             
     2  1  1.50       -95.5546   6.0000                                                             
     3  0  0.50       -10.8127   2.0000                                                             
     3  1  0.50        -4.0811   2.0000                                                             
     3  2  1.50        -4.0817   0.0000                                                             
   Description                                                                                      
     l       E           TYP  RCUT    TYP  RCUT                                                     
     0    -10.8127223     23  1.900                                                                 
     0     -7.6451159     23  1.900                                                                 
     1     -4.0811372     23  1.900                                                                 
     1      2.4879257     23  1.900                                                                 
     2     -4.0817478      7  1.900                                                                 
  local pseudopotential read in
  partial core-charges read in
  partial kinetic energy density read in
  atomic valenz-charges read in
  non local Contribution for L=           0  read in
    real space projection operators read in
  non local Contribution for L=           0  read in
    real space projection operators read in
  non local Contribution for L=           1  read in
    real space projection operators read in
  non local Contribution for L=           1  read in
    real space projection operators read in
    PAW grid and wavefunctions read in

   number of l-projection  operators is LMAX  =           4
   number of lm-projection operators is LMMAX =           8

 -----------------------------------------------------------------------------
|                                                                             |
|               ----> ADVICE to this user running VASP <----                  |
|                                                                             |
|     You have a (more or less) 'large supercell' and for larger cells it     |
|     might be more efficient to use real-space projection operators.         |
|     Therefore, try LREAL= Auto in the INCAR file.                           |
|     Mind: For very accurate calculation, you might also keep the            |
|     reciprocal projection scheme (i.e. LREAL=.FALSE.).                      |
|                                                                             |
 -----------------------------------------------------------------------------

 -----------------------------------------------------------------------------
|                                                                             |
|               ----> ADVICE to this user running VASP <----                  |
|                                                                             |
|     You enforced a specific xc type in the INCAR file but a different       |
|     type was found in the POTCAR file.                                      |
|     I HOPE YOU KNOW WHAT YOU ARE DOING!                                     |
|                                                                             |
 -----------------------------------------------------------------------------

  PAW_PBE H 15Jun2001                   :
 energy of atom  1       EATOM=  -12.4884
 kinetic energy error for atom=    0.0000 (will be added to EATOM!!)
  PAW_PBE Si 05Jan2001                  :
 energy of atom  2       EATOM= -103.0669
 kinetic energy error for atom=    0.0001 (will be added to EATOM!!)


 POSCAR:  H Si
  positions in cartesian coordinates
  No initial velocities read in


 exchange-correlation table for SCAN
   RHO(1)=    0.500       N(1)  =     2000
   RHO(2)=  100.500       N(2)  =     4000



--------------------------------------------------------------------------------------------------------


 ion  position               nearest neighbor table
   1  0.405  0.828  0.381-  57 1.49
   2  0.947  0.529  0.499-  44 1.53
   3  0.100  0.026  0.506-  14 1.50
   4  0.628  0.916  0.347-  70 1.48
   5  0.872  0.732  0.470-  85 1.50
   6  0.603  0.432  0.499-  53 2.29  29 2.32  33 2.34  72 2.34
   7  0.713  0.969  0.607-  81 2.36  10 2.36  54 2.41  67 3.09
   8  0.131  0.428  0.520-  75 2.35  35 2.36  44 2.39  38 2.46  17 3.09  46 3.11
   9  0.399  0.274  0.515-  53 2.28  37 2.31  36 2.33  58 2.37  73 2.98
  10  0.551  0.967  0.611-  12 2.32  74 2.36   7 2.36
  11  0.840  0.320  0.429-  30 2.30  16 2.33  17 2.37  63 2.40  13 3.13
  12  0.508  0.851  0.558-  10 2.32  48 2.37  69 2.37  18 2.37
  13  0.656  0.209  0.426-  30 2.25  33 2.28  83 2.28  11 3.13
  14  0.124  0.934  0.485-   3 1.50  47 2.30  19 2.31  34 2.34  15 3.05
  15  0.261  0.028  0.417-  59 2.38  40 2.38  47 2.62  19 2.63  14 3.05
  16  0.735  0.424  0.396-  50 2.27  11 2.33  33 2.35
  17  0.999  0.348  0.443-  45 2.36  11 2.37  25 2.37  38 2.61   8 3.09
  18  0.505  0.900  0.475-  78 2.31  57 2.32  40 2.34  12 2.37
  19  0.281  0.936  0.498-  14 2.31  31 2.35  87 2.36  40 2.40  15 2.63
  20  0.018  0.925  0.597-  34 2.33  84 2.35  76 2.36
  21  0.076  0.612  0.422-  44 2.37  24 2.37  64 2.38  45 2.39
  22  0.359  0.497  0.548-  68 2.28  35 2.34  53 2.36  43 2.39
  23  0.687  0.729  0.402-  86 2.37  32 2.39  70 2.40  60 2.46  50 2.96
  24  0.976  0.700  0.372-  27 2.30  86 2.35  21 2.37
  25  0.069  0.202  0.451-  79 2.27  17 2.37  59 2.38  82 2.43
  26  0.873  0.067  0.413-  79 2.28  30 2.30  62 2.31  49 2.43
  27  0.972  0.855  0.390-  62 2.30  24 2.30  85 2.37  47 2.40
  28  0.137  0.658  0.618-  77 2.29  52 2.32  65 2.32
  29  0.743  0.446  0.539-   6 2.32  56 2.34  63 2.38  42 2.39  51 3.07
  30  0.791  0.192  0.387-  13 2.25  26 2.30  11 2.30
  31  0.281  0.016  0.573-  84 2.33  19 2.35  39 2.41  74 2.42
  32  0.670  0.676  0.484-  72 2.35  69 2.36  42 2.37  23 2.39  60 2.93  50 2.97
  33  0.599  0.354  0.424-  13 2.28   6 2.34  61 2.34  16 2.35
  34  0.023  0.837  0.526-  65 2.33  20 2.33  85 2.34  14 2.34
  35  0.236  0.420  0.586-  22 2.34  52 2.34   8 2.36  58 2.38
  36  0.468  0.128  0.516-   9 2.33  74 2.37  40 2.37  83 2.38
  37  0.328  0.300  0.440-   9 2.31  75 2.31  59 2.39  61 2.46
  38  0.992  0.337  0.538-  82 2.39  46 2.44   8 2.46  63 2.52  17 2.61
  39  0.209  0.155  0.544-  58 2.32  82 2.37  31 2.41  59 2.44
  40  0.403  0.021  0.460-  18 2.34  36 2.37  15 2.38  19 2.40
  41  0.753  0.165  0.535-  81 2.35  49 2.36  83 2.39  63 2.42
  42  0.800  0.588  0.508-  50 2.35  32 2.37  29 2.39  80 2.45
  43  0.310  0.541  0.468-  75 2.30  64 2.32  55 2.34  22 2.39
  44  0.046  0.565  0.503-   2 1.53  65 2.34  21 2.37   8 2.39  64 3.01
  45  0.095  0.454  0.401-  75 2.31  17 2.36  21 2.39
  46  0.983  0.455  0.601-  52 2.36  51 2.36  38 2.44   8 3.11
  47  0.097  0.960  0.403-  79 2.29  14 2.30  27 2.40  15 2.62
  48  0.377  0.754  0.562-  68 2.34  87 2.36  12 2.37  77 2.37
  49  0.852  0.052  0.501-  67 2.33  76 2.34  41 2.36  26 2.43  81 3.04
  50  0.793  0.560  0.423-  86 2.25  16 2.27  42 2.35  23 2.96  32 2.97
  51  0.852  0.546  0.619-  80 2.35  46 2.36  56 2.36  29 3.07
  52  0.127  0.501  0.632-  28 2.32  35 2.34  46 2.36
  53  0.482  0.391  0.548-   9 2.28   6 2.29  73 2.33  22 2.36
  54  0.772  0.824  0.578-  69 2.31  67 2.34   7 2.41  80 2.52
  55  0.444  0.530  0.422-  43 2.34  61 2.34  60 2.35  72 2.44
  56  0.701  0.486  0.619-  29 2.34  51 2.36  66 2.38
  57  0.438  0.786  0.427-   1 1.49  18 2.32  60 2.33  87 2.36
  58  0.296  0.268  0.582-  39 2.32  71 2.36   9 2.37  35 2.38
  59  0.230  0.171  0.456-  15 2.38  25 2.38  37 2.39  39 2.44
  60  0.532  0.662  0.406-  57 2.33  55 2.35  23 2.46  72 2.58  32 2.93
  61  0.450  0.377  0.394-  33 2.34  55 2.34  37 2.46
  62  0.842  0.936  0.369-  27 2.30  26 2.31  70 2.31
  63  0.825  0.311  0.517-  29 2.38  11 2.40  41 2.42  38 2.52
  64  0.210  0.665  0.463-  43 2.32  87 2.33  21 2.38  44 3.01
  65  0.030  0.688  0.558-  28 2.32  34 2.33  44 2.34  80 2.37
  66  0.604  0.611  0.598-  68 2.32  69 2.33  56 2.38
  67  0.782  0.908  0.505-  49 2.33  54 2.34  78 2.35  85 2.35   7 3.09
  68  0.459  0.614  0.564-  22 2.28  66 2.32  48 2.34  72 2.41
  69  0.636  0.750  0.559-  54 2.31  66 2.33  32 2.36  12 2.37
  70  0.693  0.891  0.387-   4 1.48  62 2.31  78 2.34  23 2.40
  71  0.391  0.202  0.643-  73 2.32  58 2.36  74 2.37
  72  0.541  0.580  0.489-   6 2.34  32 2.35  68 2.41  55 2.44  60 2.58
  73  0.514  0.276  0.605-  71 2.32  53 2.33   9 2.98
  74  0.431  0.073  0.595-  10 2.36  71 2.37  36 2.37  31 2.42
  75  0.220  0.416  0.449-  43 2.30  37 2.31  45 2.31   8 2.35
  76  0.954  0.063  0.567-  49 2.34  20 2.36  82 2.36  81 2.42
  77  0.247  0.771  0.614-  84 2.29  28 2.29  48 2.37
  78  0.651  0.957  0.462-  18 2.31  70 2.34  67 2.35  83 2.41
  79  0.022  0.098  0.395-  25 2.27  26 2.28  47 2.29
  80  0.869  0.681  0.573-  51 2.35  65 2.37  42 2.45  54 2.52
  81  0.810  0.100  0.607-  41 2.35   7 2.36  76 2.42  49 3.04
  82  0.049  0.184  0.539-  76 2.36  39 2.37  38 2.39  25 2.43
  83  0.623  0.112  0.490-  13 2.28  36 2.38  41 2.39  78 2.41
  84  0.178  0.912  0.608-  77 2.29  31 2.33  20 2.35
  85  0.905  0.829  0.468-   5 1.50  34 2.34  67 2.35  27 2.37
  86  0.819  0.664  0.364-  50 2.25  24 2.35  23 2.37
  87  0.315  0.779  0.483-  64 2.33  48 2.36  57 2.36  19 2.36

  LATTYP: Found a simple tetragonal cell.
 ALAT       =    14.5342042383
 C/A-ratio  =     1.8829167701
  
  Lattice vectors:
  
 A1 = (  14.5342042383,   0.0000000000,   0.0000000000)
 A2 = (   0.0000000000,  14.5342042383,   0.0000000000)
 A3 = (   0.0000000000,   0.0000000000,  27.3666969000)


Analysis of symmetry for initial positions (statically):
=====================================================================
 Subroutine PRICEL returns:
 Original cell was already a primitive cell.
 

 Routine SETGRP: Setting up the symmetry group for a 
 simple tetragonal supercell.


 Subroutine GETGRP returns: Found  1 space group operations
 (whereof  1 operations were pure point group operations)
 out of a pool of 16 trial point group operations.


The static configuration has the point symmetry C_1 .


Analysis of symmetry for dynamics (positions and initial velocities):
=====================================================================
 Subroutine PRICEL returns:
 Original cell was already a primitive cell.
 

 Routine SETGRP: Setting up the symmetry group for a 
 simple tetragonal supercell.


 Subroutine GETGRP returns: Found  1 space group operations
 (whereof  1 operations were pure point group operations)
 out of a pool of 16 trial point group operations.


The dynamic configuration has the point symmetry C_1 .


 Subroutine INISYM returns: Found  1 space group operations
 (whereof  1 operations are pure point group operations),
 and found     1 'primitive' translations


----------------------------------------------------------------------------------------

                                     Primitive cell                                     

  volume of cell :    5781.0257

  direct lattice vectors                    reciprocal lattice vectors
    14.534204238  0.000000000  0.000000000     0.068803216  0.000000000  0.000000000
     0.000000000 14.534204238  0.000000000     0.000000000  0.068803216  0.000000000
     0.000000000  0.000000000 27.366696900     0.000000000  0.000000000  0.036540764

  length of vectors
    14.534204238 14.534204238 27.366696900     0.068803216  0.068803216  0.036540764

  position of ions in fractional coordinates (direct lattice)
     0.404656263  0.827619422  0.380782644
     0.946992912  0.528994461  0.499256586
     0.099567856  0.025817160  0.506195943
     0.628407336  0.915781237  0.347228144
     0.872256285  0.731743739  0.469895489
     0.602882156  0.432425058  0.498807348
     0.712947338  0.969415958  0.606548301
     0.130587037  0.428386142  0.520406047
     0.399085423  0.273556888  0.514616884
     0.550712841  0.967402952  0.611149933
     0.840295575  0.319856024  0.429333929
     0.508058167  0.850577837  0.557804183
     0.656229011  0.208603564  0.426279399
     0.124455113  0.934247767  0.484634174
     0.261211307  0.028300218  0.416543599
     0.735091105  0.423779934  0.396429094
     0.998740534  0.348453144  0.442740066
     0.505349965  0.899526563  0.475046290
     0.281478377  0.935915103  0.498272823
     0.018197474  0.925499526  0.597367910
     0.075625417  0.612262060  0.421895300
     0.359063402  0.496688992  0.548282913
     0.687387308  0.729113159  0.402011447
     0.975716111  0.700278385  0.371989081
     0.069091814  0.202304763  0.451204132
     0.872852875  0.066969777  0.413480169
     0.971536885  0.854894886  0.390239594
     0.137465254  0.658201860  0.617939241
     0.742672075  0.446050029  0.539416347
     0.790836894  0.192443109  0.386786319
     0.280558214  0.015632308  0.573089346
     0.669882334  0.676417610  0.484024970
     0.598578584  0.354323930  0.424252342
     0.022893954  0.836747149  0.526327210
     0.236274455  0.420339696  0.585581226
     0.467519460  0.128486404  0.515713256
     0.328031713  0.299826949  0.440374284
     0.991650296  0.337419479  0.537684253
     0.209215104  0.154904317  0.543623359
     0.403138619  0.020887460  0.460075218
     0.753273038  0.165411895  0.534551688
     0.799672852  0.588232892  0.507805912
     0.310083056  0.540668518  0.468202050
     0.045568498  0.565380792  0.503101676
     0.094553901  0.453535898  0.400995122
     0.982684521  0.455468090  0.601148457
     0.096643395  0.959933692  0.402912658
     0.377353183  0.753668799  0.561932447
     0.851624592  0.051987615  0.501255164
     0.792925062  0.559766970  0.423174407
     0.852330016  0.546339175  0.619364464
     0.127360122  0.501338918  0.631805249
     0.481891968  0.390677260  0.547902972
     0.771928259  0.824412331  0.577826427
     0.444173871  0.529817896  0.421522624
     0.701455923  0.485756890  0.619282300
     0.438242009  0.786026460  0.427179064
     0.296290963  0.267956334  0.581770565
     0.229784696  0.170904085  0.455576949
     0.532229189  0.662305905  0.405985461
     0.449833823  0.377418855  0.393823699
     0.841955611  0.936325549  0.368622249
     0.825124570  0.311437247  0.516535614
     0.210419281  0.664587058  0.462699539
     0.029514858  0.688179292  0.557635109
     0.604306944  0.611101459  0.598203560
     0.782035810  0.907868640  0.504902774
     0.458614978  0.614421879  0.563692030
     0.636334022  0.749896416  0.558930876
     0.693271873  0.891475884  0.386958408
     0.391091709  0.202423213  0.642581552
     0.540738118  0.580028692  0.489194491
     0.513873884  0.275761238  0.604695553
     0.431243026  0.072650525  0.594952027
     0.220064407  0.415734424  0.449033266
     0.953682791  0.063499600  0.567292449
     0.247258058  0.770962434  0.613520483
     0.651031524  0.957308567  0.461897517
     0.022347875  0.097879394  0.394772033
     0.869131371  0.681126087  0.572530290
     0.809518042  0.100038319  0.607073609
     0.048964120  0.183644113  0.538626216
     0.622956729  0.112174692  0.489611070
     0.178002581  0.911837265  0.608327308
     0.905306984  0.829389822  0.468012468
     0.819031323  0.664155167  0.364166680
     0.315120074  0.779226704  0.483431284

  ion indices of the primitive-cell ions
   primitive index   ion index
                 1           1
                 2           2
                 3           3
                 4           4
                 5           5
                 6           6
                 7           7
                 8           8
                 9           9
                10          10
                11          11
                12          12
                13          13
                14          14
                15          15
                16          16
                17          17
                18          18
                19          19
                20          20
                21          21
                22          22
                23          23
                24          24
                25          25
                26          26
                27          27
                28          28
                29          29
                30          30
                31          31
                32          32
                33          33
                34          34
                35          35
                36          36
                37          37
                38          38
                39          39
                40          40
                41          41
                42          42
                43          43
                44          44
                45          45
                46          46
                47          47
                48          48
                49          49
                50          50
                51          51
                52          52
                53          53
                54          54
                55          55
                56          56
                57          57
                58          58
                59          59
                60          60
                61          61
                62          62
                63          63
                64          64
                65          65
                66          66
                67          67
                68          68
                69          69
                70          70
                71          71
                72          72
                73          73
                74          74
                75          75
                76          76
                77          77
                78          78
                79          79
                80          80
                81          81
                82          82
                83          83
                84          84
                85          85
                86          86
                87          87

----------------------------------------------------------------------------------------


 -----------------------------------------------------------------------------
|                                                                             |
|           W    W    AA    RRRRR   N    N  II  N    N   GGGG   !!!           |
|           W    W   A  A   R    R  NN   N  II  NN   N  G    G  !!!           |
|           W    W  A    A  R    R  N N  N  II  N N  N  G       !!!           |
|           W WW W  AAAAAA  RRRRR   N  N N  II  N  N N  G  GGG   !            |
|           WW  WW  A    A  R   R   N   NN  II  N   NN  G    G                |
|           W    W  A    A  R    R  N    N  II  N    N   GGGG   !!!           |
|                                                                             |
|     The requested file  could not be found or opened for reading            |
|     k-point information. Automatic k-point generation is used as a          |
|     fallback, which may lead to unwanted results.                           |
|                                                                             |
 -----------------------------------------------------------------------------



Automatic generation of k-mesh.
 Grid dimensions derived from KSPACING:
 generate k-points for:    2    2    1

 Generating k-lattice:

  Cartesian coordinates                     Fractional coordinates (reciprocal lattice)
     0.034401608  0.000000000  0.000000000     0.500000000  0.000000000  0.000000000
     0.000000000  0.034401608  0.000000000     0.000000000  0.500000000  0.000000000
     0.000000000  0.000000000  0.036540764     0.000000000  0.000000000  1.000000000

  Length of vectors
     0.034401608  0.034401608  0.036540764

  Shift w.r.t. Gamma in fractional coordinates (k-lattice)
     0.000000000  0.000000000  0.000000000

 
 Subroutine IBZKPT returns following result:
 ===========================================
 
 Found      4 irreducible k-points:
 
 Following reciprocal coordinates:
            Coordinates               Weight
  0.000000  0.000000  0.000000      1.000000
  0.500000  0.000000  0.000000      1.000000
  0.000000  0.500000  0.000000      1.000000
  0.500000  0.500000  0.000000      1.000000
 
 Following cartesian coordinates:
            Coordinates               Weight
  0.000000  0.000000  0.000000      1.000000
  0.034402  0.000000  0.000000      1.000000
  0.000000  0.034402  0.000000      1.000000
  0.034402  0.034402  0.000000      1.000000
 


--------------------------------------------------------------------------------------------------------




 Dimension of arrays:
   k-points           NKPTS =      4   k-points in BZ     NKDIM =      4   number of bands    NBANDS=    216
   number of dos      NEDOS =   2000   number of ions     NIONS =     87
   non local maximal  LDIM  =      4   non local SUM 2l+1 LMDIM =      8
   total plane-waves  NPLWV = ******
   max r-space proj   IRMAX =      1   max aug-charges    IRDMAX= 418033
   dimension x,y,z NGX =   168 NGY =  168 NGZ =  320
   dimension x,y,z NGXF=   336 NGYF=  336 NGZF=  640
   support grid    NGXF=   672 NGYF=  672 NGZF= 1280
   ions per type =               5  82
   NGX,Y,Z   is equivalent  to a cutoff of  19.22, 19.22, 19.44 a.u.
   NGXF,Y,Z  is equivalent  to a cutoff of  38.43, 38.43, 38.88 a.u.

 SYSTEM =  a-Si SPC                                
 POSCAR =   H Si                                   

 Startparameter for this run:
   NWRITE =      2    write-flag & timer
   PREC   = accura    normal or accurate (medium, high low for compatibility)
   ISTART =      1    job   : 0-new  1-cont  2-samecut
   ICHARG =      1    charge: 1-file 2-atom 10-const
   ISPIN  =      1    spin polarized calculation?
   LNONCOLLINEAR =      F non collinear calculations
   LSORBIT =      F    spin-orbit coupling
   INIWAV =      1    electr: 0-lowe 1-rand  2-diag
   LASPH  =      T    aspherical Exc in radial PAW
 Electronic Relaxation 1
   ENCUT  = 1200.0 eV  88.20 Ry    9.39 a.u.  41.05 41.05 77.30*2*pi/ulx,y,z
   ENINI  = 1200.0     initial cutoff
   ENAUG  =  400.0 eV  augmentation charge cutoff
   NELM   =    150;   NELMIN=  2; NELMDL=  0     # of ELM steps 
   EDIFF  = 0.1E-05   stopping-criterion for ELM
   LREAL  =      F    real-space projection
   NLSPLINE    = F    spline interpolate recip. space projectors
   LCOMPAT=      F    compatible to vasp.4.4
   GGA_COMPAT  = T    GGA compatible to vasp.4.4-vasp.4.6
   LMAXPAW     = -100 max onsite density
   LMAXMIX     =    2 max onsite mixed and CHGCAR
   VOSKOWN=      0    Vosko Wilk Nusair interpolation
   ROPT   =    0.00000   0.00000
 Ionic relaxation
   EDIFFG = -.1E-01   stopping-criterion for IOM
   NSW    =      0    number of steps for IOM
   NBLOCK =      1;   KBLOCK =      1    inner block; outer block 
   IBRION =     -1    ionic relax: 0-MD 1-quasi-New 2-CG
   NFREE  =      0    steps in history (QN), initial steepest desc. (CG)
   ISIF   =      2    stress and relaxation
   IWAVPR =     10    prediction:  0-non 1-charg 2-wave 3-comb
   ISYM   =      1    0-nonsym 1-usesym 2-fastsym
   LCORR  =      T    Harris-Foulkes like correction to forces

   POTIM  = 0.5000    time-step for ionic-motion
   TEIN   =    0.0    initial temperature
   TEBEG  =    0.0;   TEEND  =   0.0 temperature during run
   SMASS  =  -3.00    Nose mass-parameter (am)
   estimated Nose-frequenzy (Omega)   =  0.10E-29 period in steps = 0.13E+47 mass=  -0.483E-26a.u.
   SCALEE = 1.0000    scale energy and forces
   NPACO  =    256;   APACO  = 10.0  distance and # of slots for P.C.
   PSTRESS=    0.0 pullay stress

  Mass of Ions in am
   POMASS =   1.00 28.09
  Ionic Valenz
   ZVAL   =   1.00  4.00
  Atomic Wigner-Seitz radii
   RWIGS  =  -1.00 -1.00
  virtual crystal weights 
   VCA    =   1.00  1.00
   NELECT =     333.0000    total number of electrons
   NUPDOWN=      -1.0000    fix difference up-down

 DOS related values:
   EMIN   =  10.00;   EMAX   =-10.00  energy-range for DOS
   EFERMI =   0.00;   METHOD = LEGACY      
   ISMEAR =     0;   SIGMA  =   0.10  broadening in eV -4-tet -1-fermi 0-gaus
   EFERMI_NEDOS =   21; number of points for ismear=-14 and -15

 Electronic relaxation 2 (details)
   IALGO  =     38    algorithm
   LDIAG  =      F    sub-space diagonalisation (order eigenvalues)
   LSUBROT=      F    optimize rotation matrix (better conditioning)
   TURBO    =      0    0=normal 1=particle mesh
   IRESTART =      0    0=no restart 2=restart with 2 vectors
   NREBOOT  =      0    no. of reboots
   NMIN     =      0    reboot dimension
   EREF     =   0.00    reference energy to select bands
   IMIX   =      4    mixing-type and parameters
     AMIX     =   0.40;   BMIX     =  1.00
     AMIX_MAG =   1.60;   BMIX_MAG =  1.00
     AMIN     =   0.10
     WC   =   100.;   INIMIX=   1;  MIXPRE=   1;  MAXMIX= -45

 Intra band minimization:
   WEIMIN = 0.0000     energy-eigenvalue tresh-hold
   EBREAK =  0.12E-08  absolut break condition
   DEPER  =   0.30     relativ break condition  

   TIME   =   0.40     timestep for ELM

  volume/ion in A,a.u.               =      66.45       448.42
  Fermi-wavevector in a.u.,A,eV,Ry     =   0.632249  1.194777  5.438771  0.399738
  Thomas-Fermi vector in A             =   1.695500

 Write flags
   LWAVE        =      F    write WAVECAR
   LDOWNSAMPLE  =      F    k-point downsampling of WAVECAR
   LCHARG       =      F    write CHGCAR
   LVTOT        =      F    write LOCPOT, total local potential
   LVHAR        =      F    write LOCPOT, Hartree potential only
   WRT_POTENTIAL= false  ! write potential to hdf5 file
   LELF         =      F    write electronic localiz. function (ELF)
   LORBIT       =     11    0 simple, 1 ext, 2 COOP (PROOUT), +10 PAW based schemes


 Python interface
   PLUGINS active      =      F    recompile with -DPLUGINS to activate

 Dipole corrections
   LMONO      =      F    monopole corrections only (constant potential shift)
   LDIPOL     =      F    correct potential (dipole corrections)
   IDIPOL     =      0    1-x, 2-y, 3-z, 4-all directions 
   EPSILON    =  1.0000000 bulk dielectric constant
   LVACPOTAV  =      F  vacuum potentials using an averaging scheme for the charge density
   VACPOTFLAT =  0.1000000 required flatness to determine vacuum potential

Coulomb truncation method
  LTRUNCATE          =      F  Coulomb kernel truncation to be used
  IDIMENSIONALITY    =      3  Dimensionality of cutoff (0 molecules / 2 surfaces)
  ISURFACE           =     -1  Direction of surface normal
  LCOARSEN           =      F  Coarsen the charge grid before padding, preferred


 Exchange correlation treatment:
   METAGGA = SCAN    functional components
   XC_C    = 1    coefficients multiplying the functional components
   LIBXC   =     F    Libxc                    
   VOSKOWN =     0    Vosko Wilk Nusair interpolation
   LHFCALC =     F    Hartree Fock is set to
   LHFONE  =     F    Hartree Fock one center treatment
   AEXX    =    0.0000 exact exchange contribution

 Parameters of functionals:
   SCAN:
     P1 =  0.000000E+00
     P2 =  0.000000E+00
     P3 =  0.000000E+00

 Accuracy and mixing parameters for tau-dependent meta-GGA functionals:
   LMAXTAU = 6
   LMIXTAU = T

 Van der Waals corrections
   IVDW    =     0    specifies the selected vdW correction

 Linear response parameters
   LEPSILON=     F    determine dielectric tensor
   LRPA    =     F    only Hartree local field effects (RPA)
   LNABLA  =     F    use nabla operator in PAW spheres
   LVEL    =     F    velocity operator in full k-point grid
   CSHIFT  =0.1000    complex shift for real part using Kramers Kronig
   OMEGAMAX=  -1.0    maximum frequency
   DEG_THRESHOLD= 0.2000000E-02 threshold for treating states as degnerate
   RTIME   =   -0.100 relaxation time in fs
  (WPLASMAI=    0.000 imaginary part of plasma frequency in eV, 0.658/RTIME)
   DFIELD  = 0.0000000 0.0000000 0.0000000 field for delta impulse in time

  Optional k-point grid parameters
   LKPOINTS_OPT  =     F    use optional k-point grid
   KPOINTS_OPT_MODE=     1    mode for optional k-point grid

 Orbital magnetization related:
   ORBITALMAG=     F  switch on orbital magnetization
   LCHIMAG   =     F  perturbation theory with respect to B field
   DQ        =  0.001000  dq finite difference perturbation B field
   LLRAUG    =     F  two centre corrections for induced B field
   LBONE     =     F  B-component reconstruction in AE one-centre
   LVGVCALC  =     T  calculate vGv susceptibility
   LVGVAPPL  =     F  apply vGv susceptibility instead of pGv for G=0

 Random number generation:
   RANDOM_GENERATOR = DEFAULT
   PCG_SEED         = not used


--------------------------------------------------------------------------------------------------------


 Static calculation
 charge density and potential will be updated during run
 non-spin polarized calculation
 Variant of blocked Davidson
 perform Loewdin sub-space diagonalisation
    ordering is kept fixed
    before iterative eigenvector-optimisation
 modified Broyden-mixing scheme, WC =      100.0
 initial mixing is a Kerker type mixing with AMIX =  0.4000 and BMIX =      1.0000
 Hartree-type preconditioning will be used
 using additional bands           49
 reciprocal scheme for non local part
 use partial core corrections
 calculate Harris-corrections to forces   (improved forces if not selfconsistent)
 use gradient corrections 
 use of overlap-Matrix (Vanderbilt PP)
 Gauss-broadening in eV      SIGMA  =   0.10


--------------------------------------------------------------------------------------------------------


  energy-cutoff  :     1200.00
  volume of cell :     5781.03
      direct lattice vectors                 reciprocal lattice vectors
    14.534204238  0.000000000  0.000000000     0.068803216  0.000000000  0.000000000
     0.000000000 14.534204238  0.000000000     0.000000000  0.068803216  0.000000000
     0.000000000  0.000000000 27.366696900     0.000000000  0.000000000  0.036540764

  length of vectors
    14.534204238 14.534204238 27.366696900     0.068803216  0.068803216  0.036540764



 old parameters found on file WAVECAR:
  energy-cutoff  :     1200.00
  volume of cell :     5781.03
      direct lattice vectors                 reciprocal lattice vectors
    14.534204238  0.000000000  0.000000000     0.068803216  0.000000000  0.000000000
     0.000000000 14.534204238  0.000000000     0.000000000  0.068803216  0.000000000
     0.000000000  0.000000000 27.366696900     0.000000000  0.000000000  0.036540764

  length of vectors


 k-points in units of 2pi/SCALE and weight: read from INCAR                         
   0.00000000  0.00000000  0.00000000       0.250
   0.03440161  0.00000000  0.00000000       0.250
   0.00000000  0.03440161  0.00000000       0.250
   0.03440161  0.03440161  0.00000000       0.250

 k-points in reciprocal lattice and weights: read from INCAR                         
   0.00000000  0.00000000  0.00000000       0.250
   0.50000000  0.00000000  0.00000000       0.250
   0.00000000  0.50000000  0.00000000       0.250
   0.50000000  0.50000000  0.00000000       0.250

 position of ions in fractional coordinates (direct lattice) 
   0.40465626  0.82761942  0.38078264
   0.94699291  0.52899446  0.49925659
   0.09956786  0.02581716  0.50619594
   0.62840734  0.91578124  0.34722814
   0.87225628  0.73174374  0.46989549
   0.60288216  0.43242506  0.49880735
   0.71294734  0.96941596  0.60654830
   0.13058704  0.42838614  0.52040605
   0.39908542  0.27355689  0.51461688
   0.55071284  0.96740295  0.61114993
   0.84029558  0.31985602  0.42933393
   0.50805817  0.85057784  0.55780418
   0.65622901  0.20860356  0.42627940
   0.12445511  0.93424777  0.48463417
   0.26121131  0.02830022  0.41654360
   0.73509110  0.42377993  0.39642909
   0.99874053  0.34845314  0.44274007
   0.50534997  0.89952656  0.47504629
   0.28147838  0.93591510  0.49827282
   0.01819747  0.92549953  0.59736791
   0.07562542  0.61226206  0.42189530
   0.35906340  0.49668899  0.54828291
   0.68738731  0.72911316  0.40201145
   0.97571611  0.70027838  0.37198908
   0.06909181  0.20230476  0.45120413
   0.87285288  0.06696978  0.41348017
   0.97153688  0.85489489  0.39023959
   0.13746525  0.65820186  0.61793924
   0.74267207  0.44605003  0.53941635
   0.79083689  0.19244311  0.38678632
   0.28055821  0.01563231  0.57308935
   0.66988233  0.67641761  0.48402497
   0.59857858  0.35432393  0.42425234
   0.02289395  0.83674715  0.52632721
   0.23627446  0.42033970  0.58558123
   0.46751946  0.12848640  0.51571326
   0.32803171  0.29982695  0.44037428
   0.99165030  0.33741948  0.53768425
   0.20921510  0.15490432  0.54362336
   0.40313862  0.02088746  0.46007522
   0.75327304  0.16541190  0.53455169
   0.79967285  0.58823289  0.50780591
   0.31008306  0.54066852  0.46820205
   0.04556850  0.56538079  0.50310168
   0.09455390  0.45353590  0.40099512
   0.98268452  0.45546809  0.60114846
   0.09664339  0.95993369  0.40291266
   0.37735318  0.75366880  0.56193245
   0.85162459  0.05198761  0.50125516
   0.79292506  0.55976697  0.42317441
   0.85233002  0.54633917  0.61936446
   0.12736012  0.50133892  0.63180525
   0.48189197  0.39067726  0.54790297
   0.77192826  0.82441233  0.57782643
   0.44417387  0.52981790  0.42152262
   0.70145592  0.48575689  0.61928230
   0.43824201  0.78602646  0.42717906
   0.29629096  0.26795633  0.58177056
   0.22978470  0.17090409  0.45557695
   0.53222919  0.66230590  0.40598546
   0.44983382  0.37741885  0.39382370
   0.84195561  0.93632555  0.36862225
   0.82512457  0.31143725  0.51653561
   0.21041928  0.66458706  0.46269954
   0.02951486  0.68817929  0.55763511
   0.60430694  0.61110146  0.59820356
   0.78203581  0.90786864  0.50490277
   0.45861498  0.61442188  0.56369203
   0.63633402  0.74989642  0.55893088
   0.69327187  0.89147588  0.38695841
   0.39109171  0.20242321  0.64258155
   0.54073812  0.58002869  0.48919449
   0.51387388  0.27576124  0.60469555
   0.43124303  0.07265053  0.59495203
   0.22006441  0.41573442  0.44903327
   0.95368279  0.06349960  0.56729245
   0.24725806  0.77096243  0.61352048
   0.65103152  0.95730857  0.46189752
   0.02234788  0.09787939  0.39477203
   0.86913137  0.68112609  0.57253029
   0.80951804  0.10003832  0.60707361
   0.04896412  0.18364411  0.53862622
   0.62295673  0.11217469  0.48961107
   0.17800258  0.91183726  0.60832731
   0.90530698  0.82938982  0.46801247
   0.81903132  0.66415517  0.36416668
   0.31512007  0.77922670  0.48343128

 position of ions in cartesian coordinates  (Angst):
   5.88135677 12.02878971 10.42076320
  13.76378840  7.68851353 13.66300367
   1.44713955  0.37523188 13.85291094
   9.13340057 13.31015154  9.50248736
  12.67755099 10.63531296 12.85948743
   8.76241239  6.28495411 13.65070950
  10.36212222 14.08968952 16.59922350
   1.89797866  6.22625168 14.24179454
   5.80038904  3.97593168 14.08336429
   8.00417291 14.06043208 16.72515498
  12.21302751  4.64885278 11.74945151
   7.38422116 12.36247200 15.26525800
   9.53776647  3.03188681 11.66585910
   1.80885603 13.57854785 13.26283654
   3.79649848  0.41132115 11.39942243
  10.68396425  6.15930411 10.84895485
  14.51589891  5.06448916 12.11633320
   7.34485961 13.07390278 13.00044784
   4.09106422 13.60278126 13.63608131
   0.26448580 13.45139913 16.34798654
   1.09915526  8.89874183 11.54588080
   5.21870082  7.21897925 15.00469229
   9.99062753 10.59707957 11.00172542
  14.18125723 10.17798907 10.18011243
   1.00419454  2.94033875 12.34796671
  12.68622196  0.97335241 11.31558647
  14.12051551 12.42521687 10.67956869
   1.99794808  9.56644026 16.91095591
  10.79414762  6.48298222 14.76204366
  11.49418493  2.79700745 10.58506395
   4.07769038  0.22720316 15.68356244
   9.73620666  9.83119170 13.24616465
   8.69986339  5.14981637 11.61038525
   0.33274541 12.16145396 14.40383722
   3.43406119  6.10930299 16.02542391
   6.79502332  1.86744764 14.11336836
   4.76767991  4.35774611 12.05158955
  14.41284793  4.90412362 14.71464198
   3.04077505  2.25141098 14.87717569
   5.85929903  0.30358261 12.59073905
  10.94822418  2.40413027 14.62891401
  11.62260856  8.54949699 13.89697047
   4.50681046  7.85818667 12.81314358
   0.66230185  8.21735990 13.76823108
   1.37426571  6.59178337 10.97391195
  14.28253753  6.61986624 16.45144761
   1.40463484 13.95187234 11.02638859
   5.48452823 10.95397626 15.37823495
  12.37768575  0.75559861 13.71769813
  11.52453479  8.13576747 11.58088572
  12.38793853  7.94060515 16.94995957
   1.85107802  7.28656222 17.29042276
   7.00391629  5.67818309 14.99429457
  11.21936298 11.98217720 15.81320070
   6.45571376  7.70048151 11.53568188
  10.19510365  7.06008985 16.94771100
   6.36949886 11.42426910 11.69047997
   4.30635337  3.89453208 15.92113871
   3.33973770  2.48395488 12.46763627
   7.73552774  9.62608929 11.11048107
   6.53797666  5.48548272 10.77765379
  12.23715481 13.60874676 10.08797336
  11.99252902  4.52649256 14.13587358
   3.05827680  9.65924404 12.66255804
   0.42897498 10.00213838 15.26063102
   8.78312055  8.88187342 16.37085550
  11.36626818 13.19514823 13.81752118
   6.66560376  8.93013308 15.42638893
   9.24860864 10.89914767 15.29609188
  10.07615499 12.95689257 10.58977347
   5.68420678  2.94206032 17.58533458
   7.85919824  8.43025548 13.38763736
   7.46874799  4.00797015 16.54851991
   6.26777422  1.05591757 16.28187178
   3.19846104  6.04236903 12.28855730
  13.86102046  0.92291615 15.52492050
   3.59369911 11.20532548 16.79002909
   9.46222514 13.91371823 12.64060934
   0.32480858  1.42259911 10.80360656
  12.63213285  9.89962566 15.66826292
  11.76570056  1.45397736 16.61359944
   0.71165452  2.66912105 14.74042040
   9.05418033  1.63036989 13.39903776
   2.58712586 13.25282904 16.64790905
  13.15791661 12.05452107 12.80795536
  11.90396852  9.65296685  9.96603914
   4.58001951 11.32544006 13.22991742



--------------------------------------------------------------------------------------------------------


 k-point     1 :   0.0000 0.0000 0.0000  plane waves:  545355
 k-point     2 :   0.5000 0.0000 0.0000  plane waves:  545626
 k-point     3 :   0.0000 0.5000 0.0000  plane waves:  545626
 k-point     4 :   0.5000 0.5000 0.0000  plane waves:  545740

 maximum and minimum number of plane-waves per node :     34174    34043

 maximum number of plane-waves:    545740
 maximum index in each direction: 
   IXMAX=   41   IYMAX=   41   IZMAX=   77
   IXMIN=  -41   IYMIN=  -41   IZMIN=  -77


 parallel 3D FFT for wavefunctions:
    minimum data exchange during FFTs selected (reduces bandwidth)
 parallel 3D FFT for charge:
    minimum data exchange during FFTs selected (reduces bandwidth)


 total amount of memory used by VASP MPI-rank0   346852. kBytes
=======================================================================

   base                                    :      30000. kBytes
   nonl-proj                               :      64964. kBytes
   fftplans                                :     108837. kBytes
   grid                                    :      83991. kBytes
   one-center                              :         18. kBytes
   wavefun                                 :      59042. kBytes

     INWAV:  cpu time     17.5167: real time     17.5283
 Broyden mixing: mesh for mixing (old mesh)
   NGX = 83   NGY = 83   NGZ =155
  (NGX  =336   NGY  =336   NGZ  =640)
  gives a total of ****** points

 initial charge density was supplied:
 number of electron     332.9999999 magnetization 
 keeping initial charge density in first step


--------------------------------------------------------------------------------------------------------


 Maximum index for augmentation-charges        11682 (set IRDMAX)


--------------------------------------------------------------------------------------------------------


 First call to EWALD:  gamma=   0.099
 Maximum number of real-space cells   3x   3x   2
 Maximum number of reciprocal cells   2x   2x   4

    FEWALD:  cpu time      0.0123: real time      0.0123


--------------------------------------- Ionic step        1  -------------------------------------------




--------------------------------------- Iteration      1(   1)  ---------------------------------------


    POTLOK:  cpu time      2.1679: real time      2.1690
    SETDIJ:  cpu time      1.6119: real time      1.6134
    EDDIAG:  cpu time     35.9141: real time     35.9382
     EDDAV:  cpu time    161.6679: real time    161.7629
       DOS:  cpu time      0.0052: real time      0.0052
    CHARGE:  cpu time     20.8983: real time     20.9174
    MIXING:  cpu time      0.0521: real time      0.0529
    --------------------------------------------
      LOOP:  cpu time    222.3175: real time    222.4591

 eigenvalue-minimisations  :  1728
 total energy-change (2. order) :-0.8447584E+03  (-0.9196778E+00)
 number of electron     332.9999999 magnetization 
 augmentation part      -18.5062677 magnetization 

 Broyden mixing:
  rms(total) = 0.11155E+01    rms(broyden)= 0.25623E+02
  rms(prec ) = 0.11458E+01
  weight for this iteration     100.00
  WARNING: grid for Broyden might be to small

 Free energy of the ion-electron system (eV)
  ---------------------------------------------------
  alpha Z        PSCENC =        40.45261060
  Ewald energy   TEWEN  =     49031.78566985
  -Hartree energ DENC   =    -56498.53760197
  -exchange      EXHF   =         0.00000000
  -V(xc)+E(xc)   XCENC  =      -388.80049747
  PAW double counting   =     30657.07572709   -29839.52377549
  entropy T*S    EENTRO =        -0.16198671
  eigenvalues    EBANDS =     -2360.97090662
  atomic energy  EATOM  =      8513.92234410
  Solvation  Ediel_sol  =         0.00000000
  ---------------------------------------------------
  free energy    TOTEN  =      -844.75841662 eV

  energy without entropy =     -844.59642991  energy(sigma->0) =     -844.67742326


--------------------------------------------------------------------------------------------------------




--------------------------------------- Iteration      1(   2)  ---------------------------------------


    POTLOK:  cpu time      2.1319: real time      2.1482
    SETDIJ:  cpu time      1.6128: real time      1.6141
    EDDIAG:  cpu time     35.9303: real time     35.9528
     EDDAV:  cpu time    163.3185: real time    163.4071
       DOS:  cpu time      0.0019: real time      0.0019
    CHARGE:  cpu time     20.8634: real time     20.8836
    MIXING:  cpu time      0.0455: real time      0.0455
    --------------------------------------------
      LOOP:  cpu time    223.9043: real time    224.0531

 eigenvalue-minimisations  :  1760
 total energy-change (2. order) : 0.5848165E+02  (-0.8926352E+00)
 number of electron     332.9999999 magnetization 
 augmentation part      -18.4291167 magnetization 

 Broyden mixing:
  rms(total) = 0.75732E+00    rms(broyden)= 0.14822E+02
  rms(prec ) = 0.77270E+00
  weight for this iteration     100.00
  WARNING: grid for Broyden might be to small

 eigenvalues of (default mixing * dielectric matrix)
  average eigenvalue GAMMA=   0.6336
  0.6336

 Free energy of the ion-electron system (eV)
  ---------------------------------------------------
  alpha Z        PSCENC =        40.45261060
  Ewald energy   TEWEN  =     49031.78566985
  -Hartree energ DENC   =    -56486.25509838
  -exchange      EXHF   =         0.00000000
  -V(xc)+E(xc)   XCENC  =      -380.28388300
  PAW double counting   =     36632.87964513   -35815.12908694
  entropy T*S    EENTRO =        -0.15553680
  eigenvalues    EBANDS =     -2323.49343561
  atomic energy  EATOM  =      8513.92234410
  Solvation  Ediel_sol  =         0.00000000
  ---------------------------------------------------
  free energy    TOTEN  =      -786.27677105 eV

  energy without entropy =     -786.12123425  energy(sigma->0) =     -786.19900265


--------------------------------------------------------------------------------------------------------




--------------------------------------- Iteration      1(   3)  ---------------------------------------


    POTLOK:  cpu time      2.1264: real time      2.1459
    SETDIJ:  cpu time      1.6171: real time      1.6181
    EDDIAG:  cpu time     35.9937: real time     36.0166
     EDDAV:  cpu time    162.5573: real time    162.6483
       DOS:  cpu time      0.0019: real time      0.0019
    CHARGE:  cpu time     20.8354: real time     20.8537
    MIXING:  cpu time      0.0437: real time      0.0443
    --------------------------------------------
      LOOP:  cpu time    223.1756: real time    223.3289

 eigenvalue-minimisations  :  1744
 total energy-change (2. order) :-0.3235926E+01  (-0.7183787E+00)
 number of electron     332.9999999 magnetization 
 augmentation part      -18.3691924 magnetization 

 Broyden mixing:
  rms(total) = 0.29508E+00    rms(broyden)= 0.23315E+02
  rms(prec ) = 0.37790E+00
  weight for this iteration     100.00
  WARNING: grid for Broyden might be to small

 eigenvalues of (default mixing * dielectric matrix)
  average eigenvalue GAMMA=   0.8194
  1.0107  0.6282

 Free energy of the ion-electron system (eV)
  ---------------------------------------------------
  alpha Z        PSCENC =        40.45261060
  Ewald energy   TEWEN  =     49031.78566985
  -Hartree energ DENC   =    -56486.66963154
  -exchange      EXHF   =         0.00000000
  -V(xc)+E(xc)   XCENC  =      -383.47645837
  PAW double counting   =     43993.75110581   -43176.12389985
  entropy T*S    EENTRO =        -0.15984972
  eigenvalues    EBANDS =     -2322.99458837
  atomic energy  EATOM  =      8513.92234410
  Solvation  Ediel_sol  =         0.00000000
  ---------------------------------------------------
  free energy    TOTEN  =      -789.51269748 eV

  energy without entropy =     -789.35284776  energy(sigma->0) =     -789.43277262


--------------------------------------------------------------------------------------------------------




--------------------------------------- Iteration      1(   4)  ---------------------------------------


    POTLOK:  cpu time      2.1360: real time      2.1502
    SETDIJ:  cpu time      1.6073: real time      1.6080
    EDDIAG:  cpu time     35.9875: real time     36.0103
     EDDAV:  cpu time    165.7129: real time    165.8007
       DOS:  cpu time      0.0045: real time      0.0045
    CHARGE:  cpu time     20.8189: real time     20.8376
    MIXING:  cpu time      0.0441: real time      0.0441
    --------------------------------------------
      LOOP:  cpu time    226.3111: real time    226.4553

 eigenvalue-minimisations  :  1800
 total energy-change (2. order) : 0.3983506E+00  (-0.7384462E-01)
 number of electron     332.9999999 magnetization 
 augmentation part      -18.3608403 magnetization 

 Broyden mixing:
  rms(total) = 0.56128E-01    rms(broyden)= 0.21651E+01
  rms(prec ) = 0.68624E-01
  weight for this iteration     100.00
  WARNING: grid for Broyden might be to small

 eigenvalues of (default mixing * dielectric matrix)
  average eigenvalue GAMMA=   1.1766
  2.1928  0.7151  0.6219

 Free energy of the ion-electron system (eV)
  ---------------------------------------------------
  alpha Z        PSCENC =        40.45261060
  Ewald energy   TEWEN  =     49031.78566985
  -Hartree energ DENC   =    -56488.08054249
  -exchange      EXHF   =         0.00000000
  -V(xc)+E(xc)   XCENC  =      -384.29504718
  PAW double counting   =     49235.33152219   -48417.74264797
  entropy T*S    EENTRO =        -0.15541293
  eigenvalues    EBANDS =     -2320.33284304
  atomic energy  EATOM  =      8513.92234410
  Solvation  Ediel_sol  =         0.00000000
  ---------------------------------------------------
  free energy    TOTEN  =      -789.11434686 eV

  energy without entropy =     -788.95893393  energy(sigma->0) =     -789.03664040


--------------------------------------------------------------------------------------------------------




--------------------------------------- Iteration      1(   5)  ---------------------------------------


    POTLOK:  cpu time      2.1291: real time      2.1498
    SETDIJ:  cpu time      1.6047: real time      1.6060
    EDDIAG:  cpu time     35.9885: real time     36.0109
     EDDAV:  cpu time    185.7777: real time    185.8932
       DOS:  cpu time      0.0020: real time      0.0020
    CHARGE:  cpu time     20.8511: real time     20.8708
    MIXING:  cpu time      0.0439: real time      0.0439
    --------------------------------------------
      LOOP:  cpu time    246.3969: real time    246.5766

 eigenvalue-minimisations  :  2184
 total energy-change (2. order) :-0.3640179E-01  (-0.8113173E-02)
 number of electron     332.9999999 magnetization 
 augmentation part      -18.3639794 magnetization 

 Broyden mixing:
  rms(total) = 0.42570E-01    rms(broyden)= 0.31172E+00
  rms(prec ) = 0.56323E-01
  weight for this iteration     100.00
  WARNING: grid for Broyden might be to small

 eigenvalues of (default mixing * dielectric matrix)
  average eigenvalue GAMMA=   1.1201
  2.5188  0.8033  0.6215  0.5368

 Free energy of the ion-electron system (eV)
  ---------------------------------------------------
  alpha Z        PSCENC =        40.45261060
  Ewald energy   TEWEN  =     49031.78566985
  -Hartree energ DENC   =    -56488.54871967
  -exchange      EXHF   =         0.00000000
  -V(xc)+E(xc)   XCENC  =      -385.31351089
  PAW double counting   =     48675.72734385   -47858.10720159
  entropy T*S    EENTRO =        -0.16047713
  eigenvalues    EBANDS =     -2318.90880778
  atomic energy  EATOM  =      8513.92234410
  Solvation  Ediel_sol  =         0.00000000
  ---------------------------------------------------
  free energy    TOTEN  =      -789.15074866 eV

  energy without entropy =     -788.99027153  energy(sigma->0) =     -789.07051009


--------------------------------------------------------------------------------------------------------




--------------------------------------- Iteration      1(   6)  ---------------------------------------


    POTLOK:  cpu time      2.1283: real time      2.1480
    SETDIJ:  cpu time      1.6063: real time      1.6069
    EDDIAG:  cpu time     36.0082: real time     36.0311
     EDDAV:  cpu time    174.1957: real time    174.2979
       DOS:  cpu time      0.0026: real time      0.0026
    CHARGE:  cpu time     20.8526: real time     20.8718
    MIXING:  cpu time      0.0445: real time      0.0445
    --------------------------------------------
      LOOP:  cpu time    234.8382: real time    235.0029

 eigenvalue-minimisations  :  1968
 total energy-change (2. order) : 0.7502262E-04  (-0.2685311E-02)
 number of electron     332.9999999 magnetization 
 augmentation part      -18.3628671 magnetization 

 Broyden mixing:
  rms(total) = 0.25508E-01    rms(broyden)= 0.21631E+00
  rms(prec ) = 0.27223E-01
  weight for this iteration     100.00
  WARNING: grid for Broyden might be to small

 eigenvalues of (default mixing * dielectric matrix)
  average eigenvalue GAMMA=   1.0557
  2.5709  0.9838  0.6684  0.6243  0.4310

 Free energy of the ion-electron system (eV)
  ---------------------------------------------------
  alpha Z        PSCENC =        40.45261060
  Ewald energy   TEWEN  =     49031.78566985
  -Hartree energ DENC   =    -56488.58970123
  -exchange      EXHF   =         0.00000000
  -V(xc)+E(xc)   XCENC  =      -385.53370476
  PAW double counting   =     48559.72369445   -47742.09229321
  entropy T*S    EENTRO =        -0.15745958
  eigenvalues    EBANDS =     -2318.66183386
  atomic energy  EATOM  =      8513.92234410
  Solvation  Ediel_sol  =         0.00000000
  ---------------------------------------------------
  free energy    TOTEN  =      -789.15067363 eV

  energy without entropy =     -788.99321406  energy(sigma->0) =     -789.07194384


--------------------------------------------------------------------------------------------------------




--------------------------------------- Iteration      1(   7)  ---------------------------------------


    POTLOK:  cpu time      2.1322: real time      2.1509
    SETDIJ:  cpu time      1.6151: real time      1.6157
    EDDIAG:  cpu time     36.0529: real time     36.0741
     EDDAV:  cpu time    165.7888: real time    165.8838
       DOS:  cpu time      0.0019: real time      0.0019
    CHARGE:  cpu time     20.8218: real time     20.8402
    MIXING:  cpu time      0.0456: real time      0.0457
    --------------------------------------------
      LOOP:  cpu time    226.4584: real time    226.6122

 eigenvalue-minimisations  :  1800
 total energy-change (2. order) :-0.1337259E-02  (-0.1538192E-02)
 number of electron     332.9999999 magnetization 
 augmentation part      -18.3600435 magnetization 

 Broyden mixing:
  rms(total) = 0.89552E-02    rms(broyden)= 0.10884E+00
  rms(prec ) = 0.98715E-02
  weight for this iteration     100.00
  WARNING: grid for Broyden might be to small

 eigenvalues of (default mixing * dielectric matrix)
  average eigenvalue GAMMA=   1.0532
  2.5614  1.2421  0.8312  0.6337  0.6337  0.4168

 Free energy of the ion-electron system (eV)
  ---------------------------------------------------
  alpha Z        PSCENC =        40.45261060
  Ewald energy   TEWEN  =     49031.78566985
  -Hartree energ DENC   =    -56488.41407895
  -exchange      EXHF   =         0.00000000
  -V(xc)+E(xc)   XCENC  =      -385.30393591
  PAW double counting   =     48545.30319650   -47727.65195602
  entropy T*S    EENTRO =        -0.15806414
  eigenvalues    EBANDS =     -2319.08779692
  atomic energy  EATOM  =      8513.92234410
  Solvation  Ediel_sol  =         0.00000000
  ---------------------------------------------------
  free energy    TOTEN  =      -789.15201089 eV

  energy without entropy =     -788.99394675  energy(sigma->0) =     -789.07297882


--------------------------------------------------------------------------------------------------------




--------------------------------------- Iteration      1(   8)  ---------------------------------------


    POTLOK:  cpu time      2.1319: real time      2.1530
    SETDIJ:  cpu time      1.6190: real time      1.6203
    EDDIAG:  cpu time     35.9831: real time     36.0062
     EDDAV:  cpu time    175.3582: real time    175.4581
       DOS:  cpu time      0.0030: real time      0.0031
    CHARGE:  cpu time     20.8017: real time     20.8207
    MIXING:  cpu time      0.0478: real time      0.0478
    --------------------------------------------
      LOOP:  cpu time    235.9447: real time    236.1091

 eigenvalue-minimisations  :  1984
 total energy-change (2. order) :-0.4814441E-03  (-0.1751143E-03)
 number of electron     332.9999999 magnetization 
 augmentation part      -18.3600542 magnetization 

 Broyden mixing:
  rms(total) = 0.41558E-02    rms(broyden)= 0.65997E-01
  rms(prec ) = 0.52847E-02
  weight for this iteration     100.00
  WARNING: grid for Broyden might be to small

 eigenvalues of (default mixing * dielectric matrix)
  average eigenvalue GAMMA=   1.1154
  2.5396  1.8582  0.8569  0.8569  0.4178  0.6548  0.6236

 Free energy of the ion-electron system (eV)
  ---------------------------------------------------
  alpha Z        PSCENC =        40.45261060
  Ewald energy   TEWEN  =     49031.78566985
  -Hartree energ DENC   =    -56488.13238667
  -exchange      EXHF   =         0.00000000
  -V(xc)+E(xc)   XCENC  =      -385.29318875
  PAW double counting   =     48595.22806123   -47777.56944345
  entropy T*S    EENTRO =        -0.15814786
  eigenvalues    EBANDS =     -2319.38801140
  atomic energy  EATOM  =      8513.92234410
  Solvation  Ediel_sol  =         0.00000000
  ---------------------------------------------------
  free energy    TOTEN  =      -789.15249234 eV

  energy without entropy =     -788.99434448  energy(sigma->0) =     -789.07341841


--------------------------------------------------------------------------------------------------------




--------------------------------------- Iteration      1(   9)  ---------------------------------------


    POTLOK:  cpu time      2.1319: real time      2.1534
    SETDIJ:  cpu time      1.6087: real time      1.6099
    EDDIAG:  cpu time     35.9406: real time     35.9622
     EDDAV:  cpu time    172.3058: real time    172.4035
       DOS:  cpu time      0.0025: real time      0.0025
    CHARGE:  cpu time     20.8392: real time     20.8567
    MIXING:  cpu time      0.0466: real time      0.0466
    --------------------------------------------
      LOOP:  cpu time    232.8755: real time    233.0351

 eigenvalue-minimisations  :  1920
 total energy-change (2. order) : 0.2747676E-04  (-0.5570471E-04)
 number of electron     332.9999999 magnetization 
 augmentation part      -18.3601209 magnetization 

 Broyden mixing:
  rms(total) = 0.20789E-02    rms(broyden)= 0.17388E-01
  rms(prec ) = 0.23537E-02
  weight for this iteration     100.00
  WARNING: grid for Broyden might be to small

 eigenvalues of (default mixing * dielectric matrix)
  average eigenvalue GAMMA=   1.1694
  2.5820  2.5820  1.0353  0.8769  0.4210  0.6639  0.6300  0.5640

 Free energy of the ion-electron system (eV)
  ---------------------------------------------------
  alpha Z        PSCENC =        40.45261060
  Ewald energy   TEWEN  =     49031.78566985
  -Hartree energ DENC   =    -56487.92998244
  -exchange      EXHF   =         0.00000000
  -V(xc)+E(xc)   XCENC  =      -385.31191774
  PAW double counting   =     48602.58241773   -47784.92185966
  entropy T*S    EENTRO =        -0.15806258
  eigenvalues    EBANDS =     -2319.57368473
  atomic energy  EATOM  =      8513.92234410
  Solvation  Ediel_sol  =         0.00000000
  ---------------------------------------------------
  free energy    TOTEN  =      -789.15246486 eV

  energy without entropy =     -788.99440228  energy(sigma->0) =     -789.07343357


--------------------------------------------------------------------------------------------------------




--------------------------------------- Iteration      1(  10)  ---------------------------------------


    POTLOK:  cpu time      2.1302: real time      2.1499
    SETDIJ:  cpu time      1.6080: real time      1.6094
    EDDIAG:  cpu time     35.9952: real time     36.0180
     EDDAV:  cpu time    167.8000: real time    167.8978
       DOS:  cpu time      0.0019: real time      0.0019
    CHARGE:  cpu time     20.8222: real time     20.8418
    MIXING:  cpu time      0.0472: real time      0.0472
    --------------------------------------------
      LOOP:  cpu time    228.4045: real time    228.5659

 eigenvalue-minimisations  :  1840
 total energy-change (2. order) :-0.2804791E-04  (-0.3040206E-04)
 number of electron     332.9999999 magnetization 
 augmentation part      -18.3602058 magnetization 

 Broyden mixing:
  rms(total) = 0.11863E-02    rms(broyden)= 0.11871E-01
  rms(prec ) = 0.14164E-02
  weight for this iteration     100.00
  WARNING: grid for Broyden might be to small

 eigenvalues of (default mixing * dielectric matrix)
  average eigenvalue GAMMA=   1.1737
  2.6975  2.6975  1.1194  0.9717  0.8162  0.4222  0.6647  0.6250  0.5488

 Free energy of the ion-electron system (eV)
  ---------------------------------------------------
  alpha Z        PSCENC =        40.45261060
  Ewald energy   TEWEN  =     49031.78566985
  -Hartree energ DENC   =    -56487.67976060
  -exchange      EXHF   =         0.00000000
  -V(xc)+E(xc)   XCENC  =      -385.32196820
  PAW double counting   =     48595.97646297   -47778.31424047
  entropy T*S    EENTRO =        -0.15810728
  eigenvalues    EBANDS =     -2319.81550388
  atomic energy  EATOM  =      8513.92234410
  Solvation  Ediel_sol  =         0.00000000
  ---------------------------------------------------
  free energy    TOTEN  =      -789.15249291 eV

  energy without entropy =     -788.99438562  energy(sigma->0) =     -789.07343927


--------------------------------------------------------------------------------------------------------




--------------------------------------- Iteration      1(  11)  ---------------------------------------


    POTLOK:  cpu time      2.1253: real time      2.1452
    SETDIJ:  cpu time      1.6112: real time      1.6120
    EDDIAG:  cpu time     35.9438: real time     35.9642
     EDDAV:  cpu time    166.3738: real time    166.4653
       DOS:  cpu time      0.0025: real time      0.0025
    CHARGE:  cpu time     20.8387: real time     20.8549
    MIXING:  cpu time      0.0488: real time      0.0488
    --------------------------------------------
      LOOP:  cpu time    226.9441: real time    227.0930

 eigenvalue-minimisations  :  1808
 total energy-change (2. order) :-0.4584988E-04  (-0.2384247E-04)
 number of electron     332.9999999 magnetization 
 augmentation part      -18.3603004 magnetization 

 Broyden mixing:
  rms(total) = 0.57274E-03    rms(broyden)= 0.31616E-02
  rms(prec ) = 0.78622E-03
  weight for this iteration     100.00
  WARNING: grid for Broyden might be to small

 eigenvalues of (default mixing * dielectric matrix)
  average eigenvalue GAMMA=   1.1847
  2.7654  2.7654  1.4065  1.0805  0.9200  0.4228  0.6873  0.6419  0.6061  0.5515

 Free energy of the ion-electron system (eV)
  ---------------------------------------------------
  alpha Z        PSCENC =        40.45261060
  Ewald energy   TEWEN  =     49031.78566985
  -Hartree energ DENC   =    -56487.41359488
  -exchange      EXHF   =         0.00000000
  -V(xc)+E(xc)   XCENC  =      -385.33459821
  PAW double counting   =     48591.02089400   -47773.35771922
  entropy T*S    EENTRO =        -0.15807466
  eigenvalues    EBANDS =     -2320.07007034
  atomic energy  EATOM  =      8513.92234410
  Solvation  Ediel_sol  =         0.00000000
  ---------------------------------------------------
  free energy    TOTEN  =      -789.15253876 eV

  energy without entropy =     -788.99446410  energy(sigma->0) =     -789.07350143


--------------------------------------------------------------------------------------------------------




--------------------------------------- Iteration      1(  12)  ---------------------------------------


    POTLOK:  cpu time      2.1274: real time      2.1467
    SETDIJ:  cpu time      1.6091: real time      1.6099
    EDDIAG:  cpu time     35.9864: real time     36.0029
     EDDAV:  cpu time    165.4742: real time    165.5583
       DOS:  cpu time      0.0018: real time      0.0018
    CHARGE:  cpu time     20.8717: real time     20.8898
    MIXING:  cpu time      0.0489: real time      0.0489
    --------------------------------------------
      LOOP:  cpu time    226.1195: real time    226.2582

 eigenvalue-minimisations  :  1792
 total energy-change (2. order) :-0.1106912E-03  (-0.1708071E-04)
 number of electron     332.9999999 magnetization 
 augmentation part      -18.3603723 magnetization 

 Broyden mixing:
  rms(total) = 0.33638E-03    rms(broyden)= 0.28728E-02
  rms(prec ) = 0.51654E-03
  weight for this iteration     100.00
  WARNING: grid for Broyden might be to small

 eigenvalues of (default mixing * dielectric matrix)
  average eigenvalue GAMMA=   1.2003
  2.8384  2.8384  1.8233  1.0940  0.8833  0.8833  0.4228  0.6596  0.6259  0.6010
  0.5332

 Free energy of the ion-electron system (eV)
  ---------------------------------------------------
  alpha Z        PSCENC =        40.45261060
  Ewald energy   TEWEN  =     49031.78566985
  -Hartree energ DENC   =    -56487.19600968
  -exchange      EXHF   =         0.00000000
  -V(xc)+E(xc)   XCENC  =      -385.34270055
  PAW double counting   =     48593.24267289   -47775.57957758
  entropy T*S    EENTRO =        -0.15808587
  eigenvalues    EBANDS =     -2320.27957321
  atomic energy  EATOM  =      8513.92234410
  Solvation  Ediel_sol  =         0.00000000
  ---------------------------------------------------
  free energy    TOTEN  =      -789.15264945 eV

  energy without entropy =     -788.99456358  energy(sigma->0) =     -789.07360651


--------------------------------------------------------------------------------------------------------




--------------------------------------- Iteration      1(  13)  ---------------------------------------


    POTLOK:  cpu time      2.1313: real time      2.1486
    SETDIJ:  cpu time      1.6100: real time      1.6111
    EDDIAG:  cpu time     36.0511: real time     36.0739
     EDDAV:  cpu time    165.4497: real time    165.5569
       DOS:  cpu time      0.0021: real time      0.0021
    CHARGE:  cpu time     20.8492: real time     20.8691
    MIXING:  cpu time      0.0478: real time      0.0478
    --------------------------------------------
      LOOP:  cpu time    226.1412: real time    226.3097

 eigenvalue-minimisations  :  1792
 total energy-change (2. order) :-0.1068366E-03  (-0.1367006E-04)
 number of electron     332.9999999 magnetization 
 augmentation part      -18.3604127 magnetization 

 Broyden mixing:
  rms(total) = 0.22247E-03    rms(broyden)= 0.12551E-02
  rms(prec ) = 0.37737E-03
  weight for this iteration     100.00
  WARNING: grid for Broyden might be to small

 eigenvalues of (default mixing * dielectric matrix)
  average eigenvalue GAMMA=   1.2255
  3.0700  2.7470  2.1235  1.2067  0.9674  0.9674  0.7806  0.4227  0.6367  0.6367
  0.5454  0.6015

 Free energy of the ion-electron system (eV)
  ---------------------------------------------------
  alpha Z        PSCENC =        40.45261060
  Ewald energy   TEWEN  =     49031.78566985
  -Hartree energ DENC   =    -56487.03942296
  -exchange      EXHF   =         0.00000000
  -V(xc)+E(xc)   XCENC  =      -385.34803800
  PAW double counting   =     48593.01634057   -47775.35352657
  entropy T*S    EENTRO =        -0.15809651
  eigenvalues    EBANDS =     -2320.43063737
  atomic energy  EATOM  =      8513.92234410
  Solvation  Ediel_sol  =         0.00000000
  ---------------------------------------------------
  free energy    TOTEN  =      -789.15275628 eV

  energy without entropy =     -788.99465978  energy(sigma->0) =     -789.07370803


--------------------------------------------------------------------------------------------------------




--------------------------------------- Iteration      1(  14)  ---------------------------------------


    POTLOK:  cpu time      2.1503: real time      2.1518
    SETDIJ:  cpu time      1.6125: real time      1.6132
    EDDIAG:  cpu time     36.0301: real time     36.0533
     EDDAV:  cpu time    165.3052: real time    165.3953
       DOS:  cpu time      0.0020: real time      0.0020
    CHARGE:  cpu time     20.8450: real time     20.8636
    MIXING:  cpu time      0.0522: real time      0.0523
    --------------------------------------------
      LOOP:  cpu time    225.9974: real time    226.1314

 eigenvalue-minimisations  :  1792
 total energy-change (2. order) :-0.1313251E-03  (-0.2377245E-04)
 number of electron     332.9999999 magnetization 
 augmentation part      -18.3604423 magnetization 

 Broyden mixing:
  rms(total) = 0.15406E-03    rms(broyden)= 0.92475E-03
  rms(prec ) = 0.24933E-03
  weight for this iteration     100.00
  WARNING: grid for Broyden might be to small

 eigenvalues of (default mixing * dielectric matrix)
  average eigenvalue GAMMA=   1.2597
  3.3279  2.6812  2.4928  1.5195  1.0656  0.8985  0.8985  0.4227  0.6922  0.6336
  0.6166  0.5454  0.5812

 Free energy of the ion-electron system (eV)
  ---------------------------------------------------
  alpha Z        PSCENC =        40.45261060
  Ewald energy   TEWEN  =     49031.78566985
  -Hartree energ DENC   =    -56486.82302341
  -exchange      EXHF   =         0.00000000
  -V(xc)+E(xc)   XCENC  =      -385.35134306
  PAW double counting   =     48592.54523450   -47774.88273696
  entropy T*S    EENTRO =        -0.15808978
  eigenvalues    EBANDS =     -2320.64355345
  atomic energy  EATOM  =      8513.92234410
  Solvation  Ediel_sol  =         0.00000000
  ---------------------------------------------------
  free energy    TOTEN  =      -789.15288761 eV

  energy without entropy =     -788.99479783  energy(sigma->0) =     -789.07384272


--------------------------------------------------------------------------------------------------------




--------------------------------------- Iteration      1(  15)  ---------------------------------------


    POTLOK:  cpu time      2.1262: real time      2.1464
    SETDIJ:  cpu time      1.6106: real time      1.6113
    EDDIAG:  cpu time     36.0301: real time     36.0523
     EDDAV:  cpu time    165.7643: real time    165.8557
       DOS:  cpu time      0.0025: real time      0.0025
    CHARGE:  cpu time     20.8551: real time     20.8732
    MIXING:  cpu time      0.0512: real time      0.0512
    --------------------------------------------
      LOOP:  cpu time    226.4399: real time    226.5927

 eigenvalue-minimisations  :  1800
 total energy-change (2. order) :-0.1138380E-03  (-0.1604315E-04)
 number of electron     332.9999999 magnetization 
 augmentation part      -18.3604669 magnetization 

 Broyden mixing:
  rms(total) = 0.94803E-04    rms(broyden)= 0.13343E-02
  rms(prec ) = 0.15218E-03
  weight for this iteration     100.00
  WARNING: grid for Broyden might be to small

 eigenvalues of (default mixing * dielectric matrix)
  average eigenvalue GAMMA=   1.3087
  3.6645  2.6844  2.6844  1.7448  1.2612  1.0588  0.8607  0.8607  0.4227  0.6961
  0.5383  0.6362  0.6265  0.5823

 Free energy of the ion-electron system (eV)
  ---------------------------------------------------
  alpha Z        PSCENC =        40.45261060
  Ewald energy   TEWEN  =     49031.78566985
  -Hartree energ DENC   =    -56486.66505505
  -exchange      EXHF   =         0.00000000
  -V(xc)+E(xc)   XCENC  =      -385.35322000
  PAW double counting   =     48593.15234199   -47775.49008984
  entropy T*S    EENTRO =        -0.15808906
  eigenvalues    EBANDS =     -2320.79951405
  atomic energy  EATOM  =      8513.92234410
  Solvation  Ediel_sol  =         0.00000000
  ---------------------------------------------------
  free energy    TOTEN  =      -789.15300145 eV

  energy without entropy =     -788.99491239  energy(sigma->0) =     -789.07395692


--------------------------------------------------------------------------------------------------------




--------------------------------------- Iteration      1(  16)  ---------------------------------------


    POTLOK:  cpu time      2.1411: real time      2.1429
    SETDIJ:  cpu time      1.6148: real time      1.6161
    EDDIAG:  cpu time     36.0294: real time     36.0522
     EDDAV:  cpu time    168.1767: real time    168.2742
       DOS:  cpu time      0.0112: real time      0.0112
    CHARGE:  cpu time     20.8716: real time     20.8903
    MIXING:  cpu time      0.0669: real time      0.0676
    --------------------------------------------
      LOOP:  cpu time    228.9121: real time    229.0549

 eigenvalue-minimisations  :  1840
 total energy-change (2. order) :-0.6973611E-04  (-0.8201948E-05)
 number of electron     332.9999999 magnetization 
 augmentation part      -18.3604818 magnetization 

 Broyden mixing:
  rms(total) = 0.63881E-04    rms(broyden)= 0.22565E-02
  rms(prec ) = 0.94157E-04
  weight for this iteration     100.00
  WARNING: grid for Broyden might be to small

 eigenvalues of (default mixing * dielectric matrix)
  average eigenvalue GAMMA=   1.3593
  4.1802  2.7746  2.7746  2.0317  1.4486  1.0619  0.9121  0.9121  0.4227  0.7831
  0.5369  0.6898  0.6469  0.6250  0.5893

 Free energy of the ion-electron system (eV)
  ---------------------------------------------------
[...]
   -.170E+02 -.229E+02 0.171E+03   0.187E+02 0.229E+02 -.170E+03   -.153E+01 0.152E+00 -.146E+01   -.122E-04 0.251E-05 0.159E-05
   0.259E+02 -.377E+02 -.125E+03   -.231E+02 0.349E+02 0.125E+03   -.258E+01 0.283E+01 -.335E+00   -.186E-04 0.136E-04 0.194E-04
   -.251E+02 0.921E+01 -.237E+02   0.220E+02 -.102E+02 0.230E+02   0.322E+01 0.515E+00 0.815E+00   0.117E-04 -.748E-05 0.297E-04
   0.292E+01 -.206E+02 0.114E+03   -.495E+01 0.191E+02 -.114E+03   0.180E+01 0.162E+01 0.405E+00   -.219E-04 0.229E-04 0.715E-05
   -.104E+02 -.840E+01 0.398E+00   0.798E+01 0.811E+01 0.602E+00   0.230E+01 0.248E+00 -.585E+00   0.282E-04 0.176E-04 0.270E-04
   -.619E+01 0.668E+01 0.318E+03   0.644E+01 -.799E+01 -.318E+03   -.461E+00 0.116E+01 0.436E+00   0.138E-04 0.270E-04 -.255E-05
   0.163E+02 0.383E+02 -.281E+03   -.157E+02 -.373E+02 0.280E+03   -.585E+00 -.789E+00 0.969E+00   0.957E-05 0.128E-04 0.317E-04
   -.497E+02 0.200E+02 0.292E+03   0.455E+02 -.178E+02 -.287E+03   0.402E+01 -.201E+01 -.453E+01   0.427E-04 -.399E-04 -.138E-04
   0.114E+02 0.388E+01 -.190E+03   -.984E+01 -.403E+01 0.188E+03   -.138E+01 0.227E+00 0.189E+01   -.445E-04 -.974E-05 0.464E-04
   -.116E+02 -.172E+02 -.303E+01   0.108E+02 0.168E+02 0.424E+01   0.871E+00 0.440E+00 -.717E+00   -.566E-05 -.121E-04 0.395E-04
   -.202E+02 0.270E+02 0.211E+03   0.200E+02 -.259E+02 -.212E+03   0.203E+00 -.717E+00 0.150E+01   0.664E-05 -.613E-05 -.200E-05
   -.344E+01 0.822E+01 -.331E+03   0.182E+01 -.787E+01 0.330E+03   0.139E+01 -.509E+00 0.388E+00   0.201E-04 0.816E-05 0.206E-04
   -.106E+02 0.166E+02 -.347E+03   0.101E+02 -.163E+02 0.345E+03   0.149E+00 -.185E+00 0.125E+01   0.843E-06 0.398E-04 0.210E-04
   -.215E+02 -.274E+01 -.152E+03   0.208E+02 0.549E+00 0.152E+03   0.642E+00 0.212E+01 0.122E+01   -.165E-04 -.174E-06 0.122E-04
   -.238E+02 -.631E+00 -.255E+03   0.201E+02 0.109E+01 0.252E+03   0.355E+01 -.611E+00 0.331E+01   0.183E-04 -.139E-04 0.595E-04
   0.232E+02 -.859E+00 0.261E+03   -.252E+02 -.557E+00 -.259E+03   0.187E+01 0.142E+01 -.156E+01   -.247E-04 -.249E-04 -.142E-04
   0.179E+02 0.405E+02 -.333E+03   -.185E+02 -.444E+02 0.334E+03   0.199E+00 0.332E+01 -.519E+00   0.310E-04 -.128E-04 0.372E-04
   0.246E+02 0.283E+00 0.232E+03   -.248E+02 0.179E+01 -.232E+03   0.175E+00 -.201E+01 0.545E+00   -.489E-04 -.973E-05 -.992E-05
   0.306E+02 -.871E+01 -.241E+03   -.292E+02 0.614E+01 0.240E+03   -.125E+01 0.230E+01 0.141E+01   -.196E-05 0.397E-05 0.445E-04
   -.186E+02 -.807E+01 0.166E+03   0.167E+02 0.771E+01 -.165E+03   0.166E+01 0.432E+00 -.108E+01   0.253E-04 0.169E-04 0.141E-05
   0.213E+02 0.241E+01 0.295E+03   -.234E+02 -.879E+00 -.296E+03   0.210E+01 -.161E+01 0.904E+00   -.163E-04 -.195E-04 -.117E-04
   0.195E+02 0.302E+02 0.318E+03   -.182E+02 -.293E+02 -.322E+03   -.124E+01 -.109E+01 0.277E+01   -.123E-04 -.706E-05 -.429E-04
   0.873E+01 -.122E+02 0.347E+03   -.830E+01 0.140E+02 -.346E+03   -.290E+00 -.152E+01 -.979E+00   0.124E-05 -.323E-04 -.955E-05
   0.525E+01 0.118E+02 -.817E+02   -.598E+01 -.110E+02 0.790E+02   0.762E+00 -.693E+00 0.233E+01   0.173E-05 0.256E-04 0.251E-04
   0.185E+01 -.283E+02 0.130E+03   -.619E+00 0.261E+02 -.129E+03   -.157E+01 0.174E+01 -.499E+00   -.439E-05 -.281E-05 0.234E-04
   -.131E+02 -.100E+02 -.160E+03   0.125E+02 0.944E+01 0.159E+03   0.296E+00 0.730E+00 0.126E+01   0.327E-04 -.139E-04 0.551E-04
   0.102E+02 0.474E+01 -.305E+03   -.912E+01 -.425E+01 0.303E+03   -.681E+00 -.670E+00 0.145E+01   0.517E-05 0.107E-04 0.350E-04
   0.970E+01 -.927E+00 -.238E+02   -.798E+01 0.145E+01 0.232E+02   -.163E+01 -.336E+00 0.562E+00   0.362E-05 -.126E-04 0.540E-04
   0.196E+02 -.416E+01 -.210E+03   -.204E+02 0.318E+01 0.209E+03   0.603E+00 0.953E+00 0.758E+00   -.488E-04 0.750E-05 0.333E-04
   0.814E+01 -.122E+02 -.184E+03   -.712E+01 0.121E+02 0.184E+03   -.109E+01 0.242E+00 0.971E-02   0.136E-04 0.777E-05 0.504E-04
   0.346E+02 -.162E+02 0.293E+03   -.353E+02 0.172E+02 -.293E+03   0.325E+00 -.111E+01 0.591E+00   -.442E-04 -.148E-04 -.285E-04
   0.912E+01 -.157E+01 -.371E+03   -.887E+01 0.148E+01 0.372E+03   -.385E+00 0.313E+00 -.436E+00   -.234E-04 -.121E-05 0.659E-04
   0.158E+02 -.165E+01 0.354E+02   -.146E+02 0.978E-02 -.350E+02   -.121E+01 0.159E+01 -.277E+00   -.132E-04 -.114E-04 0.232E-05
   -.625E+02 -.688E+01 -.287E+03   0.636E+02 0.474E+01 0.286E+03   -.723E+00 0.186E+01 0.755E-01   -.200E-04 0.381E-05 0.352E-04
   -.124E+02 0.154E+02 -.263E+03   0.123E+02 -.141E+02 0.262E+03   0.163E-01 -.108E+01 0.902E+00   -.174E-04 -.169E-04 0.515E-04
   -.711E+01 0.152E+02 0.183E+03   0.724E+01 -.133E+02 -.182E+03   -.123E+00 -.194E+01 -.124E+01   0.116E-04 0.245E-04 0.158E-05
   -.154E+02 -.190E+02 -.219E+03   0.148E+02 0.181E+02 0.217E+03   0.788E+00 0.847E+00 0.207E+01   0.241E-04 -.299E-04 0.608E-04
   -.231E+02 0.750E+01 -.301E+03   0.211E+02 -.651E+01 0.300E+03   0.179E+01 -.886E+00 0.102E+01   -.264E-04 -.249E-04 0.464E-04
   0.224E+02 -.243E+02 0.117E+03   -.230E+02 0.222E+02 -.117E+03   0.777E+00 0.188E+01 0.625E-01   -.142E-04 0.124E-04 0.265E-04
   -.268E+02 -.311E+02 0.309E+03   0.257E+02 0.308E+02 -.308E+03   0.116E+01 0.327E+00 -.186E+01   0.259E-04 0.144E-04 -.845E-05
   0.596E+00 -.233E+02 -.220E+03   0.225E+01 0.205E+02 0.219E+03   -.256E+01 0.281E+01 0.671E+00   0.211E-04 -.134E-05 0.559E-04
   -.304E+01 -.377E+02 -.322E+03   0.323E+01 0.397E+02 0.323E+03   -.206E+00 -.194E+01 -.164E+00   0.919E-05 -.788E-05 0.443E-04
   0.955E+01 -.451E+01 -.148E+03   -.923E+01 0.438E+01 0.147E+03   -.519E+00 0.515E-01 0.164E+01   0.148E-04 0.200E-04 0.503E-04
   0.197E+02 -.104E+02 0.258E+02   -.194E+02 0.114E+02 -.274E+02   -.501E+00 -.110E+01 0.165E+01   -.162E-04 0.205E-04 0.102E-04
   0.456E+01 -.162E+02 -.304E+03   -.438E+01 0.148E+02 0.302E+03   -.233E+00 0.114E+01 0.236E+01   -.852E-05 -.315E-04 0.511E-04
   -.132E+02 -.169E+01 0.852E+02   0.124E+02 -.930E+00 -.827E+02   0.311E+00 0.238E+01 -.228E+01   0.174E-04 -.269E-04 0.416E-04
   -.274E+01 0.159E+02 0.354E+03   0.222E+01 -.176E+02 -.354E+03   0.826E+00 0.152E+01 -.659E+00   -.170E-05 -.294E-04 -.415E-04
   0.241E+02 0.880E+01 0.757E+02   -.226E+02 -.867E+01 -.752E+02   -.148E+01 -.133E+00 -.510E+00   -.377E-04 -.255E-04 0.170E-04
 -----------------------------------------------------------------------------------------------
   -.208E+02 -.919E+01 -.138E+02   0.107E-13 -.142E-12 0.398E-12   0.208E+02 0.919E+01 0.138E+02   -.362E-04 -.129E-03 0.173E-02


 POSITION                                       TOTAL-FORCE (eV/Angst)
 -----------------------------------------------------------------------------------
      5.88136     12.02879     10.42076         0.003146      0.020504     -0.020203
     13.76379      7.68851     13.66300        -0.032880     -0.135105     -0.063391
      1.44714      0.37523     13.85291        -0.061790     -0.016062      0.009322
      9.13340     13.31015      9.50249        -0.051682     -0.023894     -0.180282
     12.67755     10.63531     12.85949         0.127781      0.025798     -0.058837
      8.76241      6.28495     13.65071         0.098807      0.019487     -0.033960
     10.36212     14.08969     16.59922        -0.188625     -0.063643     -0.432589
      1.89798      6.22625     14.24179        -0.299043      0.256097     -0.012112
      5.80039      3.97593     14.08336        -0.117221     -0.152644      0.132929
      8.00417     14.06043     16.72515         0.414915     -0.289827      0.052017
     12.21303      4.64885     11.74945         0.044210      0.173155      0.539628
      7.38422     12.36247     15.26526         0.199604     -0.061504      0.066057
      9.53777      3.03189     11.66586         0.584048     -0.090794      0.016853
      1.80886     13.57855     13.26284        -0.165474      0.475095      0.062366
      3.79650      0.41132     11.39942         0.019712     -0.175428      0.272784
     10.68396      6.15930     10.84895        -0.170983      0.105892     -0.045062
     14.51590      5.06449     12.11633        -0.005670      0.262423     -0.315254
      7.34486     13.07390     13.00045         0.028353     -0.110521     -0.099803
      4.09106     13.60278     13.63608        -0.026616     -0.248780     -0.001030
      0.26449     13.45140     16.34799        -0.058408      0.029470      0.068512
      1.09916      8.89874     11.54588         0.348724      0.251431     -0.181463
      5.21870      7.21898     15.00469         0.069402     -0.101964      0.017174
      9.99063     10.59708     11.00173        -0.017862      0.008927      0.093310
     14.18126     10.17799     10.18011        -0.379935      0.151811      0.092274
      1.00419      2.94034     12.34797         0.218646      0.168223      0.022925
     12.68622      0.97335     11.31559        -0.000209     -0.071436     -0.281582
     14.12052     12.42522     10.67957         0.387315     -0.250715     -0.274674
      1.99795      9.56644     16.91096         0.192641     -0.311275     -0.381261
     10.79415      6.48298     14.76204         0.301023      0.491211     -0.015023
     11.49418      2.79701     10.58506        -0.286934     -0.036430     -0.290818
      4.07769      0.22720     15.68356         0.195686      0.296281      0.084950
      9.73621      9.83119     13.24616         0.090919      0.283974      0.001902
      8.69986      5.14982     11.61039        -0.267764      0.192977     -0.110071
      0.33275     12.16145     14.40384         0.380703     -0.171695      0.253552
      3.43406      6.10930     16.02542         0.209116     -0.023374      0.180093
      6.79502      1.86745     14.11337        -0.017044     -0.095722     -0.141007
      4.76768      4.35775     12.05159         0.094481      0.085891     -0.094241
     14.41285      4.90412     14.71464        -0.094501     -0.157124      0.491600
      3.04078      2.25141     14.87718        -0.021928     -0.163973     -0.038609
      5.85930      0.30358     12.59074        -0.038958      0.062627     -0.264973
     10.94822      2.40413     14.62891         0.128020      0.152438     -0.102525
     11.62261      8.54950     13.89697         0.200888     -0.470530      0.091553
      4.50681      7.85819     12.81314        -0.141635      0.258418      0.099166
      0.66230      8.21736     13.76823        -0.023319     -0.022553      0.348006
      1.37427      6.59178     10.97391        -0.199799     -0.071547      0.035398
     14.28254      6.61987     16.45145         0.070219      0.255930     -0.047771
      1.40463     13.95187     11.02639        -0.007899      0.110763     -0.133461
      5.48453     10.95398     15.37823         0.119093      0.087996      0.206851
     12.37769      0.75560     13.71770         0.061862      0.029991      0.503000
     11.52453      8.13577     11.58089        -0.076648      0.294763      0.289490
     12.38794      7.94061     16.94996        -0.152638     -0.214817     -0.347128
      1.85108      7.28656     17.29042        -0.278109      0.246650     -0.478159
      7.00392      5.67818     14.99429        -0.017468     -0.014476      0.400700
     11.21936     11.98218     15.81320        -0.134770     -0.164834      0.156493
      6.45571      7.70048     11.53568         0.028005      0.083244     -0.197446
     10.19510      7.06009     16.94771        -0.267790     -0.232827      0.635523
      6.36950     11.42427     11.69048        -0.026851      0.000167      0.154906
      4.30635      3.89453     15.92114         0.094069     -0.150643      0.248236
      3.33974      2.48395     12.46764        -0.139338      0.102828     -0.101165
      7.73553      9.62609     11.11048         0.025186     -0.160782      0.062788
      6.53798      5.48548     10.77765         0.009422     -0.183911     -0.252821
     12.23715     13.60875     10.08797         0.141124      0.128083      0.096104
     11.99253      4.52649     14.13587         0.080336      0.137858     -0.229604
      3.05828      9.65924     12.66256        -0.335322     -0.421196     -0.029998
      0.42897     10.00214     15.26063        -0.263717      0.164900     -0.005267
      8.78312      8.88187     16.37086         0.305510     -0.192740     -0.264874
     11.36627     13.19515     13.81752         0.007449      0.202592      0.002997
      6.66560      8.93013     15.42639        -0.187657      0.011739      0.104519
      9.24861     10.89915     15.29609        -0.125417      0.179552     -0.012279
     10.07615     12.95689     10.58977        -0.358571     -0.141939      0.020869
      5.68421      2.94206     17.58533        -0.060550      0.273510      0.219019
      7.85920      8.43026     13.38764        -0.072600      0.042583      0.170223
      7.46875      4.00797     16.54852         0.099190     -0.108230     -0.208689
      6.26777      1.05592     16.28187        -0.038366      0.190988     -0.103044
      3.19846      6.04237     12.28856        -0.006991     -0.093382     -0.179079
     13.86102      0.92292     15.52492         0.245828      0.005437      0.147690
      3.59370     11.20533     16.79003        -0.161166      0.055194      0.010935
      9.46223     13.91372     12.64061         0.176353     -0.044277      0.125133
      0.32481      1.42260     10.80361         0.026847     -0.044544     -0.060937
     12.63213      9.89963     15.66826         0.133963      0.082375      0.093610
     11.76570      1.45398     16.61360        -0.082517     -0.146270     -0.061393
      0.71165      2.66912     14.74042        -0.209198     -0.068639      0.094967
      9.05418      1.63037     13.39904        -0.215874     -0.189943      0.046738
      2.58713     13.25283     16.64791        -0.036358     -0.290486     -0.287760
     13.15792     12.05452     12.80796        -0.410466     -0.148381      0.043664
     11.90397      9.65297      9.96604         0.362445     -0.119420     -0.469072
      4.58002     11.32544     13.22992         0.009514     -0.010995      0.041893
 -----------------------------------------------------------------------------------
    total drift:                                0.013608      0.004265      0.007538


--------------------------------------------------------------------------------------------------------



  FREE ENERGIE OF THE ION-ELECTRON SYSTEM (eV)
  ---------------------------------------------------
  free  energy   TOTEN  =      -789.15311807 eV

  energy  without entropy=     -788.99502796  energy(sigma->0) =     -789.07407302



--------------------------------------------------------------------------------------------------------


    POTLOK:  cpu time      3.7284: real time      3.7386


--------------------------------------------------------------------------------------------------------


     LOOP+:  cpu time   4932.0505: real time   4935.5248
    4ORBIT:  cpu time      0.0000: real time      0.0000



 total charge

# of ion       s       p       d       tot
------------------------------------------
    1        0.564   0.015   0.000   0.579
    2        0.557   0.016   0.000   0.573
    3        0.573   0.017   0.000   0.590
    4        0.570   0.016   0.000   0.586
    5        0.568   0.017   0.000   0.585
    6        0.767   0.936   0.000   1.703
    7        0.788   0.813   0.000   1.601
    8        0.783   0.861   0.000   1.643
    9        0.770   0.950   0.000   1.720
   10        0.773   0.874   0.000   1.647
   11        0.750   0.930   0.000   1.680
   12        0.750   0.936   0.000   1.687
   13        0.789   0.913   0.000   1.702
   14        0.773   0.950   0.000   1.722
   15        0.817   0.779   0.000   1.596
   16        0.801   0.875   0.000   1.676
   17        0.784   0.860   0.000   1.645
   18        0.758   0.959   0.000   1.717
   19        0.755   0.961   0.000   1.716
   20        0.789   0.865   0.000   1.654
   21        0.758   0.896   0.000   1.654
   22        0.756   0.947   0.000   1.703
   23        0.751   0.873   0.000   1.625
   24        0.791   0.859   0.000   1.650
   25        0.757   0.935   0.000   1.693
   26        0.765   0.944   0.000   1.709
   27        0.754   0.931   0.000   1.684
   28        0.764   0.895   0.000   1.659
   29        0.751   0.920   0.000   1.671
   30        0.791   0.911   0.000   1.702
   31        0.757   0.908   0.000   1.665
   32        0.768   0.908   0.000   1.676
   33        0.754   0.950   0.000   1.704
   34        0.762   0.941   0.000   1.703
   35        0.752   0.931   0.000   1.683
   36        0.762   0.924   0.000   1.686
   37        0.754   0.926   0.000   1.680
   38        0.742   0.874   0.000   1.616
   39        0.763   0.907   0.000   1.670
   40        0.780   0.886   0.000   1.665
   41        0.759   0.900   0.000   1.659
   42        0.771   0.878   0.000   1.649
   43        0.757   0.952   0.000   1.709
   44        0.759   0.906   0.000   1.665
   45        0.804   0.845   0.000   1.650
   46        0.776   0.842   0.000   1.617
   47        0.761   0.908   0.000   1.669
   48        0.748   0.927   0.000   1.675
   49        0.779   0.905   0.000   1.684
   50        0.803   0.864   0.000   1.667
   51        0.791   0.841   0.000   1.632
   52        0.780   0.856   0.000   1.637
   53        0.768   0.970   0.000   1.738
   54        0.755   0.902   0.000   1.657
   55        0.766   0.899   0.000   1.665
   56        0.814   0.831   0.000   1.645
   57        0.741   0.980   0.000   1.721
   58        0.759   0.927   0.000   1.685
   59        0.760   0.897   0.000   1.657
   60        0.775   0.851   0.000   1.626
   61        0.803   0.836   0.000   1.639
   62        0.791   0.894   0.000   1.685
   63        0.772   0.869   0.000   1.640
   64        0.776   0.872   0.000   1.648
   65        0.757   0.934   0.000   1.691
   66        0.790   0.856   0.000   1.646
   67        0.756   0.951   0.000   1.707
   68        0.756   0.939   0.000   1.696
   69        0.761   0.944   0.000   1.704
   70        0.749   0.955   0.000   1.704
   71        0.816   0.849   0.000   1.665
   72        0.760   0.933   0.000   1.694
   73        0.857   0.742   0.000   1.599
   74        0.756   0.897   0.000   1.653
   75        0.759   0.972   0.000   1.731
   76        0.754   0.911   0.000   1.665
   77        0.757   0.903   0.000   1.660
   78        0.750   0.947   0.000   1.697
   79        0.789   0.921   0.000   1.710
   80        0.766   0.868   0.000   1.634
   81        0.811   0.823   0.000   1.634
   82        0.760   0.905   0.000   1.665
   83        0.755   0.915   0.000   1.670
   84        0.775   0.875   0.000   1.649
   85        0.760   0.938   0.000   1.699
   86        0.787   0.889   0.000   1.676
   87        0.753   0.932   0.000   1.685
--------------------------------------------------
tot         66.012  73.962   0.000 139.974


 total amount of memory used by VASP MPI-rank0   346852. kBytes
=======================================================================

   base                                    :      30000. kBytes
   nonl-proj                               :      64964. kBytes
   fftplans                                :     108837. kBytes
   grid                                    :      83991. kBytes
   one-center                              :         18. kBytes
   wavefun                                 :      59042. kBytes

  
  
 General timing and accounting informations for this job:
 ========================================================
  
                  Total CPU time used (sec):     5076.015
                            User time (sec):     4511.248
                          System time (sec):      564.767
                         Elapsed time (sec):     5079.586
  
                   Maximum memory used (kb):      611828.
                   Average memory used (kb):          N/A
  
                          Minor page faults:      9715217
                          Major page faults:         1199
                 Voluntary context switches:         3044
