ITEM: TIMESTEP
105893
ITEM: NUMBER OF ATOMS
11500
ITEM: BOX BOUNDS pp pp pp
-8.5855708175473389e-01 5.8779740687930378e+01
-8.5855708175473389e-01 5.8779740687930378e+01
-8.5855708175473389e-01 5.9379085428310056e+01
ITEM: ATOMS id type xs ys zs
1 2 0.232347 0.545678 0.4882
2 2 0.27805 0.892712 0.87643
3 2 0.0885395 0.348525 0.210332
4 2 0.197501 0.493477 0.276227
5 2 0.200697 0.404426 0.905205
6 2 0.0360997 0.137427 0.814554
7 2 0.022324 0.114143 0.1818
8 2 0.484535 0.984919 0.962969
9 2 0.235376 0.460999 0.326462
10 2 0.318039 0.391792 0.872002
11 2 0.386226 0.0646048 0.887483
12 2 0.448608 0.309695 0.427738
13 2 0.0293991 0.0502813 0.512695
14 2 0.328664 0.106503 0.562765
15 2 0.348689 0.333971 0.887643
16 2 0.359867 0.16672 0.314659
17 2 0.192784 0.211359 0.00571881
18 2 0.231731 0.499378 0.388805
19 2 0.104055 0.674449 0.324468
20 2 0.0465051 0.888026 0.977108
21 2 0.198788 0.174402 0.287936
22 2 0.329872 0.0290859 0.344075
23 2 0.97371 0.292338 0.3083
24 2 0.669029 0.572302 0.200887
25 2 0.960453 0.432711 0.353797
26 2 0.589491 0.673066 0.967911
27 2 0.247604 0.923118 0.536078
28 2 0.289432 0.913768 0.037522
29 2 0.313848 0.901792 0.161025
30 2 0.453706 0.929398 0.242908
31 2 0.853603 0.453977 0.293906
32 2 0.0719815 0.585444 0.399968
33 2 0.0454465 0.757711 0.746783
34 2 0.0478189 0.653141 0.242376
35 2 0.370891 0.257821 0.644063
36 2 0.915324 0.06373 0.2659
37 2 0.511175 0.417694 0.258129
38 2 0.579577 0.462357 0.0857314
39 2 0.699192 0.534767 0.237892
40 2 0.142292 0.0127706 0.0833316
41 2 0.846624 0.308911 0.0925384
42 2 0.336457 0.933808 0.166204
43 2 0.117993 0.248483 0.0470074
44 2 0.211477 0.386602 0.122577
45 2 0.140278 0.799784 0.761972
46 2 0.444583 0.269613 0.851155
47 2 0.0660852 0.152817 0.864445
48 2 0.732156 0.0855409 0.0834319
49 2 0.978463 0.140917 0.495831
50 2 0.0474742 0.820626 0.181888
51 2 0.767634 0.225964 0.25434
52 2 0.99429 0.131896 0.0197372
53 2 0.177536 0.19651 0.369135
54 2 0.214008 0.149461 0.447585
55 2 0.983218 0.132671 0.139307
56 2 0.366926 0.476456 0.935712
57 2 0.871402 0.320519 0.2674
58 2 0.293636 0.208091 0.907178
59 2 0.249295 0.738743 0.305827
60 2 0.953813 0.679033 0.866587
61 2 0.170092 0.914855 0.958262
62 2 0.406481 0.364903 0.208942
63 2 0.265208 0.47689 0.382691
64 2 0.0759239 0.225429 0.240481
65 2 0.468737 0.0100892 0.134862
66 2 0.772687 0.588585 0.276195
67 2 0.0611494 0.962 0.178859
68 2 0.370816 0.998923 0.444793
69 2 0.18479 0.273114 0.0216419
70 2 0.196439 0.815237 0.0909562
71 2 0.410561 0.436075 0.667383
72 2 0.26406 0.720234 0.357564
73 2 0.120272 0.549215 0.284115
74 2 0.24319 0.725414 0.908724
75 2 0.127789 0.839119 0.326286
76 2 0.591703 0.466362 0.162729
77 2 0.819775 0.283736 0.336368
78 2 0.201915 0.361234 0.856585
79 2 0.961392 0.890087 0.274213
80 2 0.685289 0.138769 0.189313
81 2 0.65762 0.45051 0.159849
82 2 0.361498 0.495405 0.740145
83 2 0.402583 0.362687 0.457747
84 2 0.269719 0.241311 0.0997582
85 2 0.256406 0.0428755 0.0773246
86 2 0.200938 0.938513 0.190046
87 2 0.256347 0.772736 0.455129
88 2 0.0651623 0.814735 0.0295028
89 2 0.175705 0.945367 0.460238
90 2 0.0104475 0.00143055 0.183395
91 2 0.337781 0.336711 0.353169
92 2 0.403411 0.263413 0.435717
93 2 0.511389 0.805163 0.205179
94 2 0.817243 0.0682998 0.0671233
95 2 0.315595 0.438018 0.290841
96 2 0.203331 0.586259 0.237096
97 2 0.142722 0.686501 0.178546
98 2 0.278864 0.534344 0.439195
99 2 0.223916 0.0619718 0.0665411
100 2 0.032891 0.0254714 0.67188
101 2 0.0664955 0.408163 0.022123
102 2 0.531357 0.14186 0.160304
103 2 0.887288 0.923395 0.252679
104 2 0.536093 0.482727 0.322513
105 2 0.170961 0.252734 0.225082
106 2 0.00714486 0.221218 0.360741
107 2 0.51999 0.457885 0.386427
108 2 0.971869 0.978695 0.905839
109 2 0.139964 0.855481 0.271389
110 2 0.207359 0.638959 0.908141
111 2 0.679272 0.271044 0.179197
112 2 0.701117 0.367846 0.099246
113 2 0.795429 0.566424 0.0358346
114 2 0.625129 0.428436 0.224299
115 2 0.518805 0.617877 0.00182305
116 2 0.237815 0.344258 0.861284
117 2 0.294214 0.234013 0.217824
118 2 0.093821 0.190528 0.230867
119 2 0.3642 0.392076 0.255009
120 2 0.42086 0.248619 0.0555883
121 2 0.921543 0.435481 0.132968
122 2 0.285763 0.379374 0.0652016
123 2 0.0710727 0.523585 0.819327
124 2 0.268856 0.333956 0.362921
125 2 0.0906649 0.572086 0.90872
126 2 0.994089 0.00355568 0.78641
127 2 0.664041 0.186389 0.116213
128 2 0.0735966 0.847371 0.0886822
129 2 0.195017 0.399209 0.866569
130 2 0.984119 0.0567473 0.567253
131 2 0.24109 0.89941 0.864488
132 2 0.393555 0.478858 0.0907276
133 2 0.390088 0.577444 0.519952
134 2 0.709533 0.369297 0.303965
135 2 0.533162 0.481566 0.576368
136 2 0.360004 0.717479 0.243196
137 2 0.408984 0.541331 0.0919711
138 2 0.180738 0.478761 0.308625
139 2 0.519966 0.506437 0.942003
140 2 0.0794621 0.205579 0.320764
141 2 0.465492 0.242506 0.461603
142 2 0.0600707 0.0419568 0.342439
143 2 0.468851 0.13553 0.35116
144 2 0.33704 0.976147 0.288393
145 2 0.181114 0.38043 0.280133
146 2 0.495525 0.777471 0.410615
147 2 0.314827 0.245621 0.402561
148 2 0.413933 0.615215 0.0814537
149 2 0.563327 0.338905 0.34143
150 2 0.0393116 0.311938 0.824291
151 2 0.516188 0.200022 0.4942
152 2 0.405389 0.0790612 0.857813
153 2 0.303817 0.373386 0.288823
154 2 0.368388 0.516898 0.044153
155 2 0.232841 0.578634 0.293822
156 2 0.324914 0.201062 0.36751
157 2 0.241135 0.540614 0.447137
158 2 0.171747 0.275554 0.404513
159 2 0.447642 0.167636 0.361665
160 2 0.619361 0.117371 0.251342
161 2 0.034275 0.940437 0.535666
162 2 0.430849 0.38784 0.0232173
163 2 0.486892 0.8917 0.284451
164 2 0.0258905 0.815261 0.0290714
165 2 0.0278375 0.203685 0.923467
166 2 0.142104 0.371317 0.288855
167 2 0.206609 0.549834 0.30409
168 2 0.05234 0.374147 0.519168
169 2 0.587933 0.114149 0.170401
170 2 0.432044 0.945939 0.0673706
171 2 0.312557 0.496381 0.151513
172 2 0.962742 0.885647 0.359875
173 2 0.104784 0.0428018 0.571392
174 2 0.265634 0.502834 0.601226
175 2 0.254897 0.801751 0.131175
176 2 0.154145 0.191683 0.0655303
177 2 0.124249 0.141683 0.181092
178 2 0.200918 0.391413 0.428408
179 2 0.125877 0.247305 0.941912
180 2 0.15775 0.130651 0.124658
181 2 0.272443 0.878836 0.430697
182 2 0.617216 0.369848 0.93048
183 2 0.116001 0.252186 0.348222
184 2 0.25474 0.188971 0.067842
185 2 0.311408 0.249996 0.159524
186 2 0.369761 0.15004 0.232357
187 2 0.20936 0.372118 0.307139
188 2 0.946953 0.117404 0.500371
189 2 0.209455 0.154671 0.0350344
190 2 0.276082 0.470234 0.194228
191 2 0.289378 0.623055 0.902286
192 2 0.0588289 0.109642 0.360669
193 2 0.285396 0.31205 0.226319
194 2 0.334215 0.150841 0.466892
195 2 0.0830542 0.943637 0.396372
196 2 0.903425 0.438113 0.187539
197 2 0.300329 0.358043 0.943067
198 2 0.411092 0.258959 0.0924123
199 2 0.0691985 0.504073 0.122029
200 2 0.915481 0.918806 0.434361
201 2 0.146789 0.767818 0.431649
202 2 0.198804 0.203811 0.196288
203 2 0.548616 0.290113 0.466399
204 2 0.387916 0.0929159 0.495789
205 2 0.178707 0.352145 0.48239
206 2 0.118856 0.954457 0.53943
207 2 0.108852 0.214334 0.173184
208 2 0.217655 0.966733 0.167447
209 2 0.986537 0.712912 0.177055
210 2 0.260589 0.126995 0.34906
211 2 0.111238 0.475385 0.308819
212 2 0.290615 0.50596 0.669569
213 2 0.352516 0.282632 0.499296
214 2 0.423186 0.220121 0.566499
215 2 0.537882 0.700795 0.36913
216 2 0.489662 0.677323 0.417336
217 2 0.346796 0.513174 0.138294
218 2 0.247213 0.207848 0.502421
219 2 0.231935 0.100675 0.0637894
220 2 0.994853 0.0738743 0.253278
221 2 0.402706 0.308217 0.333639
222 2 0.380785 0.93227 0.117714
223 2 0.981593 0.475294 0.995211
224 2 0.497212 0.193928 0.322346
225 2 0.865005 0.223484 0.785417
226 2 0.954503 0.96697 0.0462379
227 2 0.148085 0.489481 0.0229268
228 2 0.175112 0.01395 0.377865
229 2 0.376401 0.400975 0.609002
230 2 0.249573 0.129416 0.263356
231 2 0.0539692 0.11543 0.262902
232 2 0.0187744 0.58861 0.445456
233 2 0.106215 0.0256638 0.0734284
234 2 0.00749057 0.199821 0.869337
235 2 0.903213 0.641142 0.35126
236 2 0.295019 0.474976 0.249213
237 2 0.626408 0.00610472 0.173559
238 2 0.233009 0.494358 0.030742
239 2 0.304813 0.405308 0.176875
240 2 0.639459 0.346924 0.993974
241 2 0.75223 0.108358 0.377865
242 2 0.282894 0.881881 0.25275
243 2 0.977957 0.800766 0.442967
244 2 0.162449 0.161071 0.291998
245 2 0.327001 0.247539 0.798615
246 2 0.919533 0.91958 0.310106
247 2 0.0199494 0.263461 0.172295
248 2 0.235486 0.479072 0.453083
249 2 0.435944 0.374399 0.35476
250 2 0.427926 0.466462 0.159482
251 2 0.0918983 0.116102 0.277568
252 2 0.268931 0.861291 0.133709
253 2 0.375889 0.993362 0.482512
254 2 0.58715 0.328892 0.311539
255 2 0.188603 0.861499 0.988173
256 2 0.153164 0.252851 0.814016
257 2 0.442796 0.455654 0.931142
258 2 0.0198641 0.586105 0.990074
259 2 0.540027 0.92772 0.281148
260 2 0.404003 0.511921 0.573123
261 2 0.427148 0.922362 0.403364
262 2 0.350745 0.735758 0.383901
263 2 0.505742 0.837811 0.61889
264 2 0.567076 0.264701 0.121754
265 2 0.0218661 0.194071 0.177754
266 2 0.459432 0.534969 0.280377
267 2 0.381371 0.0345189 0.81945
268 2 0.0813792 0.341156 0.615399
269 2 0.737474 0.247939 0.535616
270 2 0.426927 0.138538 0.595335
271 2 0.447127 0.328149 0.0583792
272 2 0.393168 0.827977 0.276826
273 2 0.193825 0.178035 0.816754
274 2 0.788132 0.626021 0.226203
275 2 0.518432 0.527328 0.648603
276 2 0.453327 0.839833 0.177043
277 2 0.313301 0.679734 0.926469
278 2 0.967628 0.434679 0.17632
279 2 0.742139 0.338318 0.414799
280 2 0.43944 0.153517 0.142724
281 2 0.115299 0.185573 0.0189207
282 2 0.962415 0.087749 0.870979
283 2 0.270333 0.189977 0.346687
284 2 0.50884 0.608443 0.424085
285 2 0.113123 0.170557 0.73042
286 2 0.240041 0.478501 0.207895
287 2 0.97869 0.212578 0.12415
288 2 0.179534 0.274176 0.967238
289 2 0.00860532 0.714816 0.515402
290 2 0.192426 0.796788 0.126484
291 2 0.39276 0.0930148 0.246192
292 2 0.449063 0.64182 0.215213
293 2 0.200855 0.156085 0.583662
294 2 0.982068 0.46199 0.228892
295 2 0.13942 0.312196 0.0449419
296 2 0.0982925 0.698479 0.225107
297 2 0.507598 0.993623 0.33776
298 2 0.240712 0.972705 0.451701
299 2 0.221973 0.0780462 0.344613
300 2 0.427184 0.0303124 0.658909
301 2 0.452102 0.284852 0.39403
302 2 0.12869 0.327874 0.164597
303 2 0.228707 0.218024 0.989215
304 2 0.538131 0.300884 0.175622
305 2 0.0772143 0.416231 0.237985
306 2 0.221841 0.122408 0.212532
307 2 0.268059 0.205997 0.279481
308 2 0.519761 0.335998 0.50192
309 2 0.945719 0.86407 0.330922
310 2 0.11769 0.291932 0.210834
311 2 0.352973 0.192977 0.136208
312 2 0.63063 0.368997 0.338189
313 2 0.476732 0.186137 0.290535
314 2 0.274179 0.261618 0.96638
315 2 0.285407 0.57478 0.516681
316 2 0.820712 0.23226 0.131715
317 2 0.194459 0.997675 0.00582431
318 2 0.0753689 0.0371835 0.128156
319 2 0.934794 0.230982 0.351345
320 2 0.111379 0.0707161 0.211439
321 2 0.534545 0.269267 0.406269
322 2 0.0633776 0.18671 0.989677
323 2 0.347921 0.449315 0.521432
324 2 0.447825 0.0941874 0.105582
325 2 0.345781 0.55012 0.0464406
326 2 0.610141 0.605401 0.242413
327 2 0.140302 0.579174 0.028758
328 2 0.325508 0.186059 0.306383
329 2 0.090201 0.841398 0.747006
330 2 0.702337 0.856177 0.491671
331 2 0.200269 0.477983 0.372325
332 2 0.647964 0.521842 0.275576
333 2 0.222022 0.175109 0.319501
334 2 0.166634 0.158271 0.229391
335 2 0.139131 0.586374 0.191767
336 2 0.24441 0.180349 0.555236
337 2 0.16716 0.861675 0.807264
338 2 0.210617 0.279331 0.991058
339 2 0.300811 0.42279 0.0139377
340 2 0.0826479 0.0409077 0.475611
341 2 0.198447 0.324346 0.140069
342 2 0.998781 0.969414 0.202644
343 2 0.907748 0.604485 0.338107
344 2 0.360218 0.870783 0.950202
345 2 0.31318 0.656353 0.807361
346 2 0.223767 0.360632 0.0948084
347 2 0.127903 0.957361 0.118079
348 2 0.37078 0.501318 0.199625
349 2 0.150082 0.488645 0.157923
350 2 0.231936 0.244787 0.372054
351 2 0.118958 0.313289 0.809757
352 2 0.434357 0.342274 0.379786
353 2 0.441701 0.14378 0.260059
354 2 0.0982567 0.695899 0.933282
355 2 0.192002 0.824485 0.342507
356 2 0.128886 0.175195 0.0904834
357 2 0.256446 0.0233462 0.153121
358 2 0.194752 0.577409 0.091231
359 2 0.686646 0.283834 0.596391
360 2 0.939268 0.200471 0.2151
361 2 0.166437 0.579051 0.574975
362 2 0.461068 0.400904 0.960517
363 2 0.0914368 0.73495 0.708238
364 2 0.281756 0.853635 0.321682
365 2 0.27002 0.0914726 0.158535
366 2 0.184868 0.317171 0.242051
367 2 0.290613 0.294879 0.942436
368 2 0.749879 0.0139874 0.446618
369 2 0.472804 0.346482 0.99051
370 2 0.45515 0.457544 0.62283
371 2 0.237089 0.637902 0.26509
372 2 0.0687001 0.251075 0.962654
373 2 0.302103 0.368866 0.566547
374 2 0.570935 0.902729 0.148396
375 2 0.372348 0.765058 0.953028
376 2 0.474576 0.19581 0.355157
377 2 0.17085 0.129753 0.313671
378 2 0.671879 0.0566873 0.0927121
379 2 0.242956 0.517324 0.850861
380 2 0.0894436 0.396207 0.336184
381 2 0.337987 0.740821 0.118933
382 2 0.0924195 0.712495 0.377272
383 2 0.2908 0.311548 0.31968
384 2 0.544786 0.58476 0.54751
385 2 0.162708 0.0852021 0.856657
386 2 0.289648 0.244324 0.473629
387 2 0.319764 0.458276 0.141381
388 2 0.423257 0.124267 0.437888
389 2 0.137889 0.836293 0.158827
390 2 0.107331 0.818599 0.844145
391 2 0.721568 0.161121 0.525538
392 2 0.242893 0.171389 0.160097
393 2 0.186039 0.838155 0.59352
394 2 0.98082 0.428788 0.83516
395 2 0.900554 0.566778 0.288393
396 2 0.966691 0.666187 0.357674
397 2 0.760674 0.712228 0.963738
398 2 0.352841 0.444838 0.197776
399 2 0.728588 0.975013 0.332322
400 2 0.62133 0.402237 0.955664
401 2 0.975013 0.911798 0.539213
402 2 0.379255 0.879048 0.405633
403 2 0.258448 0.267655 0.126886
404 2 0.585691 0.557193 0.827436
405 2 0.555531 0.401902 0.34369
406 2 0.0731724 0.688664 0.40149
407 2 0.0646057 0.183927 0.351985
408 2 0.288947 0.103279 0.977004
409 2 0.641861 0.535467 0.557939
410 2 0.915053 0.942543 0.998108
411 2 0.409726 0.303697 0.429223
412 2 0.144047 0.190034 0.350563
413 2 0.801863 0.407881 0.329793
414 2 0.250532 0.278485 0.374773
415 2 0.303162 0.810198 0.278221
416 2 0.178419 0.492118 0.209166
417 2 0.241341 0.399692 0.144952
418 2 0.197759 0.55393 0.37679
419 2 0.0834211 0.244822 0.329235
420 2 0.461708 0.0485259 0.245095
421 2 0.986208 0.00347232 0.15222
422 2 0.196795 0.592898 0.36984
423 2 0.163656 0.626096 0.326389
424 2 0.960533 0.685629 0.938748
425 2 0.0759034 0.956334 0.213106
426 2 0.154791 0.977099 0.0958686
427 2 0.263623 0.402838 0.257865
428 2 0.160561 0.1969 0.140909
429 2 0.364823 0.910029 0.424245
430 2 0.340113 0.181758 0.171924
431 2 0.049656 0.202025 0.808511
432 2 0.0242899 0.229989 0.195015
433 2 0.549187 0.498706 0.918579
434 2 0.113448 0.367095 0.0451095
435 2 0.128317 0.309753 0.270604
436 2 0.31584 0.445309 0.0686303
437 2 0.0730319 0.976117 0.271499
438 2 0.203677 0.867172 0.459198
439 2 0.387291 0.664556 0.296219
440 2 0.371742 0.492866 0.16043
441 2 0.044446 0.216339 0.262229
442 2 0.291514 0.195148 0.214655
443 2 0.65379 0.249262 0.0274654
444 2 0.376602 0.124968 0.262306
445 2 0.117773 0.17977 0.938175
446 2 0.454249 0.444047 0.212222
447 2 0.287372 0.125902 0.143526
448 2 0.569739 0.461568 0.952997
449 2 0.00346549 0.920535 0.236333
450 2 0.302624 0.0385126 0.223543
451 2 0.394517 0.291492 0.298418
452 2 0.44 0.281896 0.558001
453 2 0.94059 0.803966 0.259726
454 2 0.173271 0.294656 0.053152
455 2 0.418955 0.267867 0.378609
456 2 0.311634 0.949764 0.30241
457 2 0.401209 0.309163 0.75783
458 2 0.522231 0.77976 0.318896
459 2 0.269041 0.363936 0.387879
460 2 0.387869 0.178842 0.289917
461 2 0.285004 0.380483 0.104804
462 2 0.0348502 0.0853496 0.243013
463 2 0.208034 0.488296 0.334826
464 2 0.515762 0.42971 0.617002
465 2 0.168423 0.403127 0.196852
466 2 0.146717 0.470424 0.954525
467 2 0.131577 0.222579 0.264199
468 2 0.347061 0.129129 0.696734
469 2 0.569139 0.515459 0.12955
470 2 0.34116 0.479225 0.211899
471 2 0.272293 0.0799299 0.196208
472 2 0.530287 0.26147 0.272334
473 2 0.0250262 0.949599 0.694928
474 2 0.20482 0.576378 0.921776
475 2 0.199364 0.763911 0.622323
476 2 0.107981 0.918376 0.860518
477 2 0.209107 0.00293105 0.810833
478 2 0.141389 0.54391 0.880937
479 2 0.549774 0.573662 0.135437
480 2 0.252838 0.741139 0.166239
481 2 0.454415 0.122227 0.316742
482 2 0.0543648 0.244155 0.0621181
483 2 0.189499 0.101737 0.293439
484 2 0.085857 0.307027 0.930418
485 2 0.0413778 0.256948 0.138123
486 2 0.00346468 0.0818536 0.818485
487 2 0.196557 0.137544 0.124896
488 2 0.341368 0.338595 0.423254
489 2 0.627694 0.483846 0.507409
490 2 0.814008 0.279925 0.26194
491 2 0.19318 0.527804 0.13566
492 2 0.528932 0.518634 0.842498
493 2 0.547692 0.306529 0.503053
494 2 0.938075 0.37139 0.0260974
495 2 0.955488 0.0249112 0.285496
496 2 0.492222 0.477561 0.277195
497 2 0.276829 0.148151 0.49015
498 2 0.233832 0.420449 0.279007
499 2 0.312904 0.0296285 0.379881
500 2 0.12518 0.698907 0.480514
501 2 0.185332 0.997307 0.208569
502 2 0.206889 0.154457 0.15829
503 2 0.137358 0.423761 0.1449
504 2 0.153799 0.281813 0.996576
505 2 0.247317 0.455785 0.289327
506 2 0.183475 0.291726 0.464277
507 2 0.48155 0.440205 0.271589
508 2 0.958806 0.773565 0.0818111
509 2 0.264406 0.414077 0.220779
510 2 0.304191 0.316783 0.355847
511 2 0.0274725 0.525542 0.282824
512 2 0.116416 0.124078 0.247076
513 2 0.424708 0.466052 0.464123
514 2 0.240701 0.669726 0.0344446
515 2 0.015267 0.465542 0.383707
516 2 0.220398 0.370214 0.230382
517 2 0.406034 0.981418 0.221167
518 2 0.461585 0.182923 0.210049
519 2 0.141625 0.454767 0.464712
520 2 0.44904 0.557648 0.59243
521 2 0.0373443 0.966153 0.0305223
522 2 0.376055 0.17164 0.351309
523 2 0.995388 0.407401 0.406201
524 2 0.392936 0.1174 0.368563
525 2 0.293992 0.567334 0.307637
526 2 0.336945 0.839787 0.524101
527 2 0.925627 0.212144 0.249498
528 2 0.352072 0.978776 0.589379
529 2 0.28302 0.139284 0.285947
530 2 0.967848 0.87301 0.771086
531 2 0.145568 0.831396 0.427033
532 2 0.331389 0.537142 0.709874
533 2 0.70159 0.274944 0.339025
534 2 0.34729 0.9425 0.893595
535 2 0.744054 0.24825 0.167531
536 2 0.0838189 0.321473 0.424812
537 2 0.167496 0.0502424 0.504497
538 2 0.297516 0.153736 0.397858
539 2 0.905502 0.1216 0.24998
540 2 0.253247 0.0913371 0.254346
541 2 0.21953 0.511122 0.160855
542 2 0.360662 0.240452 0.199973
543 2 0.580227 0.491309 0.2728
544 2 0.442251 0.380026 0.150542
545 2 0.562177 0.291079 0.225779
546 2 0.185696 0.36269 0.142626
547 2 0.668867 0.043165 0.130986
548 2 0.26615 0.222293 0.369591
549 2 0.105106 0.140202 0.308538
550 2 0.605955 0.9971 0.896112
551 2 0.303913 0.382672 0.390467
552 2 0.33373 0.295328 0.0328568
553 2 0.464616 0.677418 0.222855
554 2 0.981616 0.151598 0.762191
555 2 0.16843 0.884954 0.353922
556 2 0.365601 0.118258 0.0869184
557 2 0.500038 0.99918 0.376395
558 2 0.0956853 0.902479 0.504833
559 2 0.647358 0.147475 0.420232
560 2 0.572819 0.35497 0.561502
561 2 0.557941 0.58921 0.347794
562 2 0.00263007 0.0892486 0.380872
563 2 0.174471 0.102856 0.176907
564 2 0.957204 0.421485 0.534654
565 2 0.432232 0.663072 0.0136338
566 2 0.0851137 0.431002 0.35231
567 2 0.0870931 0.561306 0.112024
568 2 0.359998 0.694822 0.987886
569 2 0.260966 0.0227433 0.413972
570 2 0.161686 0.58143 0.634572
571 2 0.0580953 0.514175 0.574476
572 2 0.832896 0.120059 0.0399589
573 2 0.195326 0.451232 0.125205
574 2 0.732529 0.0758273 0.121885
575 2 0.604862 0.983234 0.445944
576 2 0.542552 0.0771774 0.156981
577 2 0.527017 0.48894 0.438216
578 2 0.28244 0.267604 0.622827
579 2 0.677683 0.547436 0.146156
580 2 0.0325184 0.00258013 0.0161374
581 2 0.586551 0.307654 0.249996
582 2 0.141361 0.394287 0.0472004
583 2 0.964456 0.725378 0.207767
584 2 0.454744 0.334292 0.305587
585 2 0.333604 0.483203 0.250595
586 2 0.327856 0.444265 0.488096
587 2 0.59776 0.290516 0.637285
588 2 0.350693 0.354217 0.256677
589 2 0.164917 0.485247 0.558354
590 2 0.386872 0.521832 0.267239
591 2 0.0465486 0.530384 0.912141
592 2 0.0160935 0.256038 0.345071
593 2 0.0440195 0.0289935 0.795886
594 2 0.32233 0.316803 0.186292
595 2 0.280799 0.138314 0.206292
596 2 0.788397 0.246949 0.952451
597 2 0.250046 0.387553 0.00249727
598 2 0.447465 0.526995 0.341148
599 2 0.993068 0.131612 0.202867
600 2 0.571853 0.327152 0.804007
601 2 0.398843 0.421878 0.0783101
602 2 0.236329 0.855594 0.0467594
603 2 0.109772 0.915897 0.820185
604 2 0.975872 0.589696 0.400982
605 2 0.344654 0.24648 0.139558
606 2 0.98207 0.34219 0.955816
607 2 0.452378 0.530116 0.725075
608 2 0.424001 0.410692 0.25695
609 2 0.938648 0.052405 0.236847
610 2 0.922413 0.179466 0.271767
611 2 0.230792 0.136977 0.326715
612 2 0.54635 0.530563 0.621565
613 2 0.508102 0.279415 0.797998
614 2 0.423352 0.183526 0.454719
615 2 0.403653 0.031258 0.107562
616 2 0.765837 0.336932 0.321349
617 2 0.144555 0.296452 0.913008
618 2 0.145944 0.0508523 0.770128
619 2 0.2283 0.534437 0.23644
620 2 0.922221 0.154428 0.172279
621 2 0.89137 0.694602 0.353478
622 2 0.208725 0.514828 0.8342
623 2 0.156241 0.0464517 0.385334
624 2 0.197392 0.0524043 0.972411
625 2 0.285763 0.353674 0.222064
626 2 0.139393 0.0213512 0.137706
627 2 0.175657 0.0872195 0.427926
628 2 0.50111 0.368306 0.347122
629 2 0.0245512 0.173673 0.820435
630 2 0.129735 0.471229 0.106058
631 2 0.174177 0.310885 0.203853
632 2 0.93475 0.337067 0.282338
633 2 0.0420992 0.177065 0.260787
634 2 0.44102 0.466477 0.426485
635 2 0.124471 0.582141 0.354057
636 2 0.0103049 0.0586059 0.9323
637 2 0.357915 0.431211 0.98056
638 2 0.0130643 0.413153 0.343298
639 2 0.539031 0.187736 0.428722
640 2 0.0375846 0.354692 0.173863
641 2 0.0489878 0.401115 0.214889
642 2 0.317089 0.872506 0.26729
643 2 0.43422 0.27174 0.149802
644 2 0.349386 0.0960677 0.503158
645 2 0.416899 0.0213233 0.970045
646 2 0.262099 0.972191 0.963275
647 2 0.990022 0.769078 0.345356
648 2 0.104389 0.570848 0.177506
649 2 0.253435 0.185514 0.221461
650 2 0.294454 0.136781 0.772116
651 2 0.0662613 0.576758 0.361343
652 2 0.244958 0.0629682 0.709679
653 2 0.28267 0.321774 0.715008
654 2 0.353103 0.840837 0.804173
655 2 0.00235033 0.97562 0.129386
656 2 0.352336 0.185751 0.237421
657 2 0.951985 0.0734281 0.419373
658 2 0.882306 0.0493948 0.197815
659 2 0.914505 0.181507 0.919593
660 2 0.412923 0.511771 0.965363
661 2 0.0176042 0.7798 0.399857
662 2 0.314839 0.786947 0.843622
663 2 0.51807 0.638054 0.32915
664 2 0.113637 0.363858 0.925558
665 2 0.612964 0.0336185 0.251686
666 2 0.885988 0.944891 0.679471
667 2 0.10453 0.0833312 0.821281
668 2 0.424446 0.767489 0.90997
669 2 0.233746 0.32973 0.121297
670 2 0.674276 0.450182 0.705618
671 2 0.106103 0.155667 0.149876
672 2 0.48144 0.820144 0.296045
673 2 0.392994 0.949246 0.0635872
674 2 0.336562 0.140138 0.103669
675 2 0.121448 0.102169 0.386937
676 2 0.402229 0.203176 0.506258
677 2 0.352782 0.467221 0.680466
678 2 0.305845 0.857683 0.744347
679 2 0.310933 0.651818 0.1171
680 2 0.40994 0.373845 0.840159
681 2 0.498358 0.935782 0.0890836
682 2 0.365577 0.144383 0.379855
683 2 0.452423 0.562271 0.415496
684 2 0.249421 0.146351 0.227523
685 2 0.159916 0.901375 0.291825
686 2 0.0285133 0.28704 0.545885
687 2 0.249771 0.401785 0.944764
688 2 0.541137 0.0381761 0.110166
689 2 0.279857 0.953355 0.167337
690 2 0.31158 0.284034 0.67488
691 2 0.149028 0.343203 0.859439
692 2 0.627714 0.967206 0.372268
693 2 0.121179 0.0844871 0.146689
694 2 0.170981 0.592744 0.727515
695 2 0.40866 0.610971 0.196846
696 2 0.192684 0.547707 0.24113
697 2 0.405183 0.101179 0.53057
698 2 0.597193 0.733622 0.277731
699 2 0.338918 0.093165 0.218205
700 2 0.434242 0.911272 0.302794
701 2 0.129266 0.724216 0.984899
702 2 0.0579486 0.396796 0.406137
703 2 0.361409 0.914707 0.223591
704 2 0.947657 0.00605583 0.0555227
705 2 0.101533 0.249127 0.261655
706 2 0.00871164 0.0362184 0.200557
707 2 0.211702 0.421857 0.47873
708 2 0.353237 0.429293 0.430001
709 2 0.0581773 0.160496 0.666825
710 2 0.241551 0.662499 0.351258
711 2 0.965191 0.134259 0.0474006
712 2 0.585756 0.164072 0.283862
713 2 0.143246 0.123729 0.9794
714 2 0.874286 0.197666 0.949895
715 2 0.180717 0.505793 0.106077
716 2 0.34408 0.219629 0.298361
717 2 0.980948 0.0551641 0.289315
718 2 0.8387 0.0846084 0.936995
719 2 0.546259 0.594729 0.384083
720 2 0.402836 0.130802 0.0808109
721 2 0.541366 0.973406 0.331766
722 2 0.392254 0.899291 0.137046
723 2 0.925028 0.153816 0.330971
724 2 0.188044 0.237251 0.036571
725 2 0.459396 0.454802 0.991769
726 2 0.218994 0.981257 0.674283
727 2 0.241901 0.62585 0.15784
728 2 0.860149 0.250987 0.986957
729 2 0.298999 0.491537 0.396944
730 2 0.133481 0.0942537 0.349767
731 2 0.425213 0.404 0.64761
732 2 0.134397 0.966925 0.040945
733 2 0.323444 0.304203 0.223215
734 2 0.308593 0.178424 0.340256
735 2 0.0964187 0.584607 0.141527
736 2 0.321187 0.424356 0.207554
737 2 0.679822 0.233481 0.0883239
738 2 0.276752 0.276624 0.328165
739 2 0.921154 0.0201652 0.0296542
740 2 0.209731 0.120305 0.176553
741 2 0.0469513 0.666468 0.00774904
742 2 0.223899 0.310186 0.239231
743 2 0.902159 0.221854 0.586075
744 2 0.97046 0.8338 0.320123
745 2 0.084098 0.127309 0.00492145
746 2 0.0391342 0.104928 0.328171
747 2 0.360671 0.533308 0.220516
748 2 0.553502 0.180008 0.352715
749 2 0.101407 0.12522 0.640683
750 2 0.583874 0.158478 0.584733
751 2 0.504825 0.0293501 0.318441
752 2 0.962162 0.0209935 0.247201
753 2 0.509192 0.553618 0.763967
754 2 0.104903 0.00949723 0.184788
755 2 0.1581 0.264511 0.163768
756 2 0.993857 0.390094 0.479984
757 2 0.861695 0.0423236 0.324266
758 2 0.274381 0.566804 0.0527746
759 2 0.32191 0.585223 0.220275
760 2 0.79815 0.442278 0.402588
761 2 0.216864 0.0445458 0.0325934
762 2 0.119502 0.449285 0.340347
763 2 0.244053 0.499614 0.239927
764 2 0.471413 0.368337 0.544402
765 2 0.579045 0.570613 0.560948
766 2 0.0936993 0.291194 0.0892663
767 2 0.24547 0.839981 0.31616
768 2 0.435562 0.816867 0.0408695
769 2 0.258857 0.353316 0.424228
770 2 0.229514 0.163698 0.386572
771 2 0.179253 0.478044 0.245685
772 2 0.348648 0.0129165 0.8922
773 2 0.207953 0.668093 0.0131322
774 2 0.0114408 0.0334561 0.640014
775 2 0.151071 0.219173 0.230384
776 2 0.386062 0.111721 0.849753
777 2 0.273143 0.134083 0.105771
778 2 0.0799544 0.554144 0.42251
779 2 0.0347616 0.148761 0.462393
780 2 0.240079 0.0875436 0.217828
781 2 0.434461 0.436569 0.066295
782 2 0.613461 0.151703 0.706906
783 2 0.517487 0.394539 0.572863
784 2 0.14649 0.497251 0.317095
785 2 0.430489 0.307757 0.238704
786 2 0.157908 0.341168 0.0938831
787 2 0.0290576 0.0225206 0.60565
788 2 0.276053 0.140488 0.429665
789 2 0.32919 0.830936 0.159156
790 2 0.389227 0.367187 0.52207
791 2 0.302357 0.96708 0.33587
792 2 0.309618 0.972839 0.0832319
793 2 0.507464 0.378319 0.0979356
794 2 0.297162 0.177291 0.278456
795 2 0.220951 0.763011 0.164262
796 2 0.768223 0.981713 0.337135
797 2 0.301625 0.0661403 0.389197
798 2 0.564682 0.453944 0.221654
799 2 0.0760563 0.18131 0.419106
800 2 0.247737 0.189514 0.125574
801 2 0.252367 0.599559 0.455205
802 2 0.161459 0.952788 0.0672607
803 2 0.256217 0.850685 0.251679
804 2 0.155916 0.207354 0.9021
805 2 0.300783 0.186608 0.176748
806 2 0.390546 0.00615533 0.0450951
807 2 0.173932 0.258688 0.751657
808 2 0.113082 0.295812 0.304019
809 2 0.235256 0.223627 0.877448
810 2 0.262949 0.400943 0.33673
811 2 0.313685 0.177939 0.241881
812 2 0.29441 0.788176 0.502374
813 2 0.164432 0.914416 0.328272
814 2 0.146556 0.960219 0.152277
815 2 0.043075 0.0991803 0.0986515
816 2 0.191556 0.157318 0.73709
817 2 0.330589 0.291807 0.938089
818 2 0.282335 0.490204 0.316235
819 2 0.758898 0.2719 0.296961
820 2 0.0449801 0.592075 0.280467
821 2 0.257215 0.88159 0.395228
822 2 0.943476 0.606408 0.384124
823 2 0.235991 0.490716 0.27654
824 2 0.139943 0.0739586 0.668577
825 2 0.322828 0.371699 0.358012
826 2 0.164778 0.0721816 0.355774
827 2 0.480544 0.0472346 0.137795
828 2 0.247003 0.332647 0.265153
829 2 0.111412 0.973834 0.207119
830 2 0.140438 0.155346 0.258424
831 2 0.146354 0.577651 0.291819
832 2 0.118111 0.368679 0.387286
833 2 0.336001 0.043848 0.283218
834 2 0.933767 0.515691 0.0354089
835 2 0.442636 0.75678 0.049515
836 2 0.314396 0.386475 0.508356
837 2 0.568136 0.378993 0.848382
838 2 0.565592 0.0488592 0.140486
839 2 0.0118509 0.0454186 0.111123
840 2 0.631513 0.14041 0.385411
841 2 0.530158 0.00188043 0.0992054
842 2 0.224104 0.23219 0.482436
843 2 0.299797 0.299459 0.640952
844 2 0.0421851 0.712788 0.952277
845 2 0.862134 0.182554 0.00437579
846 2 0.0534264 0.606871 0.983061
847 2 0.391779 0.498735 0.363826
848 2 0.134429 0.737307 0.258155
849 2 0.136494 0.752465 0.365398
850 2 0.0711488 0.196023 0.119863
851 2 0.147252 0.512724 0.355032
852 2 0.277187 0.0603376 0.105035
853 2 0.232896 0.311061 0.200834
854 2 0.664129 0.320892 0.302554
855 2 0.180598 0.856684 0.950625
856 2 0.380348 0.503829 0.326258
857 2 0.0904551 0.601807 0.885419
858 2 0.287032 0.392177 0.955589
859 2 0.354906 0.333426 0.317901
860 2 0.36938 0.286781 0.0503791
861 2 0.465574 0.343376 0.92467
862 2 0.296166 0.482109 0.53723
863 2 0.96227 0.336308 0.483417
864 2 0.929176 0.581977 0.267704
865 2 0.0925699 0.379982 0.815527
866 2 0.401345 0.835085 0.989212
867 2 0.402494 0.0583675 0.44583
868 2 0.193885 0.391332 0.980387
869 2 0.256137 0.636647 0.0495202
870 2 0.580422 0.309001 0.398058
871 2 0.328459 0.571 0.365826
872 2 0.688721 0.346718 0.582287
873 2 0.0382406 0.62744 0.334089
874 2 0.663746 0.44147 0.57124
875 2 0.122781 0.348845 0.261871
876 2 0.958819 0.945707 0.952623
877 2 0.589334 0.386654 0.44468
878 2 0.883013 0.920195 0.185402
879 2 0.398154 0.0563569 0.48488
880 2 0.0925112 0.754305 0.325432
881 2 0.201966 0.321341 0.0515445
882 2 0.0766995 0.128155 0.144945
883 2 0.267316 0.235761 0.898851
884 2 0.425142 0.125555 0.114397
885 2 0.892768 0.382056 0.0898713
886 2 0.38136 0.66026 0.360175
887 2 0.14125 0.0524548 0.160763
888 2 0.433756 0.0973814 0.410693
889 2 0.0660659 0.488338 0.345506
890 2 0.614497 0.542771 0.26957
891 2 0.858216 0.519607 0.220977
892 2 0.183484 0.212488 0.112262
893 2 0.0807171 0.448788 0.299127
894 2 0.234427 0.763864 0.391713
895 2 0.297033 0.0808805 0.323655
896 2 0.155962 0.951388 0.396646
897 2 0.566388 0.473521 0.86337
898 2 0.374831 0.367732 0.00264532
899 2 0.026213 0.864367 0.25923
900 2 0.125125 0.199226 0.206417
901 2 0.0633913 0.865802 0.763888
902 2 0.531876 0.941089 0.108887
903 2 0.0432195 0.0189477 0.112115
904 2 0.203451 0.0710504 0.00773106