ITEM: TIMESTEP
125341
ITEM: NUMBER OF ATOMS
11500
ITEM: BOX BOUNDS pp pp pp
-8.5855708175473389e-01 5.8779740687930378e+01
-8.5855708175473389e-01 5.8779740687930378e+01
-8.5855708175473389e-01 6.1837304871179654e+01
ITEM: ATOMS id type xs ys zs
1 2 0.232552 0.545721 0.488514
2 2 0.278396 0.892418 0.876457
3 2 0.0881235 0.347842 0.210345
4 2 0.197416 0.493441 0.275283
5 2 0.200292 0.404192 0.90463
6 2 0.0362873 0.13703 0.814977
7 2 0.0222923 0.114119 0.181263
8 2 0.485099 0.984964 0.963324
9 2 0.235922 0.461466 0.325583
10 2 0.318072 0.391753 0.871812
11 2 0.386544 0.0645163 0.887286
12 2 0.448356 0.310025 0.428058
13 2 0.0296141 0.0503877 0.513355
14 2 0.32784 0.10658 0.563083
15 2 0.348725 0.333867 0.887896
16 2 0.360191 0.166981 0.3153
17 2 0.192332 0.211066 0.00544057
18 2 0.231239 0.498893 0.388268
19 2 0.10369 0.674839 0.326362
20 2 0.0467026 0.88748 0.977301
21 2 0.199285 0.173784 0.287905
22 2 0.330017 0.0287932 0.345152
23 2 0.973602 0.292371 0.307924
24 2 0.668672 0.572264 0.199954
25 2 0.960173 0.432592 0.35381
26 2 0.589712 0.672813 0.968439
27 2 0.247542 0.923333 0.536022
28 2 0.289321 0.913377 0.0375794
29 2 0.314236 0.901238 0.161148
30 2 0.453804 0.929504 0.242689
31 2 0.854082 0.454035 0.292918
32 2 0.0719374 0.585331 0.399943
33 2 0.0456658 0.758017 0.74579
34 2 0.0485946 0.653268 0.24305
35 2 0.371029 0.257824 0.644298
36 2 0.915042 0.0632509 0.265845
37 2 0.511799 0.417328 0.258106
38 2 0.579562 0.461528 0.0851967
39 2 0.698853 0.534925 0.237049
40 2 0.142908 0.0127701 0.0844969
41 2 0.847099 0.30885 0.0925103
42 2 0.336676 0.933567 0.166566
43 2 0.117866 0.247804 0.0478322
44 2 0.210993 0.386233 0.122411
45 2 0.140425 0.799244 0.761919
46 2 0.444576 0.269448 0.851401
47 2 0.0658609 0.152353 0.865423
48 2 0.732967 0.0854079 0.0826022
49 2 0.978525 0.141275 0.495917
50 2 0.0473755 0.820529 0.181203
51 2 0.768035 0.225275 0.254084
52 2 0.99466 0.131861 0.0199999
53 2 0.17721 0.196287 0.369316
54 2 0.214024 0.14924 0.446924
55 2 0.983251 0.132507 0.138521
56 2 0.366956 0.476307 0.935536
57 2 0.871343 0.320197 0.266619
58 2 0.293815 0.207958 0.90724
59 2 0.249331 0.738419 0.305771
60 2 0.953469 0.679631 0.867221
61 2 0.170159 0.914259 0.95841
62 2 0.406461 0.364634 0.208277
63 2 0.265223 0.476668 0.381997
64 2 0.0762399 0.225862 0.240276
65 2 0.469359 0.010246 0.134735
66 2 0.772394 0.588382 0.275832
67 2 0.0609646 0.962156 0.17955
68 2 0.370835 0.998679 0.444977
69 2 0.183199 0.272703 0.0213175
70 2 0.195454 0.812888 0.092634
71 2 0.410903 0.436301 0.667466
72 2 0.264013 0.720322 0.357285
73 2 0.119399 0.549333 0.284194
74 2 0.24232 0.724158 0.908593
75 2 0.127483 0.838839 0.325823
76 2 0.591149 0.466203 0.163229
77 2 0.820405 0.283921 0.336352
78 2 0.201894 0.361323 0.856667
79 2 0.960748 0.889998 0.274054
80 2 0.685186 0.138643 0.188921
81 2 0.657554 0.450617 0.159087
82 2 0.361608 0.495483 0.740812
83 2 0.403286 0.362725 0.458076
84 2 0.269585 0.241286 0.0998395
85 2 0.256907 0.0426267 0.0776798
86 2 0.201084 0.937872 0.190382
87 2 0.256355 0.772627 0.454858
88 2 0.065211 0.815229 0.0302803
89 2 0.174737 0.942005 0.457555
90 2 0.0103669 0.00136339 0.183321
91 2 0.337837 0.337427 0.352194
92 2 0.403784 0.262971 0.435806
93 2 0.51163 0.806405 0.207491
94 2 0.81748 0.0680586 0.0671713
95 2 0.315807 0.437937 0.291324
96 2 0.20336 0.585963 0.236675
97 2 0.142958 0.686326 0.17863
98 2 0.279014 0.534163 0.439376
99 2 0.224157 0.0615146 0.0664614
100 2 0.0324994 0.025456 0.67278
101 2 0.0663379 0.408559 0.022167
102 2 0.531684 0.141396 0.160921
103 2 0.887461 0.922852 0.253563
104 2 0.536911 0.482439 0.322734
105 2 0.170655 0.252476 0.224857
106 2 0.00678917 0.221243 0.360025
107 2 0.520342 0.458103 0.38612
108 2 0.977811 0.980977 0.905297
109 2 0.139226 0.855252 0.271035
110 2 0.206611 0.639526 0.908899
111 2 0.679508 0.271021 0.17863
112 2 0.701411 0.368201 0.0985103
113 2 0.795278 0.567066 0.0357466
114 2 0.624946 0.428494 0.223584
115 2 0.518435 0.617982 0.00180124
116 2 0.238182 0.344521 0.861178
117 2 0.294305 0.234322 0.21746
118 2 0.0943641 0.190723 0.230913
119 2 0.364228 0.391974 0.254801
120 2 0.420886 0.248788 0.0555738
121 2 0.921802 0.436033 0.133418
122 2 0.285845 0.379289 0.0654046
123 2 0.0710621 0.523834 0.81938
124 2 0.26892 0.334639 0.361353
125 2 0.0902868 0.572677 0.908454
126 2 0.993758 0.00350777 0.787069
127 2 0.664359 0.186242 0.116173
128 2 0.0733869 0.847187 0.0896342
129 2 0.194615 0.399447 0.866835
130 2 0.983307 0.0568188 0.567532
131 2 0.241261 0.89905 0.864311
132 2 0.393774 0.478203 0.0910855
133 2 0.390509 0.577466 0.519444
134 2 0.709468 0.36916 0.303423
135 2 0.533065 0.48104 0.576715
136 2 0.359589 0.717304 0.243669
137 2 0.408815 0.540744 0.0919015
138 2 0.181423 0.479013 0.307477
139 2 0.520247 0.506796 0.942315
140 2 0.0794875 0.205502 0.320645
141 2 0.465044 0.242045 0.462596
142 2 0.0598891 0.041863 0.342292
143 2 0.46915 0.135294 0.350836
144 2 0.33719 0.976422 0.287971
145 2 0.181603 0.379964 0.279982
146 2 0.495162 0.777404 0.411258
147 2 0.314872 0.245257 0.402935
148 2 0.413726 0.614842 0.0816991
149 2 0.562471 0.337462 0.340508
150 2 0.0389916 0.31204 0.82469
151 2 0.516305 0.199877 0.494761
152 2 0.405503 0.0788013 0.858116
153 2 0.303246 0.373556 0.288379
154 2 0.369129 0.516685 0.0443778
155 2 0.232399 0.578613 0.293406
156 2 0.325111 0.201009 0.367589
157 2 0.241083 0.540414 0.446973
158 2 0.170731 0.275061 0.405015
159 2 0.447906 0.167661 0.361657
160 2 0.620057 0.116646 0.250722
161 2 0.0343727 0.940843 0.535951
162 2 0.430609 0.388569 0.0221954
163 2 0.487009 0.892333 0.284374
164 2 0.0256995 0.81558 0.0295851
165 2 0.0276079 0.20338 0.923537
166 2 0.142156 0.371096 0.288798
167 2 0.20617 0.54953 0.303591
168 2 0.0511158 0.37532 0.520162
169 2 0.587982 0.113866 0.170657
170 2 0.432433 0.945851 0.0681734
171 2 0.312388 0.495841 0.151449
172 2 0.964524 0.884688 0.360027
173 2 0.104457 0.0426464 0.571018
174 2 0.266128 0.503926 0.600372
175 2 0.255401 0.800617 0.133279
176 2 0.154261 0.190896 0.0659946
177 2 0.12434 0.14192 0.180681
178 2 0.199951 0.390185 0.426503
179 2 0.125963 0.246796 0.940962
180 2 0.158165 0.13033 0.125361
181 2 0.271806 0.879234 0.430956
182 2 0.616943 0.369772 0.930123
183 2 0.116208 0.251753 0.34766
184 2 0.254716 0.18855 0.0678806
185 2 0.311487 0.250024 0.159039
186 2 0.370365 0.150047 0.232402
187 2 0.209566 0.371342 0.306611
188 2 0.946746 0.117623 0.500324
189 2 0.20924 0.154705 0.0357161
190 2 0.275637 0.469913 0.193976
191 2 0.289003 0.624121 0.902981
192 2 0.0587729 0.1099 0.360411
193 2 0.285284 0.311842 0.226305
194 2 0.334466 0.150428 0.467569
195 2 0.0824765 0.943842 0.397268
196 2 0.903334 0.438253 0.187347
197 2 0.300177 0.358055 0.943346
198 2 0.410999 0.258085 0.0922212
199 2 0.0688493 0.504213 0.122877
200 2 0.915647 0.919269 0.43458
201 2 0.145896 0.768033 0.430731
202 2 0.198895 0.203308 0.196735
203 2 0.54863 0.290606 0.466138
204 2 0.387701 0.0929912 0.496082
205 2 0.178074 0.351218 0.482725
206 2 0.118094 0.955138 0.539835
207 2 0.109061 0.21434 0.173122
208 2 0.217765 0.966102 0.168082
209 2 0.986005 0.712922 0.177334
210 2 0.260788 0.12687 0.349066
211 2 0.111421 0.475123 0.308008
212 2 0.290704 0.506197 0.670884
213 2 0.352006 0.282108 0.498783
214 2 0.423826 0.219548 0.566274
215 2 0.538155 0.700706 0.369394
216 2 0.489751 0.677225 0.417709
217 2 0.346933 0.512604 0.138458
218 2 0.247008 0.208213 0.502067
219 2 0.232288 0.100635 0.0640526
220 2 0.995034 0.0737101 0.252509
221 2 0.401417 0.307908 0.333817
222 2 0.380954 0.931598 0.117835
223 2 0.980305 0.476042 0.99457
224 2 0.497967 0.195741 0.322603
225 2 0.865092 0.223448 0.785203
226 2 0.954878 0.966396 0.046573
227 2 0.148083 0.490001 0.0229729
228 2 0.174792 0.0133245 0.378365
229 2 0.376343 0.401361 0.608967
230 2 0.249689 0.12917 0.261891
231 2 0.05423 0.115268 0.262975
232 2 0.0191413 0.588878 0.445152
233 2 0.106548 0.0254124 0.0741257
234 2 0.00782188 0.199449 0.869366
235 2 0.90299 0.641031 0.351769
236 2 0.295199 0.474409 0.249162
237 2 0.626791 0.00571409 0.173225
238 2 0.232962 0.49431 0.030682
239 2 0.304525 0.40483 0.176798
240 2 0.639835 0.347281 0.99394
241 2 0.75264 0.108367 0.376618
242 2 0.282966 0.882224 0.253201
243 2 0.978239 0.8011 0.443451
244 2 0.162665 0.160567 0.292053
245 2 0.32712 0.247247 0.798705
246 2 0.920207 0.919577 0.310393
247 2 0.0203846 0.263497 0.172401
248 2 0.235681 0.478926 0.453523
249 2 0.435984 0.373987 0.355403
250 2 0.427997 0.466157 0.159888
251 2 0.092653 0.115495 0.276978
252 2 0.268769 0.860303 0.134726
253 2 0.375766 0.993084 0.481933
254 2 0.587226 0.328341 0.311239
255 2 0.18892 0.861103 0.987593
256 2 0.152963 0.253101 0.813947
257 2 0.442915 0.455621 0.930175
258 2 0.0200293 0.586618 0.991075
259 2 0.540117 0.927732 0.280572
260 2 0.404006 0.512022 0.572638
261 2 0.427369 0.923152 0.402877
262 2 0.350636 0.736112 0.384855
263 2 0.505597 0.838059 0.619872
264 2 0.567249 0.264283 0.122176
265 2 0.0219812 0.194324 0.177066
266 2 0.459538 0.535036 0.279916
267 2 0.381114 0.0343727 0.819482
268 2 0.0815984 0.341935 0.616269
269 2 0.736862 0.24844 0.5364
270 2 0.426415 0.138279 0.595525
271 2 0.446475 0.328674 0.0579551
272 2 0.393506 0.82775 0.276919
273 2 0.193709 0.177918 0.817091
274 2 0.788144 0.625702 0.225947
275 2 0.518399 0.527378 0.648404
276 2 0.45387 0.83941 0.177065
277 2 0.313667 0.679096 0.927796
278 2 0.967765 0.434665 0.176471
279 2 0.742236 0.338671 0.413027
280 2 0.4397 0.153654 0.143944
281 2 0.115657 0.185344 0.0187127
282 2 0.962245 0.0879846 0.871141
283 2 0.270421 0.189881 0.346938
284 2 0.509111 0.608317 0.423692
285 2 0.112871 0.17041 0.730201
286 2 0.23966 0.478623 0.207619
287 2 0.97877 0.212559 0.123757
288 2 0.178583 0.274105 0.967354
289 2 0.00834817 0.714994 0.516449
290 2 0.192118 0.795912 0.128131
291 2 0.393167 0.0928085 0.245925
292 2 0.449124 0.641394 0.214855
293 2 0.200464 0.156674 0.583849
294 2 0.982433 0.461761 0.228934
295 2 0.139192 0.31232 0.0444526
296 2 0.0966902 0.702952 0.222008
297 2 0.508181 0.993328 0.337782
298 2 0.240606 0.972648 0.452205
299 2 0.222121 0.0781173 0.344325
300 2 0.426935 0.0307594 0.659423
301 2 0.45125 0.285163 0.394651
302 2 0.128261 0.327202 0.165045
303 2 0.228438 0.217551 0.98874
304 2 0.538115 0.300656 0.175105
305 2 0.0768581 0.41602 0.238276
306 2 0.22173 0.122046 0.212013
307 2 0.267967 0.205716 0.278989
308 2 0.519806 0.335679 0.501373
309 2 0.946039 0.863566 0.331582
310 2 0.114452 0.288845 0.211471
311 2 0.353198 0.192507 0.136348
312 2 0.630489 0.368877 0.337854
313 2 0.477718 0.187201 0.290955
314 2 0.273922 0.261786 0.966541
315 2 0.285521 0.574687 0.516282
316 2 0.820711 0.231882 0.132506
317 2 0.194819 0.99702 0.00676351
318 2 0.0753658 0.0370972 0.127881
319 2 0.934026 0.230368 0.350332
320 2 0.111931 0.0705979 0.211333
321 2 0.533293 0.269005 0.408713
322 2 0.0634718 0.186684 0.990137
323 2 0.348023 0.44886 0.521181
324 2 0.448226 0.0936941 0.105833
325 2 0.345718 0.549731 0.0464722
326 2 0.60985 0.606333 0.242314
327 2 0.140459 0.579882 0.0290456
328 2 0.325373 0.185945 0.306824
329 2 0.0900702 0.841199 0.746782
330 2 0.702357 0.856252 0.492584
331 2 0.199956 0.477781 0.370526
332 2 0.648247 0.521977 0.275376
333 2 0.221785 0.174943 0.319651
334 2 0.166505 0.157967 0.229295
335 2 0.138933 0.586145 0.191357
336 2 0.243673 0.181077 0.554894
337 2 0.167129 0.861281 0.807117
338 2 0.209474 0.279067 0.991393
339 2 0.300872 0.422655 0.013726
340 2 0.0827489 0.0413552 0.47564
341 2 0.197911 0.323816 0.140283
342 2 0.998834 0.969558 0.202936
343 2 0.907414 0.604292 0.338413
344 2 0.360629 0.870993 0.950593
345 2 0.31363 0.65611 0.807425
346 2 0.223295 0.360496 0.0947993
347 2 0.128536 0.956917 0.118376
348 2 0.37088 0.500792 0.199887
349 2 0.149529 0.488199 0.157483
350 2 0.232986 0.244817 0.371495
351 2 0.118406 0.313337 0.810037
352 2 0.434652 0.341782 0.380398
353 2 0.442252 0.143909 0.260515
354 2 0.0976713 0.696065 0.932688
355 2 0.192148 0.824413 0.343113
356 2 0.129369 0.174348 0.0908633
357 2 0.256943 0.0229891 0.152962
358 2 0.194945 0.577313 0.0919637
359 2 0.68661 0.285055 0.596405
360 2 0.939869 0.200657 0.215972
361 2 0.166377 0.579328 0.574433
362 2 0.461102 0.400993 0.960021
363 2 0.0917849 0.734965 0.708494
364 2 0.281978 0.853296 0.321423
365 2 0.270398 0.0912678 0.158952
366 2 0.184368 0.316855 0.241569
367 2 0.290367 0.294893 0.941705
368 2 0.750689 0.0151308 0.44573
369 2 0.472595 0.346715 0.990501
370 2 0.454992 0.457752 0.623361
371 2 0.236576 0.637803 0.265777
372 2 0.0690021 0.251062 0.962696
373 2 0.30202 0.369244 0.567366
374 2 0.571401 0.902625 0.148093
375 2 0.372272 0.765426 0.95295
376 2 0.47519 0.196251 0.355466
377 2 0.170997 0.129618 0.314215
378 2 0.672717 0.056404 0.0921091
379 2 0.242989 0.517791 0.851038
380 2 0.0896147 0.395895 0.335964
381 2 0.338025 0.740291 0.119359
382 2 0.0919814 0.71234 0.377849
383 2 0.290868 0.311362 0.318953
384 2 0.544535 0.58495 0.547746
385 2 0.162091 0.0847166 0.857008
386 2 0.289977 0.244282 0.473219
387 2 0.319883 0.457613 0.141068
388 2 0.423424 0.124036 0.438589
389 2 0.137819 0.835959 0.159428
390 2 0.10762 0.817782 0.84433
391 2 0.721675 0.161018 0.524911
392 2 0.243096 0.171764 0.159874
393 2 0.186132 0.838397 0.593157
394 2 0.980284 0.428484 0.834451
395 2 0.901096 0.566876 0.288321
396 2 0.966597 0.66595 0.357727
397 2 0.758569 0.716987 0.962998
398 2 0.352472 0.444475 0.197183
399 2 0.728925 0.975149 0.332801
400 2 0.621217 0.402347 0.955779
401 2 0.975031 0.912361 0.539985
402 2 0.379261 0.879525 0.405315
403 2 0.25814 0.267423 0.12665
404 2 0.585075 0.556925 0.826564
405 2 0.55587 0.401263 0.343576
406 2 0.0728694 0.688651 0.401983
407 2 0.0647665 0.184097 0.351991
408 2 0.289148 0.103246 0.976688
409 2 0.64253 0.535189 0.558698
410 2 0.915464 0.94241 0.998869
411 2 0.409435 0.303817 0.429772
412 2 0.144247 0.189521 0.349823
413 2 0.801645 0.407749 0.329035
414 2 0.251768 0.278588 0.374619
415 2 0.303282 0.810263 0.278347
416 2 0.17789 0.49152 0.20877
417 2 0.240722 0.399265 0.145016
418 2 0.197121 0.553982 0.377008
419 2 0.0833269 0.245244 0.328906
420 2 0.461878 0.048268 0.244559
421 2 0.986304 0.00323786 0.152599
422 2 0.196479 0.593049 0.369421
423 2 0.163507 0.626052 0.326456
424 2 0.96051 0.685715 0.939189
425 2 0.0754904 0.956769 0.212961
426 2 0.155635 0.976556 0.0965052
427 2 0.263336 0.403033 0.256687
428 2 0.160904 0.19656 0.141047
429 2 0.364614 0.909884 0.424585
430 2 0.34071 0.181549 0.171844
431 2 0.0500906 0.202089 0.808867
432 2 0.0259077 0.230238 0.194818
433 2 0.548939 0.498885 0.918679
434 2 0.112756 0.367088 0.0447482
435 2 0.128597 0.31013 0.270879
436 2 0.316116 0.445034 0.0690911
437 2 0.0733931 0.975397 0.27187
438 2 0.203057 0.86712 0.458763
439 2 0.387233 0.664223 0.29578
440 2 0.371757 0.492678 0.161067
441 2 0.0450355 0.216149 0.262313
442 2 0.291994 0.19521 0.214287
443 2 0.653651 0.248836 0.0259757
444 2 0.37718 0.124987 0.262093
445 2 0.117337 0.179561 0.938914
446 2 0.454462 0.443913 0.212816
447 2 0.287552 0.12605 0.143482
448 2 0.569555 0.461834 0.953111
449 2 0.00376483 0.920455 0.236569
450 2 0.302743 0.038036 0.223583
451 2 0.394142 0.291754 0.298643
452 2 0.440187 0.281652 0.558836
453 2 0.940478 0.803757 0.2592
454 2 0.173088 0.294548 0.0525462
455 2 0.418837 0.267807 0.378371
456 2 0.312088 0.95033 0.303244
457 2 0.401331 0.309001 0.757645
458 2 0.521981 0.77962 0.319766
459 2 0.268905 0.363961 0.386906
460 2 0.387795 0.178845 0.290526
461 2 0.284846 0.380563 0.104546
462 2 0.0356511 0.0852936 0.24202
463 2 0.208068 0.488473 0.333916
464 2 0.515714 0.429383 0.617505
465 2 0.167726 0.403072 0.196153
466 2 0.146642 0.470976 0.95482
467 2 0.132001 0.222456 0.264271
468 2 0.346802 0.129058 0.697188
469 2 0.570284 0.51464 0.128213
470 2 0.34091 0.478776 0.211671
471 2 0.272777 0.0801454 0.196119
472 2 0.529992 0.26268 0.269506
473 2 0.0250472 0.949659 0.694971
474 2 0.20496 0.576222 0.921733
475 2 0.199264 0.764998 0.621814
476 2 0.108455 0.918107 0.860211
477 2 0.209159 0.00218867 0.810028
478 2 0.141105 0.54433 0.881332
479 2 0.549994 0.573631 0.134931
480 2 0.253126 0.740659 0.167093
481 2 0.455259 0.122936 0.316388
482 2 0.0540203 0.243794 0.0616478
483 2 0.189926 0.10179 0.293799
484 2 0.0857315 0.307334 0.930986
485 2 0.0409927 0.257127 0.137837
486 2 0.00322867 0.0818418 0.818498
487 2 0.197155 0.137299 0.125372
488 2 0.341657 0.338624 0.423452
489 2 0.627732 0.483751 0.506201
490 2 0.814044 0.279833 0.261548
491 2 0.193549 0.527282 0.135068
492 2 0.527283 0.518204 0.841061
493 2 0.54847 0.306616 0.502114
494 2 0.937949 0.37191 0.0257912
495 2 0.955371 0.024663 0.285452
496 2 0.492928 0.477511 0.276778
497 2 0.276782 0.148049 0.489631
498 2 0.234439 0.420384 0.279217
499 2 0.313373 0.0294778 0.380283
500 2 0.125428 0.699461 0.480346
501 2 0.185752 0.996921 0.2082
502 2 0.207107 0.154124 0.158275
503 2 0.137037 0.423192 0.144223
504 2 0.15267 0.281366 0.995942
505 2 0.247693 0.456157 0.28953
506 2 0.182621 0.290571 0.463846
507 2 0.482005 0.439855 0.271626
508 2 0.958776 0.773996 0.0825438
509 2 0.263872 0.413967 0.220375
510 2 0.304209 0.317305 0.353836
511 2 0.0272911 0.525137 0.282543
512 2 0.116511 0.123869 0.24659
513 2 0.424891 0.466005 0.463898
514 2 0.241462 0.67014 0.0370174
515 2 0.0155313 0.465276 0.38362
516 2 0.219588 0.369792 0.229457
517 2 0.405897 0.981282 0.22038
518 2 0.462107 0.183221 0.210446
519 2 0.140576 0.455092 0.466678
520 2 0.449035 0.558218 0.592126
521 2 0.0375289 0.965974 0.0307623
522 2 0.376646 0.171817 0.351064
523 2 0.9953 0.407417 0.405717
524 2 0.393254 0.116718 0.367606
525 2 0.293963 0.566807 0.307801
526 2 0.336476 0.839829 0.524077
527 2 0.925796 0.211803 0.249474
528 2 0.351795 0.978719 0.589732
529 2 0.283155 0.138816 0.285149
530 2 0.967656 0.872762 0.771406
531 2 0.145285 0.831411 0.427191
532 2 0.330996 0.53719 0.710764
533 2 0.701679 0.274789 0.338095
534 2 0.347782 0.942147 0.893197
535 2 0.744401 0.247872 0.16662
536 2 0.083808 0.321292 0.423114
537 2 0.16784 0.0501613 0.504769
538 2 0.297677 0.153252 0.397674
539 2 0.905467 0.121312 0.249214
540 2 0.25322 0.0909745 0.253316
541 2 0.219541 0.510821 0.160648
542 2 0.360617 0.240538 0.199484
543 2 0.58017 0.491366 0.272742
544 2 0.442221 0.380024 0.150341
545 2 0.562919 0.291199 0.224739
546 2 0.185057 0.362408 0.142564
547 2 0.669606 0.0430466 0.130078
548 2 0.266796 0.221705 0.370228
549 2 0.105798 0.139582 0.307562
550 2 0.605122 0.998101 0.896064
551 2 0.304007 0.382633 0.390411
552 2 0.333468 0.295099 0.0322971
553 2 0.465029 0.677041 0.222857
554 2 0.982478 0.152655 0.761652
555 2 0.167623 0.884221 0.353956
556 2 0.365695 0.117684 0.0870097
557 2 0.50047 0.998897 0.375883
558 2 0.0956374 0.902175 0.505409
559 2 0.647593 0.148 0.419814
560 2 0.573268 0.355185 0.5622
561 2 0.557998 0.589076 0.347633
562 2 0.00295465 0.0892622 0.380832
563 2 0.174503 0.102508 0.176789
564 2 0.956097 0.421734 0.535096
565 2 0.431997 0.662765 0.0136148
566 2 0.0850246 0.430625 0.352067
567 2 0.0872499 0.561521 0.112004
568 2 0.360015 0.694896 0.988646
569 2 0.261126 0.0226904 0.413962
570 2 0.162199 0.58117 0.634561
571 2 0.0580602 0.514435 0.574812
572 2 0.832814 0.120101 0.0396483
573 2 0.195127 0.451042 0.12558
574 2 0.73298 0.0757658 0.120673
575 2 0.605283 0.983819 0.446423
576 2 0.543035 0.0768883 0.156719
577 2 0.52713 0.487935 0.438487
578 2 0.282307 0.267775 0.622596
579 2 0.677758 0.547271 0.14616
580 2 0.0331994 0.00277714 0.0169881
581 2 0.586847 0.307469 0.248964
582 2 0.14094 0.394498 0.0471681
583 2 0.96491 0.725134 0.208536
584 2 0.454841 0.333967 0.306325
585 2 0.334033 0.482401 0.250158
586 2 0.328015 0.443961 0.488074
587 2 0.597983 0.291303 0.637792
588 2 0.350079 0.354062 0.256268
589 2 0.165167 0.485451 0.558678
590 2 0.387325 0.521718 0.26703
591 2 0.0461196 0.53096 0.91196
592 2 0.0157222 0.256475 0.345219
593 2 0.0439914 0.0288309 0.795502
594 2 0.322195 0.316484 0.186934
595 2 0.281233 0.138652 0.20585
596 2 0.788536 0.247004 0.951733
597 2 0.249374 0.38732 0.00239942
598 2 0.447416 0.526815 0.340482
599 2 0.993517 0.131708 0.203112
600 2 0.571614 0.327066 0.804796
601 2 0.398782 0.421655 0.0794679
602 2 0.237827 0.859286 0.0393404
603 2 0.110078 0.915404 0.820219
604 2 0.975753 0.589778 0.401237
605 2 0.344885 0.246941 0.139417
606 2 0.981887 0.342411 0.955796
607 2 0.452413 0.530134 0.724273
608 2 0.423993 0.410629 0.25694
609 2 0.938085 0.0520503 0.23682
610 2 0.922452 0.179016 0.271441
611 2 0.230788 0.136933 0.327538
612 2 0.545972 0.530451 0.621377
613 2 0.508484 0.279347 0.798696
614 2 0.423219 0.183006 0.455635
615 2 0.403803 0.031033 0.108038
616 2 0.765782 0.336491 0.320989
617 2 0.144616 0.296122 0.912686
618 2 0.145779 0.0510831 0.771178
619 2 0.228549 0.53384 0.235671
620 2 0.922514 0.154872 0.172548
621 2 0.891599 0.694574 0.354272
622 2 0.208761 0.514614 0.834579
623 2 0.156178 0.0462198 0.385418
624 2 0.197685 0.0521954 0.972711
625 2 0.285265 0.353739 0.222041
626 2 0.139578 0.0210603 0.138242
627 2 0.175862 0.0872084 0.428022
628 2 0.501063 0.36875 0.347347
629 2 0.024729 0.17359 0.82027
630 2 0.129676 0.470582 0.105696
631 2 0.172619 0.309845 0.204072
632 2 0.934437 0.337151 0.282131
633 2 0.0428886 0.176625 0.26185
634 2 0.440888 0.466304 0.426531
635 2 0.124887 0.58193 0.355176
636 2 0.0105035 0.0579259 0.9322
637 2 0.357734 0.431252 0.979812
638 2 0.0129742 0.413453 0.343018
639 2 0.538889 0.188029 0.428464
640 2 0.037407 0.354715 0.173457
641 2 0.0489586 0.400816 0.215085
642 2 0.317283 0.872459 0.267307
643 2 0.434197 0.271325 0.149757
644 2 0.348946 0.0957953 0.503661
645 2 0.417476 0.0212235 0.971242
646 2 0.262616 0.972297 0.963877
647 2 0.989747 0.768716 0.345933
648 2 0.10393 0.570986 0.177084
649 2 0.253639 0.185476 0.220696
650 2 0.293929 0.136578 0.772197
651 2 0.0664281 0.576269 0.362384
652 2 0.244638 0.062816 0.710149
653 2 0.282881 0.32194 0.716004
654 2 0.352977 0.84072 0.804401
655 2 0.00237772 0.975145 0.130104
656 2 0.352841 0.186004 0.237433
657 2 0.952374 0.0729732 0.420735
658 2 0.88234 0.0490299 0.197175
659 2 0.914624 0.181368 0.919883
660 2 0.412677 0.511949 0.964135
661 2 0.017362 0.779701 0.400065
662 2 0.315037 0.786553 0.84462
663 2 0.517624 0.637862 0.329423
664 2 0.113482 0.364153 0.925734
665 2 0.613141 0.0337643 0.251714
666 2 0.885927 0.944861 0.679943
667 2 0.103816 0.0832847 0.820925
668 2 0.424656 0.767386 0.910119
669 2 0.233244 0.329452 0.121703
670 2 0.674035 0.450606 0.705222
671 2 0.106331 0.155852 0.150021
672 2 0.481712 0.820099 0.296649
673 2 0.393125 0.949295 0.0637207
674 2 0.336721 0.140009 0.103467
675 2 0.121623 0.101994 0.386898
676 2 0.402333 0.203194 0.506689
677 2 0.352975 0.467333 0.681047
678 2 0.305527 0.857609 0.744448
679 2 0.311243 0.651569 0.117592
680 2 0.409859 0.373828 0.8403
681 2 0.49868 0.935422 0.0889435
682 2 0.366538 0.144413 0.379595
683 2 0.452655 0.562456 0.415702
684 2 0.249613 0.145981 0.226642
685 2 0.159938 0.901124 0.2923
686 2 0.0285893 0.287716 0.546546
687 2 0.249495 0.401427 0.944813
688 2 0.542174 0.0380759 0.109577
689 2 0.280113 0.95319 0.167062
690 2 0.310712 0.284267 0.67521
691 2 0.149104 0.34328 0.858671
692 2 0.627744 0.967258 0.372322
693 2 0.121376 0.0845471 0.146422
694 2 0.171332 0.592252 0.726957
695 2 0.408644 0.61074 0.197494
696 2 0.192779 0.547037 0.24069
697 2 0.404661 0.100792 0.530808
698 2 0.59537 0.734871 0.27992
699 2 0.338965 0.0933194 0.218282
700 2 0.434597 0.91127 0.30277
701 2 0.128182 0.725169 0.986074
702 2 0.0586521 0.39658 0.406385
703 2 0.361814 0.914502 0.223283
704 2 0.947857 0.00561653 0.0558824
705 2 0.101679 0.249243 0.261977
706 2 0.00844678 0.0358737 0.201061
707 2 0.210627 0.422021 0.479488
708 2 0.352566 0.429014 0.430199
709 2 0.0583377 0.160712 0.666211
710 2 0.241287 0.662323 0.350779
711 2 0.965228 0.134272 0.0474693
712 2 0.586401 0.16315 0.282909
713 2 0.143037 0.123382 0.979761
714 2 0.874537 0.197528 0.949695
715 2 0.180786 0.50552 0.10599
716 2 0.344221 0.219528 0.298783
717 2 0.981058 0.0549393 0.290322
718 2 0.838405 0.0846845 0.936472
719 2 0.5463 0.594501 0.383265
720 2 0.403334 0.129904 0.0811642
721 2 0.542373 0.973201 0.331843
722 2 0.392172 0.898655 0.137524
723 2 0.925452 0.153617 0.33074
724 2 0.187781 0.236988 0.0365244
725 2 0.458949 0.455148 0.989972
726 2 0.21903 0.981424 0.674112
727 2 0.241775 0.625294 0.158314
728 2 0.860501 0.251149 0.986687
729 2 0.298691 0.491182 0.397532
730 2 0.133365 0.0941673 0.350242
731 2 0.424985 0.404163 0.647566
732 2 0.134977 0.966164 0.0414391
733 2 0.323365 0.303748 0.222749
734 2 0.308916 0.17864 0.340293
735 2 0.0958358 0.584209 0.141637
736 2 0.320862 0.423713 0.207273
737 2 0.680688 0.233369 0.0883245
738 2 0.276767 0.276491 0.327887
739 2 0.921456 0.0194765 0.0303721
740 2 0.209994 0.120082 0.17668
741 2 0.0475544 0.666708 0.00856154
742 2 0.223564 0.30959 0.238882
743 2 0.902615 0.222762 0.586033
744 2 0.97013 0.832809 0.319787
745 2 0.0841572 0.127044 0.00564752
746 2 0.0392057 0.105443 0.328605
747 2 0.361037 0.532657 0.220882
748 2 0.553719 0.180674 0.352865
749 2 0.10168 0.125826 0.640703
750 2 0.583684 0.158356 0.585111
751 2 0.505269 0.0290806 0.317988
752 2 0.961538 0.0208445 0.247928
753 2 0.508897 0.55391 0.764242
754 2 0.104879 0.00970254 0.184484
755 2 0.157349 0.264048 0.164253
756 2 0.993808 0.391253 0.480333
757 2 0.861776 0.0420823 0.324598
758 2 0.274264 0.566726 0.0535838
759 2 0.321772 0.584949 0.220976
760 2 0.798162 0.444081 0.402605
761 2 0.216994 0.0447563 0.0329141
762 2 0.119967 0.448994 0.340968
763 2 0.244084 0.498767 0.239666
764 2 0.470987 0.368304 0.546105
765 2 0.578876 0.571003 0.561818
766 2 0.0934774 0.291012 0.0887373
767 2 0.245256 0.83999 0.316067
768 2 0.435494 0.816628 0.040905
769 2 0.258205 0.353462 0.42248
770 2 0.229355 0.163795 0.386748
771 2 0.17908 0.477967 0.245137
772 2 0.348649 0.0128288 0.892559
773 2 0.208723 0.66819 0.0165837
774 2 0.0119245 0.0336612 0.640593
775 2 0.151126 0.218809 0.230919
776 2 0.386037 0.111509 0.85012
777 2 0.273395 0.133937 0.105676
778 2 0.0800863 0.554502 0.422643
779 2 0.034691 0.149769 0.461429
780 2 0.240499 0.0872923 0.217479
781 2 0.434633 0.436159 0.0675236
782 2 0.61358 0.151547 0.707545
783 2 0.518177 0.394689 0.571434
784 2 0.146816 0.496972 0.316325
785 2 0.429939 0.307868 0.238605
786 2 0.157466 0.340997 0.0938519
787 2 0.028602 0.0230069 0.605709
788 2 0.276489 0.140176 0.429989
789 2 0.329006 0.830497 0.159083
790 2 0.389224 0.367685 0.523108
791 2 0.302873 0.966278 0.336836
792 2 0.30964 0.972948 0.0841107
793 2 0.507692 0.37772 0.0974121
794 2 0.297541 0.177166 0.278108
795 2 0.220949 0.762401 0.165242
796 2 0.768845 0.981772 0.337281
797 2 0.301609 0.0661051 0.389088
798 2 0.564677 0.453787 0.221378
799 2 0.0761799 0.181757 0.418823
800 2 0.247829 0.189429 0.125469
801 2 0.252489 0.599394 0.455262
802 2 0.162107 0.952611 0.0679946
803 2 0.256111 0.850684 0.251973
804 2 0.155937 0.206743 0.902349
805 2 0.301145 0.186842 0.176858
806 2 0.390605 0.00582221 0.0451166
807 2 0.17341 0.258389 0.752445
808 2 0.112967 0.295639 0.303067
809 2 0.235459 0.223274 0.877172
810 2 0.262772 0.40047 0.336343
811 2 0.313813 0.178234 0.241733
812 2 0.294368 0.787968 0.501361
813 2 0.162508 0.913226 0.328502
814 2 0.146215 0.959434 0.152674
815 2 0.0430304 0.0988986 0.0988039
816 2 0.190841 0.156923 0.737967
817 2 0.330764 0.291694 0.937826
818 2 0.282289 0.490197 0.316139
819 2 0.759467 0.271552 0.296054
820 2 0.0452986 0.591715 0.279934
821 2 0.256879 0.881495 0.396104
822 2 0.94318 0.605966 0.38395
823 2 0.236178 0.490745 0.275863
824 2 0.139647 0.0740056 0.6682
825 2 0.322476 0.372279 0.358052
826 2 0.164791 0.0718198 0.356035
827 2 0.481382 0.0475143 0.137496
828 2 0.246817 0.332437 0.264436
829 2 0.111708 0.973805 0.207668
830 2 0.140924 0.155117 0.258329
831 2 0.146788 0.577082 0.291596
832 2 0.118907 0.368945 0.386974
833 2 0.335536 0.0441051 0.283025
834 2 0.933898 0.516523 0.036056
835 2 0.442616 0.756635 0.0483909
836 2 0.31447 0.386971 0.509042
837 2 0.567992 0.379199 0.849504
838 2 0.565778 0.0481993 0.140151
839 2 0.0116841 0.045112 0.11096
840 2 0.632107 0.140655 0.385621
841 2 0.53068 0.00164718 0.0988281
842 2 0.224209 0.232867 0.482154
843 2 0.299782 0.299389 0.641535
844 2 0.041351 0.712624 0.953245
845 2 0.86242 0.181964 0.00424402
846 2 0.0537952 0.607571 0.983214
847 2 0.392119 0.498591 0.363803
848 2 0.134352 0.736397 0.257874
849 2 0.136323 0.752394 0.365801
850 2 0.0713332 0.195938 0.119878
851 2 0.147407 0.511882 0.354959
852 2 0.277447 0.060154 0.105356
853 2 0.231873 0.310213 0.201357
854 2 0.664394 0.320856 0.301454
855 2 0.180871 0.856223 0.950863
856 2 0.38111 0.503445 0.326485
857 2 0.0902286 0.601689 0.884852
858 2 0.286995 0.392297 0.955963
859 2 0.354331 0.333816 0.317387
860 2 0.369194 0.286779 0.0500534
861 2 0.465477 0.343402 0.924685
862 2 0.296238 0.481848 0.5376
863 2 0.961972 0.336692 0.483471
864 2 0.929363 0.582063 0.267349
865 2 0.0921356 0.380417 0.815783
866 2 0.401788 0.834865 0.989589
867 2 0.402418 0.0584077 0.445414
868 2 0.193243 0.391307 0.981133
869 2 0.256506 0.636175 0.0505851
870 2 0.579214 0.308021 0.396015
871 2 0.328381 0.570168 0.365988
872 2 0.693031 0.350128 0.580922
873 2 0.0382177 0.627465 0.334157
874 2 0.664432 0.440989 0.570944
875 2 0.122758 0.349172 0.261746
876 2 0.959145 0.946079 0.952917
877 2 0.590128 0.385859 0.444769
878 2 0.883242 0.919825 0.18557
879 2 0.398276 0.0565357 0.484146
880 2 0.092138 0.753899 0.326134
881 2 0.202071 0.321184 0.0517289
882 2 0.0769007 0.128045 0.144258
883 2 0.267031 0.235558 0.899168
884 2 0.425307 0.12523 0.114615
885 2 0.892687 0.381965 0.0897458
886 2 0.381418 0.660571 0.360365
887 2 0.141533 0.0522829 0.160726
888 2 0.433972 0.0974926 0.411148
889 2 0.0665873 0.488077 0.345867
890 2 0.614787 0.543347 0.269645
891 2 0.858222 0.520015 0.220441
892 2 0.183332 0.212048 0.112368
893 2 0.080908 0.448708 0.299836
894 2 0.234469 0.763831 0.39243
895 2 0.296927 0.08037 0.323762
896 2 0.155523 0.951197 0.396287
897 2 0.565915 0.473841 0.863578
898 2 0.3744 0.367832 0.00259277
899 2 0.0261526 0.864071 0.258796
900 2 0.125309 0.199496 0.206434
901 2 0.0634218 0.865556 0.764634
902 2 0.532183 0.940764 0.108572