ITEM: TIMESTEP
120476
ITEM: NUMBER OF ATOMS
11500
ITEM: BOX BOUNDS pp pp pp
-8.5855708175473389e-01 5.8779740687930378e+01
-8.5855708175473389e-01 5.8779740687930378e+01
-8.5855708175473389e-01 6.1213501655461464e+01
ITEM: ATOMS id type xs ys zs
1 2 0.232489 0.545604 0.488327
2 2 0.278279 0.892475 0.876398
3 2 0.0882026 0.347964 0.210468
4 2 0.197337 0.493363 0.275733
5 2 0.200392 0.404281 0.90474
6 2 0.0363425 0.137212 0.814756
7 2 0.0223373 0.114139 0.181375
8 2 0.484952 0.984957 0.963241
9 2 0.235553 0.461103 0.326341
10 2 0.318063 0.391814 0.871816
11 2 0.386487 0.0645693 0.887332
12 2 0.448374 0.310014 0.428165
13 2 0.0295438 0.0503397 0.51327
14 2 0.328046 0.106528 0.562994
15 2 0.34873 0.333933 0.887834
16 2 0.360121 0.166917 0.31522
17 2 0.19246 0.211181 0.00552386
18 2 0.231483 0.499216 0.388536
19 2 0.103825 0.674757 0.326319
20 2 0.0466134 0.887642 0.977174
21 2 0.199162 0.173908 0.287988
22 2 0.32995 0.0288424 0.344885
23 2 0.973682 0.292351 0.308017
24 2 0.668779 0.572287 0.200234
25 2 0.960217 0.432614 0.353756
26 2 0.589658 0.672818 0.968278
27 2 0.247462 0.923349 0.535991
28 2 0.289323 0.913533 0.037527
29 2 0.314128 0.90137 0.161124
30 2 0.453767 0.929524 0.242774
31 2 0.854008 0.453998 0.293181
32 2 0.0718503 0.585386 0.40004
33 2 0.0456041 0.757912 0.746013
34 2 0.0486708 0.653216 0.243042
35 2 0.371128 0.257772 0.644145
36 2 0.915157 0.0633496 0.265869
37 2 0.511579 0.417439 0.258116
38 2 0.579557 0.461687 0.0853423
39 2 0.698969 0.534893 0.2374
40 2 0.142742 0.0127576 0.0841741
41 2 0.847015 0.308902 0.092563
42 2 0.336605 0.93363 0.166497
43 2 0.117931 0.24797 0.0477377
44 2 0.211055 0.386289 0.122555
45 2 0.140366 0.799337 0.761938
46 2 0.444583 0.269485 0.851379
47 2 0.0660295 0.152644 0.865181
48 2 0.732822 0.0854479 0.0828468
49 2 0.978657 0.141191 0.4959
50 2 0.0473423 0.820569 0.181288
51 2 0.768016 0.225453 0.254134
52 2 0.994623 0.131871 0.0198882
53 2 0.177327 0.196267 0.369312
54 2 0.214011 0.149209 0.447114
55 2 0.983284 0.132563 0.138671
56 2 0.366911 0.476347 0.935608
57 2 0.871406 0.320266 0.266838
58 2 0.293797 0.208023 0.907248
59 2 0.249239 0.738483 0.305746
60 2 0.953543 0.679418 0.867035
61 2 0.170114 0.914411 0.95828
62 2 0.406438 0.364701 0.208499
63 2 0.265303 0.476788 0.38233
64 2 0.0763555 0.225964 0.240351
65 2 0.469214 0.0102314 0.134797
66 2 0.772438 0.588743 0.275885
67 2 0.0610141 0.962169 0.179289
68 2 0.370834 0.998739 0.444922
69 2 0.18355 0.272826 0.0213733
70 2 0.195594 0.81351 0.0925269
71 2 0.410783 0.436319 0.667442
72 2 0.263993 0.720313 0.357316
73 2 0.119666 0.549288 0.284165
74 2 0.242328 0.72429 0.90866
75 2 0.12739 0.838922 0.325908
76 2 0.591282 0.466265 0.163262
77 2 0.820316 0.283813 0.336384
78 2 0.20192 0.361337 0.856627
79 2 0.960772 0.890022 0.273828
80 2 0.685267 0.138682 0.189021
81 2 0.657574 0.450658 0.159414
82 2 0.361606 0.495569 0.740478
83 2 0.403177 0.362745 0.458075
84 2 0.269599 0.241326 0.0998817
85 2 0.256786 0.0426967 0.0775958
86 2 0.201032 0.938032 0.190315
87 2 0.25631 0.772676 0.454878
88 2 0.0651667 0.815125 0.030049
89 2 0.174704 0.942073 0.457462
90 2 0.0103947 0.00140354 0.183209
91 2 0.337815 0.337231 0.35252
92 2 0.403738 0.263069 0.435872
93 2 0.511626 0.806417 0.207376
94 2 0.817458 0.06812 0.0671792
95 2 0.315688 0.437952 0.29135
96 2 0.203323 0.586018 0.236826
97 2 0.14287 0.686393 0.178526
98 2 0.279029 0.534226 0.439381
99 2 0.224094 0.0616244 0.0664605
100 2 0.0324652 0.0254682 0.672546
101 2 0.0663889 0.408483 0.0221414
102 2 0.531616 0.141537 0.160793
103 2 0.887451 0.922978 0.253295
104 2 0.536579 0.482485 0.322703
105 2 0.170606 0.252528 0.225009
106 2 0.00691428 0.221254 0.360187
107 2 0.520221 0.458074 0.38622
108 2 0.972692 0.978724 0.905691
109 2 0.139348 0.855319 0.271149
110 2 0.206693 0.639551 0.90894
111 2 0.67951 0.271087 0.178788
112 2 0.701324 0.368091 0.0988311
113 2 0.795283 0.566868 0.0357787
114 2 0.625059 0.428572 0.223973
115 2 0.51849 0.61791 0.00177622
116 2 0.23812 0.344508 0.861189
117 2 0.294236 0.234281 0.217635
118 2 0.0942922 0.190778 0.230945
119 2 0.364184 0.392012 0.254948
120 2 0.420874 0.248814 0.0556289
121 2 0.921681 0.4359 0.13333
122 2 0.285786 0.379316 0.0654033
123 2 0.0710771 0.523741 0.819324
124 2 0.268935 0.334476 0.361904
125 2 0.0904093 0.572537 0.908488
126 2 0.993926 0.0035043 0.786915
127 2 0.664326 0.186283 0.116206
128 2 0.0734242 0.847237 0.0893462
129 2 0.194711 0.399422 0.86674
130 2 0.983417 0.056792 0.56753
131 2 0.24118 0.899112 0.864275
132 2 0.393706 0.478312 0.0910337
133 2 0.39039 0.577419 0.519685
134 2 0.709595 0.3693 0.303718
135 2 0.533146 0.481185 0.576646
136 2 0.359657 0.717358 0.243575
137 2 0.408842 0.540826 0.0919174
138 2 0.181155 0.478916 0.308063
139 2 0.520147 0.506695 0.942254
140 2 0.0795347 0.20559 0.320718
141 2 0.46507 0.24207 0.462746
142 2 0.0599348 0.0418291 0.342377
143 2 0.469139 0.135412 0.350947
144 2 0.337134 0.976369 0.288096
145 2 0.181414 0.380144 0.280366
146 2 0.495209 0.777469 0.411125
147 2 0.314866 0.245271 0.402865
148 2 0.413756 0.614877 0.0816306
149 2 0.562517 0.33763 0.340584
150 2 0.0390985 0.312015 0.824538
151 2 0.516301 0.199924 0.494837
152 2 0.405501 0.0788961 0.858043
153 2 0.303353 0.373526 0.28862
154 2 0.368921 0.516709 0.0443566
155 2 0.232473 0.57861 0.293554
156 2 0.325022 0.200987 0.367605
157 2 0.241136 0.540496 0.447025
158 2 0.171161 0.275305 0.404852
159 2 0.447935 0.167707 0.361732
160 2 0.619956 0.116803 0.250874
161 2 0.0343331 0.940767 0.535973
162 2 0.430649 0.388434 0.0224821
163 2 0.486954 0.892271 0.28448
164 2 0.0257167 0.815478 0.0294086
165 2 0.0277265 0.203508 0.923516
166 2 0.142118 0.37129 0.289118
167 2 0.206249 0.549597 0.303785
168 2 0.0515539 0.374623 0.519176
169 2 0.587991 0.113944 0.17061
170 2 0.432322 0.945893 0.0679978
171 2 0.312373 0.495926 0.151559
172 2 0.964389 0.884789 0.359851
173 2 0.1045 0.0426713 0.57121
174 2 0.265736 0.503311 0.600436
175 2 0.255293 0.800801 0.132982
176 2 0.154252 0.191074 0.0659025
177 2 0.124345 0.141871 0.180812
178 2 0.200766 0.389924 0.42712
179 2 0.126009 0.246971 0.941133
180 2 0.158081 0.130396 0.125203
181 2 0.271891 0.87916 0.430855
182 2 0.617018 0.369792 0.930268
183 2 0.116175 0.251928 0.347929
184 2 0.254718 0.188678 0.0679068
185 2 0.311447 0.250057 0.159236
186 2 0.370222 0.150055 0.232438
187 2 0.209249 0.371687 0.307258
188 2 0.946904 0.117588 0.500338
189 2 0.209292 0.154732 0.0355842
190 2 0.27567 0.469961 0.19419
191 2 0.288959 0.624021 0.902773
192 2 0.0588204 0.109829 0.360478
193 2 0.285191 0.311929 0.226454
194 2 0.334409 0.150477 0.467427
195 2 0.0825555 0.943814 0.397043
196 2 0.903289 0.438274 0.187422
197 2 0.300221 0.358072 0.943285
198 2 0.410981 0.258267 0.092339
199 2 0.0689439 0.504168 0.122724
200 2 0.915673 0.919145 0.434516
201 2 0.146031 0.768002 0.43092
202 2 0.198856 0.203433 0.196715
203 2 0.548614 0.290475 0.466353
204 2 0.387743 0.0929557 0.496023
205 2 0.178196 0.351299 0.482325
206 2 0.118209 0.955084 0.53986
207 2 0.109072 0.214336 0.173129
208 2 0.217727 0.96626 0.167949
209 2 0.986162 0.71289 0.177237
210 2 0.260743 0.126841 0.349072
211 2 0.11125 0.47527 0.308389
212 2 0.2907 0.506103 0.670291
213 2 0.352144 0.282254 0.4989
214 2 0.423216 0.219592 0.566226
215 2 0.537976 0.700778 0.369335
216 2 0.489658 0.677285 0.417647
217 2 0.346855 0.51269 0.138484
218 2 0.247051 0.208094 0.502155
219 2 0.232208 0.100651 0.0639934
220 2 0.994993 0.0737115 0.252765
221 2 0.401557 0.307972 0.333856
222 2 0.380896 0.931766 0.117817
223 2 0.980592 0.475852 0.994724
224 2 0.497845 0.1955 0.322631
225 2 0.865098 0.223411 0.785258
226 2 0.954803 0.966534 0.0464439
227 2 0.14808 0.489906 0.0229708
228 2 0.17479 0.0133357 0.37835
229 2 0.376315 0.401293 0.608994
230 2 0.24966 0.129209 0.262299
231 2 0.0542166 0.115336 0.262958
232 2 0.0189066 0.588824 0.445259
233 2 0.106455 0.025476 0.073856
234 2 0.00776014 0.199569 0.869378
235 2 0.902996 0.641095 0.351607
236 2 0.295031 0.474492 0.249369
237 2 0.626708 0.00581314 0.173334
238 2 0.232959 0.494311 0.0307136
239 2 0.304517 0.404931 0.176957
240 2 0.63976 0.3472 0.994015
241 2 0.75259 0.108354 0.376931
242 2 0.282943 0.882118 0.253105
243 2 0.978018 0.801099 0.443264
244 2 0.162607 0.160675 0.292092
245 2 0.327133 0.247343 0.79866
246 2 0.920116 0.919567 0.31028
247 2 0.0204027 0.263535 0.172388
248 2 0.235659 0.478902 0.45322
249 2 0.435987 0.374059 0.355321
250 2 0.427942 0.466211 0.159853
251 2 0.0925066 0.115643 0.277145
252 2 0.268793 0.860504 0.134591
253 2 0.375808 0.99316 0.482055
254 2 0.587361 0.328518 0.311317
255 2 0.188872 0.861233 0.987714
256 2 0.153044 0.253088 0.813927
257 2 0.442842 0.455615 0.93038
258 2 0.0200096 0.586491 0.990769
259 2 0.540095 0.927807 0.280763
260 2 0.404038 0.511994 0.572907
261 2 0.427302 0.922981 0.402996
262 2 0.350612 0.736064 0.384663
263 2 0.505653 0.838033 0.619619
264 2 0.567234 0.264429 0.122075
265 2 0.0220744 0.194371 0.177208
266 2 0.459419 0.535037 0.280046
267 2 0.381221 0.0344276 0.819484
268 2 0.0815717 0.341663 0.615786
269 2 0.737066 0.248258 0.536236
270 2 0.426577 0.138326 0.595507
271 2 0.446621 0.328593 0.058122
272 2 0.393418 0.827821 0.276901
273 2 0.193844 0.178001 0.817011
274 2 0.788118 0.625865 0.225952
275 2 0.518506 0.527406 0.648462
276 2 0.453778 0.839522 0.177055
277 2 0.313532 0.679278 0.927476
278 2 0.967719 0.434698 0.17641
279 2 0.742254 0.338486 0.413503
280 2 0.439606 0.153587 0.143678
281 2 0.115612 0.185416 0.0187342
282 2 0.962592 0.0877257 0.871188
283 2 0.270356 0.189904 0.346898
284 2 0.508957 0.608401 0.423807
285 2 0.112963 0.170479 0.730193
286 2 0.239686 0.47857 0.20786
287 2 0.978807 0.212593 0.123794
288 2 0.178859 0.274155 0.967281
289 2 0.00838306 0.714948 0.516149
290 2 0.192151 0.796087 0.127878
291 2 0.39307 0.0928737 0.246037
292 2 0.449044 0.641511 0.214906
293 2 0.200522 0.156526 0.583779
294 2 0.982316 0.46185 0.228902
295 2 0.139265 0.312332 0.0445496
296 2 0.0968332 0.703411 0.221608
297 2 0.50806 0.993434 0.337816
298 2 0.240607 0.972643 0.452191
299 2 0.222078 0.0780397 0.34441
300 2 0.427011 0.030659 0.659251
301 2 0.451289 0.285145 0.394788
302 2 0.128327 0.327271 0.165136
303 2 0.228521 0.2177 0.988866
304 2 0.538136 0.300762 0.175274
305 2 0.076938 0.416105 0.238335
306 2 0.221757 0.122131 0.212169
307 2 0.267945 0.205785 0.279199
308 2 0.519864 0.33571 0.501626
309 2 0.946025 0.863664 0.331325
310 2 0.114427 0.288918 0.211453
311 2 0.35309 0.192627 0.136399
312 2 0.63063 0.369011 0.337975
313 2 0.477539 0.187038 0.29096
314 2 0.273981 0.261775 0.966505
315 2 0.285504 0.574601 0.516471
316 2 0.820744 0.232026 0.132294
317 2 0.194702 0.997183 0.00648739
318 2 0.0753698 0.0371173 0.127888
319 2 0.934256 0.230457 0.350553
320 2 0.11182 0.0706433 0.211353
321 2 0.533376 0.269031 0.408445
322 2 0.0635096 0.186721 0.990037
323 2 0.347989 0.449014 0.521386
324 2 0.448116 0.0938239 0.105822
325 2 0.345709 0.549811 0.0464985
326 2 0.609822 0.606328 0.242283
327 2 0.140503 0.57989 0.0288601
328 2 0.325402 0.185967 0.306768
329 2 0.0900828 0.841215 0.746878
330 2 0.702368 0.856242 0.492367
331 2 0.200118 0.478075 0.371297
332 2 0.648142 0.522127 0.275508
333 2 0.221835 0.174948 0.319686
334 2 0.166546 0.158032 0.229372
335 2 0.138951 0.586194 0.191456
336 2 0.243784 0.180918 0.554982
337 2 0.167122 0.861339 0.807201
338 2 0.20976 0.279158 0.99131
339 2 0.300827 0.42268 0.0138057
340 2 0.0827311 0.0412373 0.475707
341 2 0.197949 0.323907 0.14042
342 2 0.998836 0.969559 0.202759
343 2 0.907491 0.604394 0.3383
344 2 0.360494 0.870943 0.950498
345 2 0.313553 0.65617 0.80736
346 2 0.223366 0.360513 0.0948864
347 2 0.128381 0.957025 0.118266
348 2 0.370774 0.500877 0.199891
349 2 0.149655 0.488294 0.157707
350 2 0.232491 0.244815 0.37193
351 2 0.118553 0.313366 0.809929
352 2 0.434628 0.34185 0.380337
353 2 0.442149 0.143919 0.260473
354 2 0.0977872 0.696018 0.932806
355 2 0.192023 0.824397 0.342934
356 2 0.129273 0.174526 0.0907876
357 2 0.25681 0.0230823 0.15301
358 2 0.194872 0.577301 0.0918433
359 2 0.686721 0.285082 0.596492
360 2 0.939869 0.20063 0.215783
361 2 0.166382 0.579169 0.574446
362 2 0.461073 0.400981 0.960178
363 2 0.0916856 0.734944 0.708413
364 2 0.281887 0.853368 0.32148
365 2 0.270309 0.0913296 0.158872
366 2 0.184357 0.316912 0.241905
367 2 0.290436 0.294922 0.941849
368 2 0.750546 0.0148378 0.445986
369 2 0.472636 0.346689 0.990535
370 2 0.455069 0.457737 0.623251
371 2 0.236633 0.637817 0.26561
372 2 0.0689919 0.251088 0.962635
373 2 0.302092 0.368992 0.567064
374 2 0.571282 0.902668 0.148194
375 2 0.372234 0.765342 0.952964
376 2 0.475138 0.196271 0.355543
377 2 0.170954 0.129617 0.314123
378 2 0.67255 0.05647 0.0923119
379 2 0.242971 0.517722 0.850961
380 2 0.0894307 0.396161 0.336229
381 2 0.338008 0.740427 0.11928
382 2 0.0920308 0.712384 0.377744
383 2 0.290801 0.311446 0.319249
384 2 0.544641 0.584923 0.547662
385 2 0.162377 0.0848645 0.856936
386 2 0.290078 0.244164 0.47334
387 2 0.319793 0.45773 0.141219
388 2 0.423386 0.124038 0.438481
389 2 0.137803 0.836037 0.159263
390 2 0.107583 0.817872 0.844303
391 2 0.721667 0.161022 0.525079
392 2 0.243045 0.171715 0.159979
393 2 0.186093 0.838384 0.593232
394 2 0.980509 0.428572 0.83458
395 2 0.900894 0.566887 0.288357
396 2 0.96656 0.666009 0.357678
397 2 0.758853 0.716911 0.962986
398 2 0.352506 0.444533 0.197437
399 2 0.728898 0.975123 0.332721
400 2 0.621245 0.402308 0.955793
401 2 0.975014 0.912214 0.539842
402 2 0.379224 0.879427 0.405417
403 2 0.258169 0.267494 0.126784
404 2 0.58527 0.556978 0.82678
405 2 0.55583 0.401417 0.343483
406 2 0.0728925 0.688671 0.401911
407 2 0.0648008 0.18411 0.352003
408 2 0.28912 0.10328 0.976778
409 2 0.64241 0.535231 0.558387
410 2 0.915303 0.942364 0.998784
411 2 0.409488 0.303807 0.429756
412 2 0.144213 0.189653 0.35005
413 2 0.801932 0.407638 0.329389
414 2 0.251337 0.278518 0.374653
415 2 0.303231 0.810228 0.278335
416 2 0.177989 0.491619 0.209025
417 2 0.2408 0.399338 0.145134
418 2 0.197239 0.55404 0.376912
419 2 0.0833755 0.245213 0.329116
420 2 0.461834 0.0483644 0.244719
421 2 0.986274 0.00333212 0.152385
422 2 0.196513 0.593075 0.369504
423 2 0.163456 0.626131 0.326435
424 2 0.960504 0.685649 0.939055
425 2 0.0755752 0.956693 0.212904
426 2 0.155441 0.976676 0.096312
427 2 0.263264 0.403027 0.257241
428 2 0.160886 0.196609 0.141024
429 2 0.364605 0.909919 0.424543
430 2 0.340549 0.18161 0.171944
431 2 0.05004 0.202105 0.808761
432 2 0.0259486 0.230301 0.194884
433 2 0.548955 0.498806 0.918656
434 2 0.112917 0.36711 0.0448485
435 2 0.128625 0.31033 0.271113
436 2 0.316011 0.445101 0.0690346
437 2 0.0732756 0.975563 0.271762
438 2 0.203092 0.867146 0.458729
439 2 0.387179 0.664309 0.295899
440 2 0.371703 0.492682 0.160996
441 2 0.0450454 0.216295 0.262264
442 2 0.291857 0.195222 0.21446
443 2 0.653696 0.248943 0.0263801
444 2 0.377058 0.125006 0.262192
445 2 0.117507 0.17966 0.938735
446 2 0.454384 0.443922 0.212713
447 2 0.287504 0.126054 0.143526
448 2 0.569585 0.461756 0.953118
449 2 0.00367661 0.920507 0.236309
450 2 0.302705 0.0381483 0.223592
451 2 0.394178 0.291687 0.298665
452 2 0.440114 0.281722 0.55874
453 2 0.940459 0.803769 0.25921
454 2 0.173129 0.294597 0.0526972
455 2 0.418826 0.267841 0.378524
456 2 0.311946 0.950192 0.303049
457 2 0.401309 0.309066 0.757664
458 2 0.521992 0.779698 0.319588
459 2 0.269091 0.363957 0.387323
460 2 0.38782 0.178866 0.290455
461 2 0.284837 0.380545 0.104659
462 2 0.0354795 0.0853437 0.242257
463 2 0.208015 0.488421 0.334412
464 2 0.515785 0.429482 0.617421
465 2 0.167866 0.403067 0.196523
466 2 0.146659 0.470884 0.954762
467 2 0.131919 0.222533 0.264383
468 2 0.346918 0.12909 0.69706
469 2 0.570044 0.514816 0.128553
470 2 0.340892 0.478851 0.211846
471 2 0.272654 0.0800886 0.196153
472 2 0.530006 0.262495 0.269749
473 2 0.025033 0.949605 0.695027
474 2 0.204914 0.576344 0.921747
475 2 0.199244 0.764847 0.62189
476 2 0.108248 0.918191 0.860279
477 2 0.209218 0.00236458 0.810149
478 2 0.141198 0.54425 0.881215
479 2 0.549904 0.573616 0.13508
480 2 0.253043 0.740769 0.166954
481 2 0.455095 0.122814 0.316519
482 2 0.0541576 0.24391 0.0617241
483 2 0.189808 0.101749 0.293755
484 2 0.0857725 0.307326 0.930773
485 2 0.0411172 0.257094 0.137896
486 2 0.00348678 0.0819737 0.818466
487 2 0.197025 0.137351 0.125292
488 2 0.341646 0.33857 0.423471
489 2 0.627757 0.483767 0.506365
490 2 0.814115 0.27987 0.261658
491 2 0.193443 0.527377 0.135273
492 2 0.527943 0.518526 0.84177
493 2 0.548382 0.306527 0.502552
494 2 0.937999 0.371794 0.0258267
495 2 0.955462 0.0247102 0.285408
496 2 0.492683 0.477544 0.276881
497 2 0.276777 0.14801 0.48977
498 2 0.23413 0.420374 0.27963
499 2 0.313242 0.0294558 0.380189
500 2 0.125378 0.699352 0.480395
501 2 0.185642 0.997018 0.208306
502 2 0.20707 0.154209 0.158312
503 2 0.137115 0.423286 0.14449
504 2 0.152947 0.281511 0.99603
505 2 0.247423 0.455996 0.28995
506 2 0.183005 0.290665 0.463983
507 2 0.481839 0.439952 0.271647
508 2 0.958746 0.773829 0.0823229
509 2 0.263894 0.414 0.220707
510 2 0.304201 0.317146 0.354443
511 2 0.0272809 0.525283 0.282574
512 2 0.116497 0.123938 0.246712
513 2 0.424847 0.46604 0.464033
514 2 0.241441 0.670039 0.0368247
515 2 0.0152765 0.465428 0.383586
516 2 0.219676 0.369869 0.229938
517 2 0.405923 0.981332 0.220587
518 2 0.46199 0.18318 0.210396
519 2 0.141235 0.454818 0.465045
520 2 0.449157 0.558178 0.59221
521 2 0.0374673 0.966004 0.0305731
522 2 0.376516 0.171768 0.351194
523 2 0.995269 0.407411 0.405796
524 2 0.393176 0.116856 0.367843
525 2 0.293935 0.56694 0.307855
526 2 0.336527 0.839847 0.524033
527 2 0.925841 0.211885 0.249478
528 2 0.351856 0.978751 0.589641
529 2 0.283132 0.138904 0.285403
530 2 0.967703 0.872788 0.771378
531 2 0.145294 0.831374 0.427107
532 2 0.331246 0.5373 0.71032
533 2 0.701745 0.274843 0.33833
534 2 0.347678 0.942248 0.893343
535 2 0.744383 0.248007 0.166843
536 2 0.0835604 0.321561 0.424052
537 2 0.167768 0.0501081 0.504751
538 2 0.297622 0.153305 0.397742
539 2 0.905539 0.121368 0.249416
540 2 0.253225 0.0910473 0.25359
541 2 0.219488 0.510874 0.160809
542 2 0.360616 0.240534 0.199681
543 2 0.58015 0.491415 0.272813
544 2 0.442186 0.380003 0.150412
545 2 0.562808 0.291154 0.224897
546 2 0.185152 0.362452 0.142739
547 2 0.669468 0.0430734 0.130331
548 2 0.266501 0.221851 0.370118
549 2 0.105651 0.139729 0.307839
550 2 0.605253 0.998011 0.896081
551 2 0.304131 0.382642 0.39059
552 2 0.333515 0.295168 0.0324624
553 2 0.46485 0.677166 0.222809
554 2 0.982524 0.152487 0.761585
555 2 0.167613 0.884295 0.353897
556 2 0.365675 0.117874 0.087018
557 2 0.500383 0.99902 0.376016
558 2 0.0957357 0.902218 0.505523
559 2 0.647551 0.147914 0.419964
560 2 0.573224 0.355152 0.562087
561 2 0.557762 0.589219 0.347664
562 2 0.00292408 0.0892246 0.380828
563 2 0.174504 0.102597 0.176822
564 2 0.956443 0.421673 0.534888
565 2 0.432007 0.662815 0.0136151
566 2 0.0848235 0.430977 0.352166
567 2 0.0872308 0.561454 0.111959
568 2 0.359964 0.694897 0.988497
569 2 0.261048 0.0226457 0.413983
570 2 0.162051 0.581133 0.634459
571 2 0.0581136 0.514262 0.574559
572 2 0.832875 0.120102 0.0397342
573 2 0.195146 0.45105 0.125597
574 2 0.732922 0.0757897 0.120991
575 2 0.605213 0.983678 0.44633
576 2 0.542939 0.076962 0.156817
577 2 0.527046 0.488148 0.438454
578 2 0.28233 0.267704 0.622557
579 2 0.677746 0.547254 0.146233
580 2 0.0329676 0.00266973 0.0165728
581 2 0.586865 0.307467 0.24912
582 2 0.141035 0.394468 0.0472078
583 2 0.964794 0.725152 0.208294
584 2 0.454785 0.33401 0.306303
585 2 0.333812 0.482595 0.250374
586 2 0.32806 0.444045 0.488175
587 2 0.597956 0.291131 0.637776
588 2 0.35019 0.354109 0.256462
589 2 0.164962 0.485279 0.558143
590 2 0.387134 0.521729 0.267125
591 2 0.0462171 0.530847 0.911976
592 2 0.01584 0.256394 0.345187
593 2 0.0440713 0.028896 0.795657
594 2 0.322163 0.316578 0.186907
595 2 0.28112 0.138576 0.205998
596 2 0.788534 0.246967 0.95191
597 2 0.249523 0.38739 0.00244253
598 2 0.447341 0.526876 0.340668
599 2 0.993481 0.131727 0.203061
600 2 0.571675 0.327081 0.804682
601 2 0.398757 0.421674 0.0792209
602 2 0.237687 0.859139 0.0396719
603 2 0.109974 0.915514 0.820255
604 2 0.975679 0.589784 0.401188
605 2 0.344812 0.246879 0.13952
606 2 0.981948 0.342376 0.955757
607 2 0.452524 0.530172 0.724496
608 2 0.423986 0.410619 0.256987
609 2 0.938235 0.052128 0.23681
610 2 0.922505 0.179119 0.271512
611 2 0.230789 0.13689 0.327362
612 2 0.546157 0.530489 0.621418
613 2 0.508394 0.279364 0.798556
614 2 0.423302 0.183134 0.455428
615 2 0.403757 0.0311128 0.107953
616 2 0.765874 0.336587 0.321142
617 2 0.144623 0.296267 0.912673
618 2 0.145921 0.0510489 0.770917
619 2 0.228449 0.5339 0.236003
620 2 0.922514 0.154806 0.17248
621 2 0.891491 0.694582 0.354035
622 2 0.208759 0.514594 0.834429
623 2 0.156175 0.0461883 0.385459
624 2 0.197623 0.0522612 0.972633
625 2 0.285292 0.353758 0.222241
626 2 0.13952 0.0211247 0.138097
627 2 0.175808 0.0871312 0.428048
628 2 0.501065 0.36874 0.347318
629 2 0.0247357 0.17366 0.820294
630 2 0.129686 0.470717 0.105873
631 2 0.17257 0.309821 0.204293
632 2 0.934574 0.337108 0.282147
633 2 0.0428194 0.176809 0.261624
634 2 0.440904 0.466383 0.426611
635 2 0.124738 0.582148 0.354896
636 2 0.0107209 0.0581048 0.932092
637 2 0.357753 0.431249 0.980036
638 2 0.0129513 0.413423 0.343078
639 2 0.538989 0.18799 0.428657
640 2 0.0374422 0.354752 0.173597
641 2 0.048993 0.400903 0.215107
642 2 0.31723 0.872457 0.267315
643 2 0.434178 0.271451 0.149817
644 2 0.349036 0.0958243 0.503494
645 2 0.417336 0.0212687 0.970941
646 2 0.262497 0.972363 0.963691
647 2 0.989766 0.768782 0.345754
648 2 0.104014 0.57093 0.17719
649 2 0.253573 0.185495 0.22096
650 2 0.294114 0.13665 0.772155
651 2 0.0662632 0.576405 0.36225
652 2 0.244765 0.0629029 0.710047
653 2 0.282831 0.321885 0.715735
654 2 0.353002 0.840758 0.804312
655 2 0.00232929 0.975411 0.129628
656 2 0.352716 0.185955 0.237492
657 2 0.952372 0.0730228 0.42049
658 2 0.88236 0.0491314 0.197306
659 2 0.914635 0.181385 0.919827
660 2 0.412693 0.511899 0.964423
661 2 0.0173347 0.779725 0.400023
662 2 0.314961 0.786624 0.844351
663 2 0.517597 0.637978 0.329382
664 2 0.113529 0.364128 0.925647
665 2 0.613119 0.0337555 0.251725
666 2 0.88595 0.944773 0.679926
667 2 0.104222 0.0834253 0.820946
668 2 0.424572 0.7674 0.910053
669 2 0.233286 0.32951 0.121754
670 2 0.674136 0.450471 0.705255
671 2 0.106308 0.155847 0.150022
672 2 0.481595 0.820167 0.296617
673 2 0.393076 0.949308 0.0637002
674 2 0.336685 0.140081 0.103573
675 2 0.121584 0.101995 0.386962
676 2 0.402233 0.20315 0.506551
677 2 0.352861 0.467395 0.680715
678 2 0.30561 0.857635 0.744391
679 2 0.311172 0.651589 0.117545
680 2 0.409876 0.373871 0.840265
681 2 0.49859 0.935527 0.0890061
682 2 0.366316 0.144376 0.3797
683 2 0.452546 0.562446 0.415714
684 2 0.249563 0.146066 0.226913
685 2 0.159913 0.901206 0.292201
686 2 0.0285412 0.287471 0.546315
687 2 0.249557 0.401528 0.944813
688 2 0.541932 0.038112 0.109747
689 2 0.280039 0.953232 0.167152
690 2 0.31095 0.284178 0.675096
691 2 0.149113 0.343294 0.858815
692 2 0.627777 0.967266 0.372326
693 2 0.121334 0.0845292 0.146471
694 2 0.171202 0.59231 0.726953
695 2 0.4086 0.610776 0.197357
696 2 0.192726 0.547168 0.240887
697 2 0.404777 0.100876 0.530747
698 2 0.59556 0.734808 0.279587
699 2 0.338945 0.0932728 0.218284
700 2 0.434485 0.911312 0.302825
701 2 0.128203 0.725145 0.985863
702 2 0.0582787 0.39672 0.406214
703 2 0.361716 0.914562 0.223374
704 2 0.947844 0.00572017 0.0557806
705 2 0.101754 0.249372 0.262135
706 2 0.0085229 0.0359534 0.200886
707 2 0.21102 0.421828 0.478903
708 2 0.352799 0.429115 0.430235
709 2 0.058291 0.160727 0.666341
710 2 0.241307 0.66238 0.350848
711 2 0.96527 0.134275 0.0473862
712 2 0.58638 0.163256 0.283117
713 2 0.143128 0.12348 0.979656
714 2 0.874502 0.197569 0.949753
715 2 0.18076 0.505555 0.106064
716 2 0.34418 0.219553 0.298745
717 2 0.981119 0.054979 0.289991
718 2 0.838547 0.0846251 0.936601
719 2 0.546146 0.59462 0.383478
720 2 0.403222 0.130172 0.0811393
721 2 0.542163 0.973302 0.331857
722 2 0.392167 0.898812 0.137421
723 2 0.925405 0.153652 0.330765
724 2 0.187857 0.237081 0.0365399
725 2 0.459017 0.455079 0.99038
726 2 0.219015 0.981418 0.674268
727 2 0.241766 0.625394 0.15826
728 2 0.860451 0.251109 0.986778
729 2 0.298877 0.491332 0.397462
730 2 0.133414 0.0941514 0.350197
731 2 0.425039 0.404171 0.647591
732 2 0.13485 0.966345 0.0412205
733 2 0.323278 0.303879 0.222989
734 2 0.308807 0.178564 0.340314
735 2 0.0959516 0.584265 0.141601
736 2 0.320869 0.423859 0.207474
737 2 0.6805 0.233418 0.0883417
738 2 0.276751 0.276535 0.328032
739 2 0.921406 0.0196145 0.030163
740 2 0.209944 0.120138 0.176679
741 2 0.0474151 0.666616 0.00828432
742 2 0.223529 0.309786 0.239165
743 2 0.90251 0.222703 0.585908
744 2 0.970108 0.832936 0.319693
745 2 0.0841761 0.12711 0.0054322
746 2 0.0392396 0.105314 0.328489
747 2 0.360874 0.532795 0.220843
748 2 0.553734 0.180778 0.352877
749 2 0.101565 0.125732 0.640691
750 2 0.58378 0.158386 0.585099
751 2 0.50518 0.0291829 0.318134
752 2 0.961729 0.0208657 0.247701
753 2 0.509008 0.553871 0.764197
754 2 0.104873 0.00966216 0.184517
755 2 0.157399 0.264079 0.164234
756 2 0.993829 0.390979 0.48016
757 2 0.861803 0.0421477 0.324468
758 2 0.274268 0.566742 0.0534829
759 2 0.32175 0.585003 0.22086
760 2 0.798457 0.442797 0.402277
761 2 0.21695 0.0447091 0.0328175
762 2 0.119565 0.449367 0.340704
763 2 0.244004 0.498871 0.239967
764 2 0.4711 0.368347 0.545775
765 2 0.578971 0.570916 0.561566
766 2 0.0935547 0.291098 0.0888317
767 2 0.245263 0.839979 0.316092
768 2 0.435474 0.816709 0.0408913
769 2 0.258721 0.353222 0.42306
770 2 0.229394 0.163634 0.386705
771 2 0.179062 0.477946 0.245442
772 2 0.348674 0.0128662 0.892489
773 2 0.208583 0.66819 0.0165045
774 2 0.0116748 0.0335904 0.640467
775 2 0.151122 0.218852 0.230922
776 2 0.386071 0.111594 0.85004
777 2 0.273342 0.133986 0.105749
778 2 0.0799771 0.554436 0.42264
779 2 0.0347582 0.149668 0.46129
780 2 0.240399 0.0873489 0.217588
781 2 0.434571 0.436213 0.0672772
782 2 0.613587 0.151559 0.707407
783 2 0.518066 0.39468 0.571847
784 2 0.14666 0.49716 0.316661
785 2 0.430028 0.307856 0.238699
786 2 0.15755 0.341037 0.0939378
787 2 0.0286295 0.0228982 0.60578
788 2 0.276401 0.140158 0.429927
789 2 0.329044 0.830606 0.159117
790 2 0.389264 0.367587 0.522926
791 2 0.30267 0.966451 0.336603
792 2 0.309606 0.972923 0.0838906
793 2 0.507648 0.377886 0.097629
794 2 0.29744 0.177201 0.278256
795 2 0.220907 0.762501 0.165102
796 2 0.768759 0.981757 0.337269
797 2 0.301601 0.0660493 0.389142
798 2 0.564694 0.453855 0.221581
799 2 0.0762143 0.181674 0.418821
800 2 0.247807 0.189474 0.125546
801 2 0.252474 0.599425 0.455271
802 2 0.161977 0.952661 0.067766
803 2 0.256111 0.850657 0.251925
804 2 0.155964 0.206911 0.902282
805 2 0.301041 0.186819 0.176924
806 2 0.390575 0.00592467 0.0451264
807 2 0.173603 0.258479 0.752284
808 2 0.113024 0.295895 0.30354
809 2 0.235469 0.223405 0.877225
810 2 0.262847 0.400663 0.336608
811 2 0.313771 0.178175 0.241843
812 2 0.294313 0.788031 0.501567
813 2 0.16262 0.913462 0.328509
814 2 0.146276 0.959625 0.152561
815 2 0.0430739 0.0989559 0.0987246
816 2 0.191058 0.157029 0.737754
817 2 0.330733 0.291746 0.937881
818 2 0.282204 0.490167 0.316344
819 2 0.759424 0.271642 0.296295
820 2 0.0450989 0.591886 0.280048
821 2 0.256929 0.881469 0.395832
822 2 0.943177 0.606086 0.383972
823 2 0.236032 0.490638 0.276283
824 2 0.139649 0.0740021 0.668336
825 2 0.322597 0.372134 0.358163
826 2 0.164786 0.0718314 0.356027
827 2 0.481192 0.047464 0.137629
828 2 0.246744 0.332554 0.264859
829 2 0.111625 0.973833 0.207495
830 2 0.140809 0.15519 0.258408
831 2 0.146671 0.577283 0.291595
832 2 0.118453 0.368742 0.387089
833 2 0.335614 0.0440419 0.283129
834 2 0.933859 0.516308 0.0358861
835 2 0.442581 0.756695 0.0486684
836 2 0.314519 0.386787 0.508855
837 2 0.568038 0.379149 0.849265
838 2 0.565756 0.0483717 0.140248
839 2 0.0117399 0.0452257 0.110931
840 2 0.632005 0.140631 0.385609
841 2 0.530553 0.00171877 0.0989395
842 2 0.224263 0.232725 0.482196
843 2 0.299815 0.29933 0.64135
844 2 0.0415298 0.712606 0.952826
845 2 0.862403 0.182105 0.0042687
846 2 0.0537275 0.607424 0.983061
847 2 0.392019 0.498644 0.363855
848 2 0.134208 0.736368 0.257945
849 2 0.136276 0.752369 0.365637
850 2 0.0713166 0.195943 0.119893
851 2 0.147245 0.512321 0.354911
852 2 0.277376 0.0601985 0.105297
853 2 0.231903 0.310407 0.201398
854 2 0.664469 0.320893 0.301806
855 2 0.1808 0.856318 0.950788
856 2 0.380885 0.503524 0.326488
857 2 0.0902558 0.601682 0.884911
858 2 0.287008 0.392283 0.955885
859 2 0.354435 0.33372 0.31759
860 2 0.369225 0.286796 0.0501721
861 2 0.465501 0.343404 0.92471
862 2 0.296122 0.48179 0.537459
863 2 0.962065 0.33658 0.483409
864 2 0.929225 0.582081 0.267405
865 2 0.0922632 0.38032 0.815671
866 2 0.401661 0.834945 0.989471
867 2 0.402456 0.0583797 0.445526
868 2 0.193389 0.391348 0.980987
869 2 0.256502 0.636195 0.0505232
870 2 0.579314 0.308191 0.396355
871 2 0.328387 0.570404 0.365992
872 2 0.693154 0.35085 0.582959
873 2 0.0381224 0.627485 0.334128
874 2 0.664397 0.441095 0.570913
875 2 0.122737 0.349299 0.261993
876 2 0.958781 0.945757 0.953029
877 2 0.589884 0.386028 0.444781
878 2 0.883185 0.919927 0.185497
879 2 0.398257 0.0564928 0.484305
880 2 0.0921461 0.754039 0.325959
881 2 0.20204 0.321249 0.0517023
882 2 0.0768941 0.128088 0.144405
883 2 0.267134 0.23566 0.899116
884 2 0.425263 0.12532 0.114634
885 2 0.892725 0.382003 0.0897922
886 2 0.381361 0.66054 0.360354
887 2 0.141467 0.0523186 0.160726
888 2 0.433918 0.0974625 0.41106
889 2 0.0662021 0.488362 0.345682
890 2 0.614627 0.54335 0.269627
891 2 0.858104 0.519944 0.2207
892 2 0.183402 0.212147 0.112359
893 2 0.0807247 0.448808 0.299689
894 2 0.234404 0.763858 0.3922
895 2 0.296949 0.0804699 0.323749
896 2 0.155513 0.951174 0.396323
897 2 0.566049 0.473787 0.863528
898 2 0.374481 0.367823 0.00264092
899 2 0.0261346 0.864116 0.258776
900 2 0.125315 0.199464 0.206461
901 2 0.0634058 0.865593 0.764518
902 2 0.5321 0.940868 0.108671
903 2 0.043341 0.0185346 0.111919