LAMMPS data file via write_data, version 2 Apr 2025, timestep = 1001000, units = metal

1000 atoms
2 atom types

0 22.31043679975832 xlo xhi
0 22.31043679975832 ylo yhi
0 22.31043679975832 zlo zhi

Atom Type Labels

1 H
2 Si

Masses

1 1.00784
2 28.0855

Atoms # atomic

743 2 4.605205346125882 1.9734608589251028 2.4670142048921067 3 0 1
532 2 2.5755383311822557 2.770972141821716 2.460654640350223 0 0 -1
742 2 0.6367923130579813 2.3827596323716387 4.925143457332073 2 3 1
460 2 3.1991942927001276 5.132023906168479 4.158182918921572 2 1 -1
48 1 6.874383266265998 1.5257994333118703 4.388943060735377 2 -2 3
734 2 3.0716414186896777 3.9529825985116824 0.34231999423751847 1 1 1
903 2 4.04638022494082 0.6383654163940558 5.383132339084217 -2 1 0
68 1 2.207842829816869 1.4259396518113165 2.7172088879549467 1 2 4
274 1 0.13986777920600724 1.2310309165770585 3.1994287994551174 2 2 2
637 2 11.134112709435902 3.92193729005024 10.897876407848663 0 1 -1
895 2 0.9384159436153975 5.4811169617904305 2.8862947566378083 0 -2 1
189 1 1.660294432535792 1.3549574680392236 0.8327515458838127 1 3 -2
186 1 5.117249878707485 2.380698405771023 5.049679286829008 4 2 0
690 2 5.645733765258437 4.522124320730677 1.6399901584763286 0 0 0
846 2 6.5132104087357146 0.8947025439121622 3.113486426237535 2 -2 0
435 2 4.815437727193736 1.9609001258520522 0.16756036339554814 0 0 0
892 2 7.531846073053429 3.9947714164244 2.8525011065765904 -1 1 1
417 2 9.048709916113157 2.1783036501588895 2.9143899824451895 1 1 0
494 2 7.339443830439222 5.560496492898733 5.195938995961481 0 -1 1
686 2 8.782022073336616 2.8002253189673625 0.6609224534607074 1 1 3
362 1 5.443654794698721 2.795222977188049 4.3904666377787125 1 3 0
512 2 10.517545015978842 1.2497601388803308 0.8733608088780427 1 1 -2
507 2 10.98693555007836 4.1072115771913085 1.1633525559182618 1 2 0
623 2 7.941534880374411 0.6159189161862308 1.1023491929746276 1 2 0
489 2 9.668903454387186 0.7308279410671328 4.765313419172314 -2 -1 3
491 2 9.354374426915815 5.862697248871191 4.265809341719643 0 0 -3
222 1 4.2854301654626274 9.784087291941168 3.664300599276774 -1 -1 0
34 1 9.362028434337292 4.023861126497814 6.2132834984400676 -1 -2 0
882 2 3.537178692173344 5.420260170091527 2.1046715743281017 1 0 0
137 1 8.571446728422046 9.833435946054445 0.3830586842082752 1 2 2
828 2 6.379604754980947 6.3124951289592754 3.2695207699001174 2 -1 -1
592 2 1.6408494332961798 10.783238174088554 4.2934069218448 1 0 1
918 2 1.609049352246516 7.763742789695917 2.116651237136945 -2 1 -1
732 2 4.492390773925677 7.710902782081133 3.0068867299577904 2 0 -1
554 2 3.6397570312049443 9.227757560848241 4.973381959758295 -1 1 3
648 2 0.44332605986215395 8.905222435620399 3.818634051298879 -2 0 1
52 1 9.983310956380908 5.587225965225601 10.463529210586922 2 1 0
620 2 7.552572159623704 10.979058457359397 3.4593292792457784 0 -1 0
794 2 4.358345261714466 5.392098412646529 6.229956388745471 1 -1 1
894 2 0.7509857858152003 10.529933914596853 0.34996544288274595 0 -1 2
260 1 3.086484471639407 9.40738591085764 0.6260228345865337 3 2 -1
940 2 2.5301422239486397 7.372615834075131 4.583434793484585 2 2 0
308 1 2.7345315988045344 8.91232824094161 1.9439672787860673 1 3 -2
128 1 7.109188633893442 6.356092131372717 0.159003120942481 1 1 1
858 2 9.17823096656188 9.480592843041455 7.509813856568173 1 3 1
284 1 9.126532458557838 5.444327145022311 0.3427579995549542 3 0 0
74 1 9.732848981428404 10.975959250703749 5.054112606986959 0 0 -1
361 1 4.773361772750932 6.617588077650323 10.660687534356992 1 0 0
90 1 3.4123905596095407 3.5918070324166598 5.718228514044844 1 -2 -1
718 2 8.238724767739685 7.806451445430502 6.0721326254407355 0 1 -1
757 2 9.333221392385006 9.347756956979977 2.222040223593088 -1 0 1
957 2 7.540768093482208 7.6906578563820185 1.3442583022788668 1 0 1
857 2 5.238200798902461 8.894248766748548 1.1671021163190123 -4 2 1
493 2 7.125839000904015 8.339322526726274 3.3792537169123937 1 1 -2
560 2 9.606578052087436 6.521561001006075 1.7353740462127742 1 0 -2
57 1 9.276753177596389 4.005758735695507 3.8771062688032223 3 -1 4
307 1 8.17852090808838 5.487237960696409 9.110450353135926 3 -1 0
678 2 6.712182768626306 10.164848385096391 5.459314488130073 1 -1 0
627 2 9.520203763107672 9.355477063281153 4.67232803046929 0 -1 1
715 2 6.554273605394802 10.968246969917395 1.0253408616205777 3 1 -1
147 1 2.2482926369269194 4.117283917010689 4.286930423482717 -1 2 2
561 2 11.124435066013906 7.350966408707567 6.831939424359489 2 1 1
188 1 4.170907535542285 0.5575256826569484 8.220796465534946 -1 1 0
587 2 3.0863190868112285 2.328551909628271 6.48529724604148 0 0 1
613 2 1.4287084396866256 0.4387360590886199 5.752385601521519 0 0 0
966 2 5.081656209718697 3.5332496066422308 8.233340589222488 -1 0 1
670 2 4.786132846612851 4.7155867691461735 10.433300436782792 0 0 1
863 2 2.783232402858951 1.734058611176207 8.642559202966588 1 0 0
744 2 1.0113893518293149 3.4187002978747487 7.011664059494867 0 1 2
272 1 2.103526660861237 5.265156061158959 9.123640274740922 2 2 3
467 2 0.7822054381950491 2.8354773330398486 9.496084346793833 -2 2 1
367 1 3.8154771650655674 2.2130072040861113 9.705418252939712 2 -3 -2
131 1 8.650599100939685 10.763920643053405 6.445746617796112 -1 -1 0
95 1 3.289100007544573 4.166982534151781 9.538843343285121 0 5 0
599 2 1.9702706535620316 4.58911678328582 10.668169343518992 0 -1 0
659 2 9.650686362631367 1.0338611649948328 10.100770273830422 1 -2 -1
16 1 2.2075832842006475 2.843688627183339 10.758794707122846 -6 -1 0
178 1 8.452019957834535 3.518748490204514 4.227369099965433 -5 1 1
444 2 7.884216147762513 3.47622653668368 5.94163789036849 0 1 1
479 2 6.423155519988371 1.3028137787480936 6.803841351918276 -1 0 1
345 1 5.9355922957349625 7.484554564578285 10.222518431754642 0 1 1
713 2 7.352023661843156 0.9540031215911113 9.347121768588806 0 -1 0
539 2 8.084958169407129 5.0515199240122035 10.596776573572587 2 1 1
538 2 9.596175784798765 3.1562157424465336 9.294700530232374 0 -2 1
594 2 7.356132832108354 3.012661479783995 8.246332409753848 1 -2 0
255 1 7.780299705506604 1.3076684208708753 5.917174406689796 -3 0 0
581 2 10.233654972749516 2.453397314388233 7.246565629685546 0 -1 0
92 1 5.308912282370504 4.1956957068831855 6.168338379703779 3 1 0
522 2 5.985670981622968 0.9988050046206672 11.082431576039458 0 0 1
104 1 11.058984685924994 3.4921264030756958 5.342486431568915 -1 3 -2
541 2 0.8177996273383448 6.702320691927598 6.346388551678895 0 1 1
442 2 2.3617398870467623 5.294764859391433 7.353185971594394 2 -1 1
33 1 3.646186975290255 10.272619908264197 6.064375436539581 0 -2 -1
784 2 2.3703827847215515 8.362218816762141 9.613366415457216 0 -1 -1
793 2 9.511569577811724 0.15959825960568497 8.044365486082716 1 -1 -1
174 1 4.14601566855331 9.317790570572795 9.923150015988274 1 0 0
862 2 3.5558072364764035 7.191664788260715 7.9054926528727565 0 1 -1
643 2 0.21792956451828724 7.275015292440048 8.829548645059708 -1 0 -2
381 1 2.3371847557387393 7.343979114211258 6.911480659107757 0 -1 0
942 2 0.3594437811938403 9.35436910243476 10.003561240642517 1 1 -1
635 2 0.050391755570132216 3.3029927029610375 2.654844183804784 2 0 0
881 2 0.4154409628413073 8.905842065985075 6.9965552341956405 2 0 0
281 1 3.01178169609534 0.3427833032851667 2.7039729040902842 2 0 1
50 1 2.474022785445397 9.88009812318198 8.705313491623633 -3 -1 -2
176 1 5.567940988243644 3.126021081528873 10.637072340929532 -1 -1 0
985 2 5.642146832358688 5.939502308004224 8.264322116350899 1 -1 0
406 2 5.238723989648089 7.9401673044082415 6.620602210406486 0 -1 1
100 1 4.781042764283689 2.2572880240223694 7.164651723729104 3 2 0
313 1 2.6786659683998746 10.878274519040385 8.217548185108281 -1 -3 -2
61 1 6.89956861723951 3.7823414637593142 9.801432196067042 0 3 1
429 2 6.132962500734739 10.498946859802928 10.845501229410662 1 -1 -2
220 1 10.829708577135802 10.790510273170014 9.58247306019791 -2 0 -3
609 2 8.993021162423757 6.6534783463232605 7.596316223871059 -1 2 0
913 2 5.7763944668711495 10.0210126571042 7.85523873882386 0 2 1
656 2 7.222917394439664 7.502334832041099 9.044448211201875 2 0 0
765 2 10.560781962996625 10.470061305371757 11.066901272255624 0 1 0
955 2 9.323460312545281 8.254316803550056 10.056549959881691 1 0 0
628 2 7.652343857526052 9.891115010352861 9.047511689879236 0 -1 2
495 2 10.721782806050703 6.092660178605026 8.879427874588014 0 1 0
89 1 0.40566632282037424 5.75068323990097 9.055076632150904 -3 1 0
390 1 4.430991600634561 10.544144091893703 2.686874530900528 2 0 2
714 2 10.87480939668011 3.7125865415736086 3.695282696072146 1 0 1
268 1 0.8757512352058753 4.549450885786196 1.4164838014144745 -1 -3 -4
384 1 3.3908291983124665 7.1243263089234805 2.076033689374185 -3 3 0
555 2 10.92880817122778 0.10045675867384468 2.84436623523308 2 2 3
342 1 8.057723169443955 3.301926774817908 10.98213528853401 -1 2 -3
164 1 9.091351880310702 0.4652776346326032 6.631565542860512 6 -1 -1
157 1 2.1854846131328287 0.017788042276425386 9.103439319325677 -1 0 2
820 2 1.4904248197175165 3.1683312156764467 13.074735254469509 0 -2 1
382 1 6.124695101705211 3.8221495488933765 14.150679899959195 0 3 -1
726 2 1.887716778710127 0.28089073355698474 12.44003052786733 1 1 -1
650 2 3.9497525948299295 5.85350694016072 13.458339009433743 0 0 0
455 2 3.6378127742585735 2.295204415413033 12.85142261329188 1 -1 -1
787 2 2.558496655345974 2.6199113163996444 14.98074985313213 -1 0 -1
824 2 0.5510512725282695 4.194442102269588 15.245904667660435 1 0 -1
316 1 3.63019355223963 1.5550780991818123 14.491363757560915 3 1 0
299 1 2.690376921087319 8.914466085818505 21.445007607438274 0 4 -4
394 1 4.685778436320279 3.3553086604761573 13.382863746164873 0 -2 -2
591 2 5.377747946764122 1.82224044853216 16.179900649502876 -1 1 -1
29 1 8.895269845868125 2.1809644437487083 12.273832993429236 6 -1 2
383 1 8.105976430651179 9.844146199833753 11.930971317471979 4 -1 -2
796 2 2.969298435942882 10.83390111933368 21.940199654631524 2 1 -2
504 2 10.364641093466156 5.098629444778882 12.667674879819936 1 2 -2
994 2 5.407686194437198 9.9857714762978 21.197957006736402 1 0 -1
809 2 6.680362384442103 2.974141893703638 12.024191456255783 1 1 1
194 1 9.40571271533409 1.8510501014415788 14.294047134773058 -4 -2 0
636 2 5.445497147984848 1.241993985877385 13.926084523336524 2 0 0
318 1 10.1854044014065 8.18346412194097 21.88739246910446 3 -1 1
279 1 6.6062151912339 8.812620138960904 15.019483843821071 4 -1 -3
388 1 0.4240834906777852 10.05660663011983 12.573910226273663 0 3 -1
10 1 11.147212505904427 9.369615522313033 18.09157465124354 1 1 3
677 2 7.4878443895953914 3.3213388675024795 15.195322236331732 1 2 1
533 2 9.99102757352682 2.626467147865269 13.107008030783437 1 -2 0
898 2 9.270586342542373 1.476930329879428 16.226969692548305 -1 0 0
175 1 6.5439892084729765 4.382267287514996 16.594862050135045 -1 2 0
333 1 7.581789229044885 1.3640822405024249 19.428746264682136 0 0 0
630 2 8.654783780833942 5.48572105440854 16.991334549206815 2 0 1
415 2 8.933523248419249 7.96169262774049 21.518020020035408 -1 1 -3
998 2 3.1498067940142462 6.273355310862945 16.096504519289955 1 0 -2
298 1 7.851312642242298 1.1871874987411348 17.079264311198063 -1 2 0
397 1 1.5570040418902562 10.034579147786143 16.026355765534433 -1 0 0
775 2 5.615704073708359 10.349406338758572 14.229972797573039 0 0 1
960 2 4.355929895754257 7.826372195374959 14.099589531067245 -1 0 1
418 2 3.9290270299159444 8.980127910129795 11.464473460427078 1 1 0
751 2 2.7542849002830607 9.363914197495765 14.054458577744626 1 0 0
720 2 1.422853370248743 8.34855180746105 12.390222654272094 1 -1 0
962 2 2.3549080608161477 6.5024920558746055 11.55977685137875 2 0 -1
798 2 1.82418628869296 6.0261349280551455 14.15085500358792 -2 0 -1
321 1 3.587799574429493 3.837138885543295 11.192027836542788 -1 2 -2
17 1 10.552332866012406 6.399807462786427 20.001880786092155 2 0 -3
240 1 8.945557071220795 1.1173939093687746 18.298115729351146 0 1 -1
111 1 8.966475478865085 6.594528192483687 20.533681606999533 0 1 1
622 2 0.7900143722797466 8.189123122189402 15.177259368205544 1 1 -1
221 1 7.634924197363373 2.6800218652678867 13.339269400880328 -3 1 -1
498 2 9.084282292691974 5.183613484286026 14.739791440987672 0 0 -1
759 2 5.747866436003824 5.711558865928916 22.16984273775389 0 0 2
752 2 10.861461914363831 10.439912153474172 13.498913357141493 1 -1 -2
974 2 5.509160707047163 5.970145788811128 16.323361154398413 -1 -1 0
703 2 6.693768809371223 7.597118350705241 12.780435985220796 1 0 1
239 1 9.5209399787143 8.848979727223961 17.07667222701731 0 -1 2
434 2 8.99581549557958 10.435487501508426 15.506477827221438 1 3 -2
661 2 7.401184420176906 10.587065907933868 12.904132772397853 -2 0 -1
634 2 6.7394106306312285 5.6429740617580295 14.645804932177098 1 -1 -1
871 2 9.411207113909338 7.898032142814742 15.778370159974346 0 0 -2
292 1 7.115784106538958 6.1627068636954245 16.94468116509801 3 -2 1
792 2 8.35201326065588 8.606065861710839 14.064471141917744 0 1 0
662 2 9.405824782098657 7.296331911037844 12.369612698254542 1 0 -1
760 2 6.158597002023826 5.149676693369171 12.275074568245453 0 2 -1
651 2 11.11807463358574 8.453284859098622 14.516619425847889 0 -2 0
65 1 10.687137436697462 8.232587814110767 12.311893120089847 -2 -1 0
500 2 1.7810213863330207 3.229467896153019 18.01873426227677 0 0 -2
826 2 4.00897173372463 3.9726575507761237 16.156417792663973 0 -1 0
658 2 2.557520143278718 5.506769384723839 19.42694521404846 1 -1 -2
841 2 1.581652389641845 1.2733062454280062 19.33943486429611 1 1 -1
463 2 4.8249308125646495 2.397339001745386 19.16157173597369 0 1 -1
405 2 3.433348269196373 1.4704988774410284 20.70341495335119 1 3 -1
683 2 4.989071445246534 5.247592430890655 19.885803688972842 1 -2 -2
937 2 2.962406597358197 1.3078875986736573 16.96569695183794 1 0 -1
408 2 8.633237929243347 9.618644842302148 18.872753547687232 -1 -2 -1
452 2 1.045574753189722 4.677378138950711 21.766955496411306 1 0 0
699 2 1.0291062958017578 1.581691787773018 21.753729758451072 0 3 0
737 2 6.031083756686628 0.03940424178409686 21.90426748983251 -1 1 -1
201 1 8.133638842048551 2.926956315282593 17.374026627582555 -1 3 1
735 2 5.393715773286605 4.107481259227445 18.004993409784813 -1 0 0
441 2 6.318148851346466 0.7470872222266352 19.898234991517803 0 1 -1
82 1 7.262336354538427 2.188195612353018 17.463192464020413 -1 6 -1
823 2 10.05201509969001 4.769420135364953 18.90709522720082 -1 -1 -1
610 2 8.513941072875706 1.400885509119336 20.83839057790464 -1 1 -1
601 2 8.622484285756494 4.43643297591187 21.336661178842007 -1 -1 -2
859 2 10.455343083338946 1.9952785967355766 18.48543688166817 1 2 0
700 2 7.777096108798639 3.6004073576310023 18.68159924395059 1 2 1
582 2 6.658283919853511 2.8704186297369376 21.268199585289363 1 1 0
747 2 10.507495917445736 2.667420784467237 20.806105019845596 0 0 0
184 1 6.843739959626054 7.594542163052271 11.227192141628636 -2 1 1
631 2 9.376475296232854 7.188022552307349 18.468854311894525 0 2 0
251 1 7.060237646811632 9.538490914424658 16.75770652127459 -2 -4 -1
226 1 3.439894080374729 6.08283734519544 18.02500142943846 4 -1 -1
965 2 0.3484971180844781 1.5607317068855882 11.525670644452918 1 3 -1
31 1 5.210618368222535 7.934085730453141 17.750536208885702 1 1 -3
842 2 1.0287652597696664 6.927704655394969 22.12571114916817 0 2 -1
142 1 3.700631166157255 9.460925316320028 19.683150169458447 2 0 2
125 1 6.832403135819318 6.111391294645585 20.1614784881257 0 -2 -3
290 1 1.4623163957521057 7.146017466419867 16.258989307233538 -2 -1 -2
925 2 2.9301724826847897 7.831020576825775 20.190953743195966 -1 -1 0
947 2 1.957310228383511 8.281756184157903 18.09787529749194 4 0 1
518 2 4.026693987524266 10.420608321229356 17.89903794205603 1 0 -2
989 2 0.7987372678464616 8.509401265984147 20.605300991744713 0 0 0
958 2 1.5246599464280113 10.544475665003825 18.83180339115537 1 -2 0
604 2 4.055805600451015 8.359027036134368 16.56306846992605 1 0 0
198 1 1.6123355261479808 10.918946916663593 20.57192134129681 0 1 1
916 2 0.1270401389536426 9.91666426632545 16.82761423855119 0 1 -2
288 1 10.496609174194923 6.7209238482654206 22.16924062357039 4 0 -4
159 1 10.836948057245591 7.416918881759781 16.88737656183246 2 -1 0
3 1 6.3678026487714305 9.74434789925446 17.174016760383086 -3 -3 2
266 1 6.881391593015397 9.626062228558872 19.119664907664646 2 1 -1
56 1 6.983627589959217 5.1396189851875835 20.990363127721636 3 0 1
216 1 5.628314676067664 6.728840811541913 19.56081117818112 -2 3 -2
337 1 0.6933105197452332 4.636598175303933 20.19786295415519 0 2 0
438 2 5.232426463646477 7.810950072325338 21.198893277792795 0 0 0
246 1 7.198351935809105 7.0228555564786905 20.61951432314043 1 0 -3
214 1 10.450135258175546 0.13098136988003833 15.706322782576677 0 4 -3
851 2 10.530554047625573 10.803527771111519 19.61053920963808 0 1 0
669 2 6.451096431924164 11.06404033039323 19.15297457565929 -1 0 1
573 2 0.1588149334057382 1.4705920203663716 14.609504490821678 0 0 0
924 2 7.805390265046547 10.202242723772077 21.400404346018544 -1 0 0
701 2 10.946630194267687 0.09088387039359133 13.335218189207275 -2 0 0
373 1 0.5445333922171888 5.315612477690708 16.5987473876097 -4 -1 1
746 2 4.900942559507873 0.16193666523420042 17.976601167077902 0 -1 2
315 1 10.753547182596762 3.7309913945393545 16.964588608399914 2 -1 0
262 1 3.704370837643586 10.451661491027695 11.501045349815678 -2 1 2
151 1 10.426589339642108 6.340097638012743 16.52616907715907 3 0 0
358 1 1.1468377582454077 10.900137564642204 14.8148382835597 -2 0 -2
349 1 0.030021172948048958 0.014974658992983336 20.055751247871168 1 3 -2
256 1 9.144205472576406 11.059322132975739 11.201684554141284 3 -1 6
919 2 0.6423608678651582 12.388953054052024 3.2498113793709256 1 0 1
687 2 4.856997769729625 14.839349331663305 3.250171073867986 1 -2 0
404 2 2.600363448816359 15.385528660252541 2.6812730542101924 1 2 0
129 1 3.4617443681372793 13.430703427368098 4.060994640277157 -3 0 1
995 2 3.210236852149333 12.931206586914723 1.0038461428213221 0 1 0
584 2 5.044208949709877 12.181769042393231 2.6000693128182877 1 0 1
410 2 1.896362384668753 14.836673683556594 0.45621120955628475 0 1 1
838 2 4.5277242372328015 15.069157110187856 0.8475835828497402 2 0 0
375 1 2.0279869810328544 12.915473601829788 2.283202741921316 -2 3 0
257 1 6.8666168400344745 11.842015497396648 5.993401027101137 4 0 0
951 2 0.6880292443080351 16.265082118029934 1.9060457436252294 0 -1 -1
829 2 0.9160818422346264 14.14703581359437 4.819613789467894 -1 0 0
192 1 0.39036966861505507 18.579256154218008 10.381600662557958 -1 0 -1
181 1 3.130287368908072 12.606669239117252 4.248980712081474 3 2 0
889 2 3.748060542921468 15.539483246293983 5.253090421475981 -1 -1 -2
295 1 1.2333319242427192 12.603439129143226 0.14310363213618166 -2 -2 2
106 1 0.8930121913430347 16.31003239571643 10.101501318631003 1 -1 0
953 2 6.094605381199554 14.436015626568354 5.813214375607917 -1 2 0
37 1 6.305198580386041 13.7308911099412 2.1057105605213753 3 -1 0
810 2 7.140256070011675 15.260525624089372 3.7614783274620662 1 0 0
509 2 7.4265142080413895 12.849387512389882 4.652390337002456 1 0 -1
987 2 11.077046209682415 17.07305809250701 5.474652308921028 -2 0 2
992 2 10.822971377401444 14.371012299945729 0.6142586141910572 0 0 1
997 2 8.96845987277662 12.838191172302713 3.0249575889576468 1 0 -1
818 2 6.958639813101813 13.251627208121539 0.4699644546804157 -1 0 -2
277 1 6.077321340471755 17.248145538848018 10.728122498273562 -2 1 2
880 2 10.196822943342994 12.081792619324244 1.0944785070640264 1 1 1
69 1 2.2553586957936003 21.365014436245396 1.1841297956445707 1 -4 1
330 1 9.466819009478463 14.146313719564809 3.666503635837356 1 -1 -2
523 2 5.789858115386658 16.85253305335572 1.8600345406859333 -1 0 0
233 1 9.178226084945084 15.51096960662442 3.4077546591205823 -1 0 2
62 1 7.363157849455406 14.667113412502069 1.1071621974790016 3 1 -4
993 2 10.515429052067315 16.26538969898428 3.1673338756431026 -1 1 1
293 1 9.309914335275703 13.100221824126336 5.516965853021494 0 -2 1
219 1 4.690406132965373 13.328697665903267 0.7355789620754392 -1 0 -6
827 2 6.819222218902257 17.29037210187595 8.319002805664534 -3 1 0
269 1 2.1184538203122667 18.560112771911047 2.330098073281658 1 -1 -1
695 2 2.5769610470214794 16.976123854764015 0.6363146439670704 1 -2 1
721 2 4.20823768296603 19.722064636207197 0.526659846449706 0 1 1
770 2 2.068913243916439 17.52122752638418 3.535878918853019 0 1 -1
877 2 1.6213849668375167 19.072068569654594 0.29816260743469075 -2 -2 -1
904 2 0.651152408496548 20.771611994553528 3.266130868138402 -1 0 0
85 1 1.6683508260932671 19.325415250423415 6.625513843547971 1 -2 4
585 2 2.686584208824101 21.7636050298323 3.8150983306614457 1 -2 0
531 2 4.9669571800869035 21.09509071558569 3.150584416930858 -1 -1 -3
840 2 4.593076782400859 18.383068251514125 3.3739222044205444 0 0 -1
624 2 10.657722274938942 20.316026158833687 10.438674843927847 -1 0 2
352 1 6.195031508485093 12.387398542045995 5.679017056496249 0 0 1
112 1 5.835982276439322 11.491901229151413 7.0379772534233975 3 -1 1
153 1 2.0324505501228627 19.82556065929764 4.941399167934421 3 -3 -1
496 2 7.688451911411541 19.33347126192428 8.912946383714944 -1 1 1
931 2 8.465575492673965 20.821388992256114 4.9168491661857505 0 0 1
13 1 6.44094280847857 18.291852272201034 3.079354393767452 -5 0 1
368 1 3.416146196691353 19.41247571633367 2.0113582416458358 2 -1 -1
708 2 7.2676982638259755 20.28583392321954 2.398954175460279 0 -3 1
588 2 7.595335588502311 16.661705121328588 5.737567716059239 0 2 0
253 1 6.6580036885866045 19.87174876684452 6.694464824881979 3 0 1
668 2 6.246629736816371 22.095906894355316 5.058058111065133 -1 0 1
200 1 9.416620019905553 17.655576150716342 6.994313915161985 0 1 1
558 2 8.183648348942777 16.36636373421767 1.5613687238166802 2 0 0
579 2 7.557897488275768 18.770769375687426 4.330772165563759 0 2 1
711 2 0.07076920567885414 11.487210434140536 9.31767323624205 -1 0 1
273 1 8.205110475708173 21.30703409832073 3.405624950397715 0 0 1
890 2 10.126857670753983 18.928564388172134 2.8666036867385376 0 1 0
723 2 9.303926340331772 20.332296852616167 1.5546163497835244 0 0 -1
900 2 10.362010082677273 16.57688682964459 0.44778792498085507 0 1 2
248 1 7.5585275645194185 17.378893447012572 2.994015921355267 2 1 -2
565 2 6.7119814311547215 18.407060239869054 0.4931062361562094 -1 -3 3
205 1 4.157547286715352 21.259403999054783 9.583686752802265 -3 1 -1
223 1 8.082512722486769 21.240159683192964 7.790943401592789 0 -2 2
4 1 5.986876587466539 15.220470196765733 7.508754864769106 -3 2 1
614 2 4.267020381847835 13.527506394906682 6.998661413763164 -1 1 0
908 2 2.2360026850311883 12.912003962541359 8.567571405129385 0 0 2
304 1 4.012096195537482 15.614311618196629 7.502830859950892 4 2 3
485 2 4.719818115855459 15.17748773367053 9.14836210308293 2 0 0
448 2 0.918545905929303 14.733101367778648 7.732838532302508 2 0 2
524 2 6.046420873802934 13.522276566498187 8.407185432004049 -1 0 0
696 2 1.318983652455887 14.744000833138115 10.331697773948738 -1 -3 1
941 2 3.517219743188144 13.75608736196726 10.539452836377329 2 1 0
566 2 3.828610829616589 17.279430250243564 10.232566214645693 1 0 1
999 2 1.4046912210738642 16.89228457161003 7.3414906490916305 2 -2 0
446 2 2.7911677758769673 11.516365752364122 6.642143496516967 1 -1 -3
217 1 8.740006415702373 20.853900384083673 6.873177724547335 -2 4 0
130 1 4.015122815936555 11.526918044943383 9.231307925995516 2 -3 2
322 1 5.5927133314334725 12.966280652659158 9.762404325256725 -2 -1 2
982 2 8.16604059911978 12.168184825833121 10.138285646951326 0 1 0
653 2 6.053252807884014 14.357091106555128 11.015312422020163 -1 0 -2
116 1 9.079698714821799 19.29167851437711 0.44189865259230043 0 -3 0
961 2 7.655577712490933 14.956511211140064 7.7099573975913565 1 1 0
311 1 9.688025921125062 16.252938849110404 4.498379776105741 0 0 1
629 2 9.667629484472599 13.940787863085918 6.640918795112192 0 2 1
835 2 10.911053383541804 15.217620754662697 8.235602077457633 0 0 0
673 2 8.877656113934764 11.694914153281145 7.726698045656534 1 1 0
571 2 7.284399019162915 16.40089688668291 10.554174257430823 2 -1 0
563 2 8.717319082983009 14.529568220982545 10.175199862344337 0 -1 1
7 1 7.459979949856573 13.75617477911801 6.345865820384096 3 4 -6
902 2 11.012565498225266 12.429678481106093 8.24416153543269 0 2 2
81 1 5.45786366088336 20.640332013036566 7.3454227899112565 -1 -2 1
605 2 10.062663562014077 17.998706413509954 10.786994308012437 -1 0 -2
2 1 1.582888182350302 19.54121280639846 4.264936231536766 -1 -3 0
409 2 5.49597174801622 21.801556772621574 8.530333610220758 1 1 2
139 1 9.58251058254469 18.3238651479845 6.617775228524559 0 1 0
547 2 4.207458553352384 18.68859465030117 7.719276702474132 0 -1 0
249 1 2.7013824390546812 21.84005355306069 0.7750170543844325 2 3 6
692 2 2.7267986669920137 20.921194232345346 8.840691785575277 2 0 1
779 2 2.775358725016667 17.846486335355927 5.725448879481116 0 0 -1
905 2 6.697342065495722 20.874963107833473 10.23513900843882 -2 2 -3
241 1 2.025453559839796 19.4980463110072 8.723012522741978 -2 -3 1
717 2 4.780620360982404 19.33220307551126 9.899411463016309 0 -2 1
577 2 1.885272000155649 17.98128772830995 9.23835764621053 0 0 1
928 2 5.760918761927345 19.65534657048613 5.265232430031165 1 -1 1
750 2 3.8706368713548414 20.53726835984369 6.591870291994962 0 0 0
707 2 5.464398434590686 17.434301827905095 6.0791218041230595 0 1 -2
655 2 9.884056197850882 19.80231264985337 8.161478635136023 2 1 0
633 2 0.7185026918739973 21.732352483698463 10.180985619799344 -1 -1 0
887 2 9.185947754382605 16.74175828936277 9.022897672543586 2 1 1
168 1 0.16179056454032542 15.241079963731654 3.9706906863697875 1 -3 2
9 1 0.7748463264674847 11.980588477588148 0.7346660113320195 0 -3 0
326 1 10.508954189581624 14.273438432796192 2.1684773731830416 -1 -2 0
933 2 0.24815097433792138 20.936114495913134 7.731710790291653 0 0 1
710 2 0.4317252563916998 11.203938710212432 6.311129558802389 1 -2 1
97 1 0.02183792840459874 16.685503710879395 5.543748038208182 1 -2 0
740 2 11.042706165114776 20.637355240330006 4.204289531377186 0 -2 1
855 2 0.43639922367810424 21.12352227533168 0.7253170823033102 -1 1 3
155 1 11.076520244098985 21.942865171403675 5.439844210907565 2 0 0
392 1 2.55651327108206 11.337465479823608 2.7996784611019176 1 1 -1
45 1 8.220435321515817 18.680717119702845 0.2042931132409382 2 -2 1
250 1 0.1625428841203167 17.21312737242956 4.930737719814027 0 2 1
115 1 2.2602380583227335 22.307327284770544 7.244241628590774 3 1 1
107 1 3.2171611166279597 11.245676108995418 9.727126211641794 0 4 0
497 2 3.7098677639686346 13.760286998258078 14.182222766042887 -1 -1 -1
731 2 3.0499861009424882 15.219842871343396 12.227855529782984 1 0 0
526 2 0.143966022869089 15.102963958203784 13.187915587523074 0 -1 1
830 2 1.2185377508185846 13.364505281339282 12.489364206858264 2 -1 -2
973 2 0.7731963275172008 12.519544447895415 14.530664105798374 0 -1 2
645 2 4.550408885415477 11.848396117698947 15.652206524251094 2 1 -1
681 2 1.858231477033091 15.89996567734128 15.080484041430454 -1 -1 0
306 1 4.18059150965251 20.009652250226853 12.141781934980736 -1 0 -2
980 2 4.850342296914084 16.007805747181884 15.005660046864696 0 1 0
118 1 1.166814163259703 13.519258076061933 18.76154099318575 1 -2 -1
20 1 4.903864777105369 22.23555307872675 11.466459870899994 0 2 0
19 1 1.8025544483710347 12.893331248594448 15.529902275655795 1 1 -1
640 2 10.951276677340982 17.09210960697476 12.90266250323718 -2 0 1
354 1 1.0670334330143594 14.655133649158062 16.141587334649873 1 -2 3
741 2 10.610289610146765 16.354845768104827 15.582790003450627 1 -1 -3
797 2 7.549362572107649 13.053790789695622 13.209758543471182 2 -1 1
839 2 5.719927753088477 15.525266446781918 13.035733847601 0 -1 2
457 2 6.284174894496645 13.720231738205191 14.696012364966746 0 2 1
845 2 8.077030471308081 14.84691298751348 15.498308238178925 0 0 0
359 1 7.521926816795181 11.914369851123096 15.874175476564334 0 2 -4
981 2 8.220591704450996 15.56405509752693 12.34627242128642 0 -1 1
934 2 5.290263462491394 12.494097809487627 12.04361224439078 1 1 -1
680 2 8.189817647921952 17.347795100153363 15.529781209834404 2 -1 -2
396 1 8.166917102324204 16.722647291454315 13.673472649046687 -1 2 -2
990 2 9.172209515149822 12.720996150431711 14.554812644166336 0 1 -1
127 1 10.213446758764334 12.605173159051395 13.165314169002283 2 -4 -3
276 1 1.4193211093490388 16.676053487287565 12.04335597501787 3 2 -2
576 2 3.537097025692824 11.52367453056265 13.257068740031958 1 0 -1
110 1 2.5833362531580715 21.89156474050024 18.151947228179058 2 -1 1
15 1 0.9853719307784445 19.84525544519268 11.669213396647635 -2 1 0
915 2 3.3424271208755783 17.570348044616228 14.452766945059189 1 -2 -1
470 2 1.727379267230234 21.93455352969419 14.678293343195849 1 0 0
545 2 3.5139825472874 19.707452430124633 15.975169120287768 0 -1 2
927 2 2.789473892089354 17.645446352277773 12.23270411465533 1 0 0
42 1 3.6992653284425425 20.278781018190074 17.87830472247201 -1 -5 -1
945 2 6.1165298567166975 21.395108479311087 14.615628528145129 -1 1 0
476 2 1.3603843693950257 19.35627534964964 13.957618651106808 1 -2 -1
426 2 1.908953826763316 11.475050672245288 11.314687792006623 0 1 -1
141 1 5.8052937517809395 19.37524670666406 14.137215445810584 0 2 -2
979 2 2.896790050687536 20.10945045169963 11.432439640956304 2 0 0
319 1 8.598937107805554 18.839587255789198 20.72571139306449 2 0 -1
621 2 4.177443122006005 22.00522966530686 15.540645258166135 1 0 -2
917 2 1.6105847470573795 18.337789101892813 16.059909688851818 -1 1 0
586 2 7.988631895051991 18.7599326368186 11.805436701025407 1 0 1
795 2 5.97939151876143 18.125591562690108 15.385194731553087 1 -1 0
210 1 0.3078126124307955 16.94906413953729 14.414931309938465 0 -1 -1
199 1 10.458917402693405 13.853737925150961 12.305551767875388 0 0 0
177 1 8.527889043093134 18.879780850479545 13.368031204425382 -1 2 0
63 1 7.352618261741865 21.873860482038314 15.11696239300594 1 2 2
54 1 5.715447956950954 18.259871766659767 12.713440108938437 3 -2 1
906 2 9.193315916720971 20.870384764302095 16.8009430196471 1 0 2
148 1 5.100079847271575 18.683944601264624 12.733966255393614 -1 1 1