160
Lattice="11.509172904203812 5.031964331431471e-19 2.0658719775440863e-19 5.754586447132173 9.967236109647517 4.928450680881156e-22 1.420171516259971e-18 -1.0355812709145848e-18 34.79167314901655" Properties=species:S:1:pos:R:3:travel:I:3:forces:R:3 cutoff_factor=1.2 cutoff=-1.0 nneightol=1.2 energy=-26087.001841817902 free_energy=-26087.001841817902 stress="0.0008645943975433918 1.4447526251276278e-07 3.545728098236682e-07 1.4447526251276278e-07 0.0008642585588132618 -9.889929521250964e-08 3.545728098236682e-07 -9.889929521250964e-08 -0.001716284549679332" pbc="T T T"
Si       3.82120835      -2.27736325      -3.80879778        0        1        1       0.00004693      -0.00009959      -0.00027792
Si      -0.00003706      -4.47115216      -2.97071474        0        1        1       0.00017257      -0.00009402      -0.00006894
Si       5.75460641       3.25094980       4.67220705        0        0        0      -0.00025040       0.00029981      -0.00055317
Si      -4.52794714      -0.07817245       2.61057737        1        1        0       0.00065088      -0.00023536       0.00020196
Si       3.83639097       2.14357277      15.24984284        0        0        0      -0.00009377      -0.00005586       0.15422633
Si       5.75458645       3.25104344      16.03294287        0        0        0       0.00002172      -0.00001398      -0.05572309
Si       3.96042235       2.21518751       3.34827861        0        0        0       0.00035735      -0.00000132      -0.00003477
Si       2.25811647       3.85337847       2.61055561        0        0        0      -0.00038510      -0.00063029       0.00021946
Si       5.75458645       3.25104344     -16.40943020        0        0        0      -0.00001632       0.00001168       0.02270492
Si       7.67278194       4.35851412     -15.62633017        0        0        0       0.00602428       0.00345933       0.12310286
Si       1.94048071      -1.19148989      -2.88715882        0        1        1      -0.00012707      -0.00007374      -0.00005606
Si      -0.00005374      -2.25263740      -3.72493803        0        1        1       0.00006815      -0.00008236       0.00014789
Si       7.67455234       4.35947162     -13.26192699        0        0        0      -0.00037325      -0.00009772      -0.00019734
Si       1.91823997      -1.17882602     -12.46156620        0        0        0       0.00012466       0.00004412       0.00005998
Si       1.91717181      -1.17808838     -10.09726815        0        0        0       0.00033428      -0.00010980       0.00037764
Si       0.00000000       4.35851412      12.11744273        0        0        0      -0.00000005       0.00000002       0.40333880
Si       3.83282164      -0.06680317      -9.29789311        0        0        0       0.00016388       0.00012983      -0.00000421
Si       3.82893690      -0.05960755      -6.93320536        0        0        0       0.00019314      -0.00001258       0.00006532
Si       3.83639097       4.35851412      12.11744273        0        0        0      -0.00000005       0.00000003       0.40333880
Si      -1.95688915      -3.45164732       0.27661984        1        1        0       0.00009141       0.00021500      -0.00034387
Si      -3.79616937      -4.52458565      -0.72497807        1        1        1       0.00017947       0.00021238      -0.00021274
Si       0.00008078      -4.50016061     -12.46860793        0        0        0      -0.00000529       0.00028518      -0.00014985
Si       0.00002751      -4.49849852     -10.10779580        0        0        0       0.00008553      -0.00028570      -0.00001905
Si       5.75458645       1.03610209      12.11744273        0        0        0       0.00000005      -0.00000004       0.40333882
Si       5.75461395       3.25099446       2.21221700        0        0        0       0.00004440      -0.00014982       0.00092110
Si       4.52790488      -0.07819198       2.61058862        0        0        0      -0.00031061      -0.00006905      -0.00000289
Si       0.00002219      -0.07147700      -0.08920262        0        0        0      -0.00027835       0.00034945       0.00005998
Si       1.91258627      -3.39270395      -9.29788203        0        0        0      -0.00005303      -0.00026121      -0.00018156
Si      -1.97064446      -1.20925246      -0.47662693        1        1        1       0.00013425       0.00042838      -0.00003608
Si      -5.75458505      -3.39389922      -0.08302941        1        1        0      -0.00010195       0.00018897      -0.00016886
Si      -7.71304978      -4.52456543      -0.72494702        1        1        1       0.00003752       0.00001727      -0.00020852
Si       1.90443962      -3.39289583      -6.93322191        0        0        0       0.00017409      -0.00008356       0.00016953
Si       3.82722255      -2.28082815      -6.16203201        0        0        0      -0.00010594       0.00006535      -0.00003648
Si       5.75451790       1.04780464      -6.14755311        0        0        0       0.00006779      -0.00025522       0.00000300
Si      -3.83639097      -4.50125131      12.90054276        0        0        0       0.00000005       0.00000004      -0.64619558
Si      -5.75456881      -1.13250771      -0.72502100        1        1        1      -0.00006709       0.00035035      -0.00016017
Si      -3.83639097      -4.50125131      15.24984284        0        0        0      -0.00011393       0.00006649       0.15379083
Si      -3.83624077      -4.50126174     -12.45671610        0        0        0       0.00006753      -0.00015264      -0.00004244
Si      -3.83455678      -4.50211547     -10.09079773        0        0        0      -0.00004412      -0.00008426       0.00021433
Si      -1.91252576      -3.39271746      -9.29785872        0        0        0      -0.00002894      -0.00019864      -0.00020585
Si      -1.90449020      -3.39291827      -6.93320664        0        0        0       0.00001692      -0.00005079       0.00019651
Si      -0.00003346      -2.27407085      -6.10349153        0        0        0       0.00002677       0.00008064      -0.00006496
Si       7.67278194       4.35851412      12.11744273        0        0        0      -0.00000005       0.00000002       0.40333880
Si      -1.91819549      -3.39378064      16.03294287        0        0        0      -0.00008738       0.00073671      -0.05542077
Si      -7.67278194      -4.50125131      12.90054276        0        0        0       0.00000005       0.00000004      -0.64619558
Si       5.75455329       3.25094400      -0.08115066        0        0        0      -0.00005761       0.00006121      -0.00064140
Si       3.78463813       2.11359601      -0.60212891        0        0        1       0.00009844       0.00023763       0.00007434
Si       3.90575861      -0.07609264       0.27653028        0        0        0      -0.00001873       0.00017359      -0.00015321
Si      -7.67278194      -4.50125131      15.24984284        0        0        0       0.00011433       0.00006656       0.15379412
Si      -5.75458645      -3.39378064      16.03294287        0        0        0       0.00002545       0.00001410      -0.05533455
Si      -5.75458645      -3.39378064     -16.40943020        0        0        0      -0.00002817      -0.00001816       0.01603596
Si      -3.83639097      -2.28630995     -15.62633017        0        0        0      -0.00218756      -0.00129010       0.14247370
Si      -3.83699535      -2.28673702     -13.25931535        0        0        0      -0.00020433      -0.00000265      -0.00006483
Si      -3.82980708      -4.50474869      -3.06463923        1        1        1      -0.00017201       0.00001110       0.00046234
Si      -1.91809753      -1.17882688     -12.46151781        0        0        0      -0.00013584       0.00007395       0.00003463
Si      -1.91716231      -1.17808304     -10.09720454        0        0        0      -0.00014639      -0.00010584       0.00026794
Si       0.00002168      -0.07116578      -9.29523066        0        0        0      -0.00010443      -0.00009917      -0.00007745
Si      -0.00003141      -0.07108644      -6.92860682        0        0        0       0.00008270      -0.00009086      -0.00001034
Si      -1.94052780      -1.19141571      -2.88712318        1        1        1       0.00013020      -0.00009175      -0.00012677
Si      -3.82124818      -2.27725605      -3.80879153        1        1        1      -0.00016468      -0.00039688      -0.00019446
Si      -7.67935177      -4.50483371      -3.06461176        1        1        1       0.00039005       0.00022617       0.00044650
Si       1.90781144       1.03038333      -6.10347101        0        0        0      -0.00019402      -0.00034077      -0.00016201
Si      -3.83639097      -2.28630995      12.11744273        0        0        0       0.00000000      -0.00000007       0.40333881
Si       7.65397675       4.34795821      -3.78581671        0        0        1      -0.00030278      -0.00032611       0.00001471
Si      -1.91819549      -1.17883927      12.90054276        0        0        0       0.00000005       0.00000004      -0.64619557
Si       5.75454642       1.05804202      -3.78582184        0        0        1      -0.00019165      -0.00012856       0.00014647
Si      -1.91819549      -1.17883927      15.24984284        0        0        0       0.00002202       0.00001318       0.15371466
Si      -5.75464572      -1.17104441      -3.06468137        1        1        1       0.00023002      -0.00028866       0.00055488
Si      -0.00000000      -0.07136860      16.03294287        0        0        0       0.00002440      -0.00000158      -0.05517316
Si      -0.00000000      -0.07136860     -16.40943020        0        0        0      -0.00002583       0.00000290       0.01070105
Si       3.85518141       4.34791171      -3.78581279        0        0        1      -0.00012482      -0.00016285       0.00009820
Si       3.81050233       2.12886724      -2.97076069        0        0        1       0.00008444       0.00002088      -0.00003165
Si       1.88920242       1.01966464      -3.72492173        0        0        1      -0.00004531      -0.00019798       0.00000114
Si       1.91819548       1.03610209     -15.62633017        0        0        0      -0.00506672      -0.00295458       0.11779565
Si      -3.83535858       2.14300524     -12.46860912        0        0        0       0.00021555       0.00006797      -0.00015862
Si      -3.83409999       2.14241881     -10.10780130        0        0        0      -0.00010363       0.00014510       0.00011895
Si      -1.92019632       3.24592979      -9.29791892        0        0        0      -0.00023411       0.00001432      -0.00008868
Si      -1.92450093       3.23916241      -6.93324649        0        0        0       0.00005297      -0.00009639       0.00015283
Si       0.00003979       4.34820535      -6.16206397        0        0        0      -0.00015563      -0.00017092       0.00007217
Si      -7.67273657      -4.50123417     -12.45672491        0        0        0      -0.00028406      -0.00019684      -0.00001620
Si      -7.67451622      -4.50206944     -10.09081396        0        0        0       0.00003749      -0.00012494       0.00034383
Si       0.00007599       4.50537308       3.38706358        1        0        0      -0.00013445       0.00000228       0.00032345
Si      -2.25798866       3.85320055       2.61065327        1        0        0       0.00002133       0.00044205      -0.00008478
Si      -5.75452455      -3.39359735      -9.29600012        0        0        0      -0.00011096      -0.00009280      -0.00038533
Si      -5.75457142      -3.39352959      -6.93324221        0        0        0       0.00004014      -0.00003344       0.00042130
Si      -3.82722635      -2.28077803      -6.16201736        0        0        0      -0.00002097       0.00001854      -0.00004227
Si       1.91688957       1.03528745     -13.26253187        0        0        0      -0.00014744       0.00005477      -0.00013359
Si      -3.96043484       2.21513197       3.34839455        1        0        0       0.00008257      -0.00003423      -0.00056104
Si       0.00009531      -4.64459029       3.34834576        0        1        0      -0.00016792       0.00023397      -0.00013285
Si       3.83556709       2.14300126     -12.46861093        0        0        0      -0.00032578       0.00001373      -0.00024588
Si       3.83421784       2.14240602     -10.10780875        0        0        0       0.00006276       0.00003414       0.00000983
Si       5.75463291       3.25120651      -9.32188517        0        0        0      -0.00000942       0.00001964      -0.00047605
Si       5.75456714       3.25128139      -6.96459947        0        0        0       0.00012549      -0.00005192      -0.00008745
Si       7.66284468       4.35304987      -6.14758146        0        0        0      -0.00001588      -0.00009705       0.00021130
Si      -1.91819549       1.03610209      12.11744273        0        0        0       0.00000005      -0.00000005       0.40333882
Si      -5.75447246      -1.17882813     -12.45672236        0        0        0      -0.00015117       0.00038602       0.00002789
Si      -5.75453328      -1.17662960     -10.09080253        0        0        0      -0.00001509       0.00002128       0.00034611
Si      -3.83278466      -0.06675901      -9.29779769        0        0        0      -0.00017959       0.00007626      -0.00034002
Si      -3.82902010      -0.05954285      -6.93313053        0        0        0       0.00006595      -0.00008712      -0.00012985
Si      -1.90785376       1.03044428      -6.10350175        0        0        0       0.00008644      -0.00035155      -0.00000965
Si       0.00000000       2.14357277      12.90054276        0        0        0      -0.00000005      -0.00000002      -0.64619555
Si      -5.75458645      -1.17883927      12.90054276        0        0        0      -0.00000005       0.00000004      -0.64619557
Si      -5.75458645      -1.17883927      15.24984284        0        0        0       0.00000009      -0.00013183       0.15378872
Si       1.94886543       3.31327286       0.27653229        1        0        0       0.00002143       0.00024337      -0.00004518
Si      -0.00004154       2.20407159      -0.47668466        1        0        1      -0.00001835       0.00006501       0.00012541
Si      -3.83639097      -0.07136860      16.03294287        0        0        0       0.00061751      -0.00047531      -0.05542042
Si       3.96353840      -2.35972264       3.38713454        0        1        0       0.00023675      -0.00023417       0.00009895
Si       2.26992593      -3.98934807       2.61063722        0        1        0      -0.00016334       0.00035016      -0.00008141
Si      -3.83639097      -0.07136860     -16.40943020        0        0        0      -0.00084730       0.00016935       0.01685884
Si      -1.94892281       3.31328344       0.27658941        1        0        0       0.00017432       0.00013302      -0.00028328
Si      -3.78470239       2.11362070      -0.60208519        1        0        1       0.00009323       0.00014624      -0.00021606
Si      -3.90572589      -0.07609274       0.27653699        1        0        0      -0.00008737       0.00020514      -0.00017382
Si      -1.91819549       1.03610209     -15.62633017        0        0        0       0.00522993      -0.00299093       0.11786108
Si      -1.91669974       1.03527432     -13.26252288        0        0        0       0.00001775       0.00007245      -0.00021517
Si       0.00009317       2.14357285     -12.46159337        0        0        0      -0.00006862       0.00025756       0.00006012
Si       0.00003249       2.14256580     -10.09730171        0        0        0       0.00001116       0.00025002       0.00046499
Si       1.92029359       3.24586978      -9.29794407        0        0        0       0.00011966       0.00013175       0.00005739
Si       1.92451665       3.23907875      -6.93326914        0        0        0       0.00005506       0.00005887       0.00023854
Si       3.84629702       4.35302513      -6.14756048        0        0        0      -0.00004763      -0.00005569       0.00003143
Si       0.00000000       2.14357277      15.24984284        0        0        0      -0.00000009      -0.00002568       0.15371770
Si      -3.83639097       2.14357277      12.90054276        0        0        0      -0.00000005      -0.00000002      -0.64619556
Si      -3.83639097       2.14357277      15.24984284        0        0        0       0.00009421      -0.00005564       0.15422621
Si      -1.91819549       3.25104344      16.03294287        0        0        0       0.00072574      -0.00028359      -0.05542152
Si      -1.91819549       3.25104344     -16.40943020        0        0        0      -0.00057723       0.00064337       0.01690278
Si      -0.00000000      -4.50125131      12.90054276        0        0        0       0.00000005       0.00000004      -0.64619558
Si      -0.00000000      -4.50125131      15.24984284        0        0        0      -0.00000095       0.00010858       0.15422603
Si       1.91819548      -3.39378064      16.03294287        0        0        0       0.00012501       0.00074770      -0.05542222
Si       1.91819548      -3.39378064     -16.40943020        0        0        0       0.00025959      -0.00079956       0.01690547
Si       3.83639097      -2.28630995     -15.62633017        0        0        0       0.00237448      -0.00126357       0.14253507
Si       1.95681073      -3.45162789       0.27657525        0        1        0       0.00014301       0.00019384      -0.00009913
Si       0.00003428       4.34134895      -3.80881567        1        0        1      -0.00014385      -0.00017417      -0.00026797
Si      -0.00005702       2.16964455      -2.88716582        1        0        1       0.00013577      -0.00023330      -0.00007932
Si      -1.88933189       1.01972840      -3.72495108        1        0        1       0.00020145      -0.00025718       0.00017958
Si      -0.00004653      -4.44161150      -0.60205823        0        1        1       0.00006897       0.00019539      -0.00016827
Si       3.83718775      -2.28671019     -13.25930822        0        0        0       0.00002425       0.00002723      -0.00012526
Si       0.00000000       4.35851412     -15.62633017        0        0        0       0.00007970       0.00274799       0.14253269
Si       0.00008513       4.35937897     -13.25930996        0        0        0       0.00000394       0.00003087      -0.00004676
Si       1.91819548       3.25104344      16.03294287        0        0        0      -0.00067980      -0.00027841      -0.05542090
Si      -3.81062969       2.12891903      -2.97074493        1        0        1       0.00020683      -0.00004323       0.00004474
Si       1.97067401      -1.20920074      -0.47666833        0        1        1      -0.00003536      -0.00017633       0.00006894
Si       1.91819548       3.25104344     -16.40943020        0        0        0       0.00053102       0.00063362       0.01689088
Si       3.83639097       4.35851412     -15.62633017        0        0        0      -0.00586688       0.00345044       0.12293414
Si      -0.00000000      -2.28630995      12.11744273        0        0        0      -0.00000005      -0.00000004       0.40333882
Si       1.91819548      -1.17883927      12.90054276        0        0        0       0.00000005       0.00000004      -0.64619557
Si       1.91819548      -1.17883927      15.24984284        0        0        0      -0.00002240       0.00001424       0.15371666
Si       3.83639097      -0.07136860      16.03294287        0        0        0      -0.00056655      -0.00046505      -0.05542033
Si       3.83639097      -0.07136860     -16.40943020        0        0        0       0.00079991       0.00015561       0.01686377
Si       5.75458645       1.03610209     -15.62633017        0        0        0       0.00010237      -0.00687985       0.12293767
Si       5.75469526       1.03411098     -13.26194752        0        0        0      -0.00013571       0.00054842      -0.00014026
Si       3.83639097      -2.28630995      12.11744273        0        0        0       0.00000000      -0.00000002       0.40333885
Si      -5.75453975      -3.39375794       4.69504320        1        1        0       0.00005931      -0.00014426      -0.00062188
Si       3.83480383       4.35946137     -13.26194861        0        0        0       0.00024254      -0.00016233      -0.00002766
Si      -1.91819549      -3.39378064     -16.40943020        0        0        0      -0.00029296      -0.00078635       0.01686799
Si      -0.00000000      -2.28630995     -15.62633017        0        0        0       0.00002287       0.00601152       0.11785670
Si      -2.26975346      -3.98926271       2.61070439        1        1        0      -0.00013323       0.00030837      -0.00031061
Si       0.00006290      -2.28469654     -13.26252273        0        0        0      -0.00000261       0.00010648      -0.00018207
Si      -3.96343018      -2.35964718       3.38717373        1        1        0      -0.00037729      -0.00033412       0.00008600
Si      -5.75449081      -3.39367199       2.23703234        1        1        0      -0.00011704      -0.00019717       0.00074785
Si       1.91819548       1.03610209      12.11744273        0        0        0       0.00000005      -0.00000004       0.40333883
Si       3.83639097       2.14357277      12.90054276        0        0        0      -0.00000005      -0.00000002      -0.64619555
