160
Lattice="11.517930900918623 2.8362854760748073e-19 2.5707213829896313e-19 5.758965445485874 9.974820757288144 -4.933349071875656e-20 2.589037212668758e-18 1.171290479218359e-19 34.81814814958648" Properties=species:S:1:pos:R:3:travel:I:3:forces:R:3:energies:R:1 cutoff_factor=1.2 cutoff=-1.0 nneightol=1.2 energy=-26087.152162467377 free_energy=-26087.152162467377 stress="0.000716344344335786 8.015149600155322e-08 1.0400793898055812e-07 8.015149600155322e-08 0.0007163891152329088 -5.2881480901806634e-08 1.0400793898055812e-07 -5.2881480901806634e-08 -0.0014324850171743603" pbc="T T T"
Si       3.81905089      -2.27635397      -3.81772646        0        1        1      -0.00000146      -0.00000179      -0.00003011    -163.17682005
Si       0.00000373      -4.48049201      -3.00202744        0        1        1      -0.00000077       0.00000383       0.00001804    -163.17335996
Si       5.75897574       3.25349988       4.70097065        0        0        0      -0.00001265      -0.00000273      -0.00001681    -162.20700864
Si      -4.53676976      -0.05935642       2.58874668        1        1        0      -0.00000511      -0.00003959      -0.00001644    -162.97240469
Si       3.83931030       2.14520394      15.26144733        0        0        0      -0.00004586      -0.00002620       0.19776309    -163.16761169
Si       5.75896545       3.25351735      16.04514326        0        0        0       0.00000020       0.00000178      -0.12320928    -163.17524650
Si       3.95486121       2.21189927       3.39575980        0        0        0       0.00001665       0.00000300      -0.00002572    -162.60896896
Si       2.27886264       3.85149348       2.58873976        0        0        0       0.00000001      -0.00001161       0.00000280    -162.97241162
Si       5.75896545       3.25351735     -16.42191709        0        0        0       0.00000000      -0.00000244       0.02072847    -163.17470570
Si       7.67862060       4.36183077     -15.63822115        0        0        0       0.00717742       0.00414958       0.10737156    -163.17711329
Si       1.94117321      -1.19216272      -2.87951767        0        1        1      -0.00000657       0.00001135      -0.00000893    -163.12607323
Si       0.00000380      -2.25122928      -3.72932612        0        1        1       0.00000972       0.00002135      -0.00000142    -163.19123479
Si       7.68043171       4.36288416     -13.27406042        0        0        0       0.00001929      -0.00001179       0.00001446    -163.17557278
Si       1.91972277      -1.17976769     -12.47471532        0        0        0       0.00000090      -0.00000906       0.00002387    -163.17959663
Si       1.91831560      -1.17896167     -10.11073687        0        0        0      -0.00000559      -0.00000402       0.00001030    -163.17521049
Si       0.00000000       4.36183077      12.12666360        0        0        0      -0.00000005       0.00000002       0.28481342    -162.40371601
Si       3.83479542      -0.06753843      -9.31152197        0        0        0      -0.00004419       0.00000638       0.00000994    -163.17667074
Si       3.82851172      -0.06075266      -6.94696176        0        0        0       0.00001477      -0.00000459      -0.00000242    -163.17679099
Si       3.83931030       4.36183077      12.12666360        0        0        0      -0.00000005       0.00000002       0.28481342    -162.40371601
Si      -1.94672444      -3.47648837       0.26026852        1        1        0      -0.00000425      -0.00001416      -0.00001275    -163.13139879
Si      -3.79381626      -4.53091823      -0.74947178        1        1        1       0.00000729      -0.00004005       0.00003381    -163.06966568
Si       0.00000036      -4.50298814     -12.48201988        0        0        0      -0.00001625       0.00001783      -0.00000887    -163.17691230
Si      -0.00000019      -4.50076939     -10.12147381        0        0        0       0.00000912       0.00002740      -0.00000249    -163.17335500
Si       5.75896545       1.03689052      12.12666360        0        0        0       0.00000006      -0.00000005       0.28481344    -162.40371600
Si       5.75897698       3.25350313       2.26260814        0        0        0      -0.00002125       0.00000843       0.00000649    -162.19070381
Si       4.53678178      -0.05935786       2.58874130        0        0        0       0.00001191      -0.00001319       0.00001711    -162.97240522
Si       0.00000483      -0.07140764      -0.18586598        0        0        0      -0.00002748      -0.00001206      -0.00001941    -162.57552658
Si       1.91402813      -3.39439593      -9.31152595        0        0        0      -0.00001478       0.00001431       0.00000741    -163.17667139
Si      -2.00159775      -1.22703147      -0.45924818        1        1        1       0.00001805      -0.00002480       0.00000819    -163.08555725
Si      -5.75895861      -3.39633707      -0.14573271        1        1        0      -0.00001650      -0.00002685      -0.00000734    -163.31686674
Si      -7.72410498      -4.53091658      -0.74946916        1        1        1       0.00002211      -0.00001672      -0.00000828    -163.06966529
Si       1.90500948      -3.39235602      -6.94696627        0        0        0       0.00003539       0.00001262       0.00000606    -163.17678978
Si       3.82827943      -2.28168854      -6.17195298        0        0        0      -0.00000472       0.00002232      -0.00000370    -163.17098397
Si       5.75896800       1.04751091      -6.17418278        0        0        0      -0.00001114      -0.00000278      -0.00000173    -163.16873962
Si      -3.83931030      -4.50467658      12.91035953        0        0        0       0.00000005       0.00000004      -0.48587761    -162.72375004
Si      -5.75896180      -1.12718463      -0.74947453        1        1        1       0.00003214      -0.00001946       0.00001143    -163.06966413
Si      -3.83931030      -4.50467658      15.26144733        0        0        0      -0.00004288       0.00002497       0.19777422    -163.16761169
Si      -3.83948461      -4.50456886     -12.46895169        0        0        0      -0.00001589       0.00001294      -0.00001696    -163.17994760
Si      -3.83790292      -4.50548932     -10.10263487        0        0        0       0.00003958      -0.00000054       0.00000022    -163.18088276
Si      -1.91402522      -3.39439479      -9.31152376        0        0        0      -0.00001835       0.00001009       0.00000820    -163.17667109
Si      -1.90500768      -3.39235372      -6.94696316        0        0        0      -0.00000192       0.00000474      -0.00001947    -163.17678878
Si       0.00000331      -2.27369273      -6.11158692        0        0        0      -0.00001348       0.00001778       0.00000429    -163.18462897
Si       7.67862060       4.36183077      12.12666360        0        0        0      -0.00000005       0.00000002       0.28481342    -162.40371601
Si      -1.91965516      -3.39636316      16.04514326        0        0        0      -0.00002042       0.00061483      -0.12310471    -163.17525269
Si      -7.67862060      -4.50467658      12.91035953        0        0        0       0.00000005       0.00000004      -0.48587761    -162.72375004
Si       5.75896622       3.25353635      -0.05824564        0        0        0      -0.00001372      -0.00003054      -0.00000872    -163.30081580
Si       3.79545512       2.11989825      -0.64331252        0        0        1       0.00002448      -0.00001954       0.00003722    -163.10416278
Si       3.92225607      -0.05478691       0.26026480        0        0        0      -0.00001505       0.00001125      -0.00001660    -163.13140127
Si      -7.67862060      -4.50467658      15.26144733        0        0        0       0.00004300       0.00002513       0.19777448    -163.16761169
Si      -5.75896545      -3.39636316      16.04514326        0        0        0       0.00000071       0.00000179      -0.12316125    -163.17520563
Si      -5.75896545      -3.39636316     -16.42191709        0        0        0      -0.00000142      -0.00000128       0.01458844    -163.17354929
Si      -3.83931030      -2.28804974     -15.63822115        0        0        0      -0.00309341      -0.00178741       0.12681580    -163.17887709
Si      -3.84017663      -2.28854588     -13.27143729        0        0        0       0.00000151      -0.00001186       0.00000132    -163.17531223
Si      -3.82785048      -4.51129435      -3.08455852        1        1        1      -0.00000109       0.00001084      -0.00002106    -163.16074460
Si      -1.91971767      -1.17976555     -12.47470924        0        0        0      -0.00003196      -0.00002108      -0.00000743    -163.17959623
Si      -1.91831283      -1.17895974     -10.11073247        0        0        0       0.00003840      -0.00000721       0.00000629    -163.17521075
Si       0.00000417      -0.07142473      -9.30845320        0        0        0      -0.00002145       0.00000555      -0.00000026    -163.18290241
Si       0.00000062      -0.07142850      -6.94151961        0        0        0       0.00001915       0.00000096       0.00001467    -163.16544167
Si      -1.94116583      -1.19216210      -2.87952331        1        1        1      -0.00001549      -0.00000170       0.00000073    -163.12607537
Si      -3.81904350      -2.27635784      -3.81773006        1        1        1      -0.00000501       0.00002568      -0.00000532    -163.17681910
Si      -7.69007261      -4.51129200      -3.08455745        1        1        1      -0.00000484       0.00001415      -0.00000975    -163.16074515
Si       1.90721677       1.02970366      -6.11158349        0        0        0      -0.00001223      -0.00000120      -0.00002130    -163.18462960
Si      -3.83931030      -2.28804974      12.12666360        0        0        0       0.00000000      -0.00000007       0.28481343    -162.40371601
Si       7.65995151       4.35104563      -3.81710587        0        0        1      -0.00003010      -0.00002982       0.00001584    -163.16944323
Si      -1.91965516      -1.17973632      12.91035953        0        0        0       0.00000005       0.00000004      -0.48587761    -162.72375004
Si       5.75897049       1.05845251      -3.81711534        0        0        1      -0.00001624       0.00001086       0.00004225    -163.16944109
Si      -1.91965516      -1.17973632      15.26144733        0        0        0       0.00004331       0.00002505       0.19753954    -163.16761169
Si      -5.75896085      -1.16650928      -3.08456388        1        1        1       0.00000640       0.00000558      -0.00001006    -163.16074257
Si      -0.00000000      -0.07142291      16.04514326        0        0        0       0.00000051       0.00000155      -0.12291104    -163.17532130
Si      -0.00000000      -0.07142291     -16.42191709        0        0        0      -0.00000069      -0.00000167       0.00855738    -163.17321068
Si       3.85798676       4.35104468      -3.81710853        0        0        1       0.00003383      -0.00001626       0.00003595    -163.16944236
Si       3.81836604       2.13310432      -3.00203056        0        0        1       0.00000085       0.00001447       0.00001726    -163.17336143
Si       1.88776460       1.01847269      -3.72932344        0        0        1      -0.00001359      -0.00000368       0.00000195    -163.19123553
Si       1.91965515       1.03689052     -15.63822115        0        0        0      -0.00573616      -0.00330576       0.09979076    -163.17715645
Si      -3.83784988       2.14437066     -12.48201827        0        0        0      -0.00000848      -0.00002206      -0.00000738    -163.17691222
Si      -3.83592694       2.14324998     -10.12147092        0        0        0       0.00004297      -0.00001187      -0.00001313    -163.17335475
Si      -1.92076265       3.24765636      -9.31152424        0        0        0      -0.00000282      -0.00000437       0.00001308    -163.17667213
Si      -1.92349790       3.23882045      -6.94696520        0        0        0       0.00000340       0.00000324       0.00000887    -163.17678970
Si       0.00000198       4.34908846      -6.17195288        0        0        0      -0.00001743      -0.00000105       0.00000427    -163.17098409
Si      -7.67844344      -4.50457033     -12.46895236        0        0        0       0.00000739       0.00001511       0.00000246    -163.17994760
Si      -7.68002880      -4.50549190     -10.10263393        0        0        0       0.00001152       0.00000505      -0.00001518    -163.18088151
Si       0.00001032       4.48454880       3.31593468        1        0        0       0.00001107       0.00003821       0.00002534    -162.67296689
Si      -2.27883890       3.85149150       2.58874240        1        0        0      -0.00003110      -0.00000630      -0.00001280    -162.97241211
Si      -5.75896448      -3.39636074      -9.30630710        0        0        0      -0.00002062      -0.00001375      -0.00002127    -163.17305973
Si      -5.75896516      -3.39636887      -6.94279736        0        0        0       0.00001166       0.00001680      -0.00000609    -163.18715185
Si      -3.82827669      -2.28168838      -6.17195465        0        0        0      -0.00002252       0.00002389      -0.00001153    -163.17098370
Si       1.91797881       1.03592925     -13.27494302        0        0        0      -0.00000036      -0.00001127      -0.00001662    -163.17335962
Si      -3.95484270       2.21189861       3.39575956        1        0        0       0.00000231       0.00000247      -0.00001967    -162.60897107
Si       0.00000785      -4.63811149       3.39577157        0        1        0       0.00001222       0.00002059      -0.00003378    -162.60897210
Si       3.83785468       2.14436744     -12.48201410        0        0        0      -0.00001469      -0.00000436      -0.00001810    -163.17691299
Si       3.83592617       2.14324501     -10.12146656        0        0        0       0.00000565       0.00001392      -0.00002623    -163.17335454
Si       5.75896672       3.25351747      -9.34116552        0        0        0      -0.00002520       0.00000063       0.00000478    -163.17034494
Si       5.75896483       3.25351971      -6.98570454        0        0        0       0.00002540      -0.00002007      -0.00001275    -163.16185075
Si       7.66942857       4.35651441      -6.17417621        0        0        0      -0.00003365       0.00000592       0.00000348    -163.16873995
Si      -1.91965516       1.03689052      12.12666360        0        0        0       0.00000005      -0.00000005       0.28481344    -162.40371601
Si      -5.75896300      -1.17993347     -12.46896059        0        0        0      -0.00000779      -0.00001695       0.00000938    -163.17994792
Si      -5.75896577      -1.17810905     -10.10264469        0        0        0       0.00002868      -0.00000424       0.00003337    -163.18088050
Si      -3.83479193      -0.06753461      -9.31152671        0        0        0      -0.00000190      -0.00000108       0.00001796    -163.17667071
Si      -3.82851102      -0.06075375      -6.94696664        0        0        0      -0.00000175       0.00000291      -0.00000039    -163.17679073
Si      -1.90721601       1.02970163      -6.11158748        0        0        0       0.00000030       0.00001298       0.00000740    -163.18462961
Si       0.00000000       2.14520394      12.91035953        0        0        0      -0.00000005      -0.00000002      -0.48587759    -162.72375004
Si      -5.75896545      -1.17973632      12.91035953        0        0        0      -0.00000006       0.00000004      -0.48587761    -162.72375004
Si      -5.75896545      -1.17973632      15.26144733        0        0        0       0.00000002      -0.00004942       0.19777428    -163.16761169
Si       1.97552466       3.31705378       0.26025874        1        0        0      -0.00000545       0.00000445      -0.00001596    -163.13139911
Si       0.00000186       2.23984035      -0.45924507        1        0        1       0.00000966       0.00000493      -0.00000169    -163.08556046
Si      -3.83931030      -0.07142291      16.04514326        0        0        0       0.00052173      -0.00032387      -0.12310478    -163.17525268
Si       3.94561534      -2.34943866       3.31594075        0        1        0       0.00002253       0.00001039       0.00002228    -162.67296410
Si       2.25793250      -4.00643847       2.58875046        0        1        0      -0.00000528       0.00001433      -0.00003110    -162.97240207
Si      -3.83931030      -0.07142291     -16.42191709        0        0        0      -0.00071722       0.00018970       0.01541049    -163.17394224
Si      -1.97551813       3.31705857       0.26025599        1        0        0      -0.00000084      -0.00003899       0.00002080    -163.13139790
Si      -3.79545391       2.11990049      -0.64330535        1        0        1       0.00001678      -0.00000078      -0.00000559    -163.10416139
Si      -3.92224568      -0.05478247       0.26026669        1        0        0      -0.00003773      -0.00003355      -0.00000067    -163.13140091
Si      -1.91965516       1.03689052     -15.63822115        0        0        0       0.00574135      -0.00331041       0.09979226    -163.17715654
Si      -1.91797465       1.03592871     -13.27494282        0        0        0       0.00000227       0.00000097      -0.00001813    -163.17336000
Si       0.00000217       2.14528840     -12.47471346        0        0        0      -0.00000439      -0.00000122       0.00001817    -163.17959534
Si       0.00000044       2.14365281     -10.11073435        0        0        0       0.00001921      -0.00001105      -0.00000866    -163.17521017
Si       1.92076616       3.24765829      -9.31152624        0        0        0      -0.00003618      -0.00001242       0.00002970    -163.17667213
Si       1.92349865       3.23882093      -6.94696591        0        0        0       0.00003094       0.00000914       0.00000584    -163.17678958
Si       3.84850542       4.35651649      -6.17417646        0        0        0       0.00000200      -0.00000486      -0.00000954    -163.16873928
Si       0.00000000       2.14520394      15.26144733        0        0        0       0.00000002      -0.00004964       0.19753927    -163.16761169
Si      -3.83931030       2.14520394      12.91035953        0        0        0      -0.00000005      -0.00000002      -0.48587759    -162.72375004
Si      -3.83931030       2.14520394      15.26144733        0        0        0       0.00004578      -0.00002622       0.19776305    -163.16761169
Si      -1.91965516       3.25351735      16.04514326        0        0        0       0.00054284      -0.00028732      -0.12310466    -163.17525269
Si      -1.91965516       3.25351735     -16.42191709        0        0        0      -0.00052443       0.00052349       0.01541053    -163.17394222
Si      -0.00000000      -4.50467658      12.91035953        0        0        0       0.00000005       0.00000004      -0.48587761    -162.72375004
Si      -0.00000000      -4.50467658      15.26144733        0        0        0      -0.00000002       0.00005313       0.19776278    -163.16761169
Si       1.91965515      -3.39636316      16.04514326        0        0        0       0.00002077       0.00061577      -0.12310484    -163.17525268
Si       1.91965515      -3.39636316     -16.42191709        0        0        0       0.00019370      -0.00071728       0.01540830    -163.17394223
Si       3.83931030      -2.28804974     -15.63822115        0        0        0       0.00310027      -0.00179047       0.12682116    -163.17887648
Si       1.94673565      -3.47649313       0.26027258        0        1        0       0.00000656       0.00001162       0.00001206    -163.13139811
Si       0.00000284       4.33843093      -3.81772523        1        0        1       0.00000184      -0.00001523      -0.00002597    -163.17682298
Si       0.00000198       2.17004390      -2.87951699        1        0        1      -0.00000781       0.00000122      -0.00003882    -163.12606891
Si      -1.88776273       1.01847281      -3.72932500        1        0        1       0.00003540       0.00000876      -0.00000956    -163.19123589
Si       0.00000733      -4.45401770      -0.64330753        0        1        1      -0.00003157      -0.00001902       0.00000915    -163.10415935
Si       3.84018149      -2.28854749     -13.27143648        0        0        0       0.00000989      -0.00001143      -0.00002100    -163.17531249
Si       0.00000000       4.36183077     -15.63822115        0        0        0       0.00000173       0.00358901       0.12680921    -163.17887721
Si       0.00000142       4.36284450     -13.27143804        0        0        0       0.00000239      -0.00000976       0.00000705    -163.17531246
Si       1.91965515       3.25351735      16.04514326        0        0        0      -0.00054268      -0.00028747      -0.12310459    -163.17525271
Si      -3.81836089       2.13310441      -3.00202460        1        0        1       0.00001015       0.00003511       0.00001148    -163.17336203
Si       2.00160217      -1.22703550      -0.45924158        0        1        1       0.00002842      -0.00002190      -0.00000153    -163.08555662
Si       1.91965515       3.25351735     -16.42191709        0        0        0       0.00052418       0.00052332       0.01540699    -163.17394170
Si       3.83931030       4.36183077     -15.63822115        0        0        0      -0.00717852       0.00414424       0.10736979    -163.17711395
Si      -0.00000000      -2.28804974      12.12666360        0        0        0      -0.00000005      -0.00000004       0.28481345    -162.40371600
Si       1.91965515      -1.17973632      12.91035953        0        0        0       0.00000005       0.00000004      -0.48587761    -162.72375004
Si       1.91965515      -1.17973632      15.26144733        0        0        0      -0.00004309       0.00002509       0.19753934    -163.16761169
Si       3.83931030      -0.07142291      16.04514326        0        0        0      -0.00052109      -0.00032427      -0.12310491    -163.17525267
Si       3.83931030      -0.07142291     -16.42191709        0        0        0       0.00071638       0.00018963       0.01541021    -163.17394246
Si       5.75896545       1.03689052     -15.63822115        0        0        0      -0.00000087      -0.00827546       0.10737370    -163.17711335
Si       5.75896672       1.03480743     -13.27406027        0        0        0       0.00001180      -0.00001206       0.00001503    -163.17557311
Si       3.83931030      -2.28804974      12.12666360        0        0        0       0.00000000      -0.00000002       0.28481347    -162.40371600
Si      -5.75895864      -3.39638827       4.59602215        1        1        0      -0.00000073       0.00003619       0.00001360    -162.21908777
Si       3.83749890       4.36288090     -13.27406077        0        0        0       0.00000389      -0.00000335       0.00003614    -163.17557286
Si      -1.91965516      -3.39636316     -16.42191709        0        0        0      -0.00019354      -0.00071604       0.01540738    -163.17394189
Si      -0.00000000      -2.28804974     -15.63822115        0        0        0      -0.00000297       0.00663459       0.09979586    -163.17715629
Si      -2.25791277      -4.00643581       2.58874531        1        1        0      -0.00002288       0.00002423      -0.00001500    -162.97240428
Si      -0.00000036      -2.28610472     -13.27494235        0        0        0       0.00001559      -0.00001331      -0.00002278    -163.17335915
Si      -3.94560433      -2.34944089       3.31593898        1        1        0       0.00001852       0.00002894       0.00002935    -162.67296337
Si      -5.75895828      -3.39638603       2.17147108        1        1        0      -0.00001627       0.00002928       0.00001628    -162.19975924
Si       1.91965515       1.03689052      12.12666360        0        0        0       0.00000005      -0.00000005       0.28481344    -162.40371600
Si       3.83931030       2.14520394      12.91035953        0        0        0      -0.00000005      -0.00000002      -0.48587758    -162.72375004
