160
Lattice="11.416366135837428 -3.6366237767041965e-19 -1.0249762907168404e-19 5.708183062988786 9.886863090614854 1.3515993593894672e-19 1.3324851469110028e-18 -5.511878709211713e-19 34.511122776035094" Properties=species:S:1:pos:R:3:travel:I:3:forces:R:3:energies:R:1 cutoff_factor=1.2 cutoff=-1.0 nneightol=1.2 energy=-915.7411215738413 free_energy=-915.7411215738413 stress="0.0018629891993139746 -2.466220518173174e-07 1.339077688973321e-07 -2.466220518173174e-07 0.0018631614281951188 3.060619746711237e-07 1.339077688973321e-07 3.060619746711237e-07 -0.003724443168293951" pbc="T T T"
Si       3.78300810      -2.25481000      -3.74928959        0        1        1       0.00018292       0.00005932      -0.00000387      -5.85332475
Si      -0.00003141      -4.43239425      -2.97728071        0        1        1      -0.00015936      -0.00025386      -0.00011330      -5.84368512
Si       5.70825481       3.22489344       4.67291848        0        0        0       0.00010479      -0.00009985      -0.00008499      -4.56522647
Si      -4.46772777      -0.05963899       2.55567605        1        1        0       0.00000025       0.00005682      -0.00018502      -5.59802472
Si       3.80545538       2.12628759      15.12687235        0        0        0      -0.00004396      -0.00002911       0.20607357      -5.85881711
Si       5.70818306       3.22482793      15.90365768        0        0        0       0.00001948      -0.00003330       0.15500236      -5.85585665
Si       3.93909021       2.20345789       3.33383676        0        0        0      -0.00023295      -0.00016670      -0.00007687      -5.16756303
Si       2.24359080       3.79286339       2.55575184        0        0        0      -0.00008465      -0.00007744      -0.00015147      -5.59798593
Si       5.70818306       3.22482793     -16.27710912        0        0        0      -0.00001789       0.00003208       0.02083043      -5.84819282
Si       7.61091076       4.32336827     -15.50032379        0        0        0       0.00944396       0.00535908       0.13524860      -5.85923542
Si       1.90558492      -1.17089801      -2.84279430        0        1        1      -0.00011029       0.00010424      -0.00000415      -5.87148587
Si      -0.00005959      -2.22793597      -3.70967531        0        1        1      -0.00002813       0.00025544       0.00024549      -5.83053403
Si       7.61292721       4.32442899     -13.15472553        0        0        0       0.00000495      -0.00011509      -0.00015848      -5.86275693
Si       1.90368822      -1.16996191     -12.36505845        0        0        0      -0.00025695       0.00037376       0.00007089      -5.85529584
Si       1.90336050      -1.16960923     -10.02177006        0        0        0      -0.00010911      -0.00006482       0.00009299      -5.85512877
Si       0.00000000       4.32336827      12.01973105        0        0        0      -0.00000006       0.00000296       0.29784861      -4.94223259
Si       3.80180187      -0.06915331      -9.22532154        0        0        0      -0.00024930       0.00021484       0.00020588      -5.85700018
Si       3.79639062      -0.06455126      -6.88025049        0        0        0      -0.00003271      -0.00000074       0.00028353      -5.85685097
Si       3.80545538       4.32336827      12.01973105        0        0        0      -0.00000414       0.00000244       0.29784176      -4.94223259
Si      -1.93220976      -3.40727391       0.25237843        1        1        0      -0.00000928      -0.00000095       0.00004115      -5.81732367
Si      -3.75121029      -4.49635782      -0.73694642        1        1        1      -0.00028471       0.00007083       0.00002502      -5.84599419
Si       0.00005117      -4.46307356     -12.36837171        0        0        0      -0.00006501       0.00025556       0.00005542      -5.85378810
Si       0.00004040      -4.45998323     -10.02702554        0        0        0      -0.00012793       0.00023833      -0.00000895      -5.85536923
Si       5.70818306       1.02774725      12.01973105        0        0        0       0.00000004      -0.00000472       0.29784182      -4.94223259
Si       5.70826514       3.22491071       2.14825249        0        0        0       0.00009615       0.00002124       0.00065423      -5.37250013
Si       4.46776113      -0.05961338       2.55570010        0        0        0       0.00012203       0.00019274      -0.00014290      -5.59795029
Si      -0.00006079      -0.07091870       0.45572112        0        0        0       0.00000318       0.00029263      -0.00045118      -4.87066281
Si       1.89947859      -3.36392254      -9.22532080        0        0        0      -0.00018197      -0.00003507       0.00021455      -5.85701710
Si      -1.87156771      -1.15140514      -0.43036225        1        1        1      -0.00000335       0.00024357       0.00019128      -5.78049191
Si      -5.70822126      -3.36647940      -0.20770832        1        1        0       0.00019745       0.00014331      -0.00043309      -5.63909809
Si      -7.66521270      -4.49634758      -0.73695328        1        1        1       0.00001823       0.00019163      -0.00003688      -5.84598305
Si       1.89289168      -3.36144015      -6.88024542        0        0        0      -0.00005577      -0.00019809       0.00019871      -5.85685993
Si       3.79077036      -2.25925176      -6.09076475        0        0        0       0.00006936      -0.00011521      -0.00011224      -5.85087419
Si       5.70817337       1.03959061      -6.11740086        0        0        0       0.00006993       0.00015115      -0.00010803      -5.85542528
Si      -3.80545538      -4.46495447      12.79651637        0        0        0       0.00001266      -0.00000739      -0.80251377      -5.64933904
Si      -5.70822083      -1.10671916      -0.73698776        1        1        1      -0.00018106      -0.00006305       0.00014531      -5.84603547
Si      -3.80545538      -4.46495447      15.12687235        0        0        0       0.00012237      -0.00007063       0.20611595      -5.85881709
Si      -3.80646510      -4.46442547     -12.35592274        0        0        0      -0.00004139       0.00004164       0.00000193      -5.85577637
Si      -3.80684353      -4.46408848     -10.00842496        0        0        0       0.00022327      -0.00006859       0.00018976      -5.85810331
Si      -1.89941428      -3.36391528      -9.22531919        0        0        0       0.00006822      -0.00011410       0.00022706      -5.85704268
Si      -1.89294138      -3.36142577      -6.88023253        0        0        0       0.00005580      -0.00030592       0.00014005      -5.85687019
Si      -0.00002379      -2.25160094      -6.06746239        0        0        0       0.00000693       0.00001949       0.00015996      -5.85712788
Si       7.61091076       4.32336827      12.01973105        0        0        0       0.00000397       0.00000243       0.29784180      -4.94223259
Si      -1.90272769      -3.36641413      15.90365768        0        0        0      -0.00030729       0.00056273       0.15519732      -5.85580940
Si      -7.61091076      -4.46495447      12.79651637        0        0        0      -0.00001249      -0.00000746      -0.80251404      -5.64933904
Si       5.70812719       3.22474380      -0.13148691        0        0        0       0.00033928       0.00032542      -0.00074926      -5.63880294
Si       3.74678957       2.09237424      -0.63918433        0        0        1      -0.00007501       0.00012118      -0.00003438      -5.85082238
Si       3.85544680      -0.07598314       0.25238882        0        0        0       0.00049505       0.00024673       0.00000967      -5.81730711
Si      -7.61091076      -4.46495447      15.12687235        0        0        0      -0.00012003      -0.00006966       0.20611542      -5.85881710
Si      -5.70818306      -3.36641413      15.90365768        0        0        0       0.00002195      -0.00001810       0.15497311      -5.85580540
Si      -5.70818306      -3.36641413     -16.27710912        0        0        0      -0.00001979       0.00001008       0.00914366      -5.84867117
Si      -3.80545538      -2.26787378     -15.50032379        0        0        0      -0.00670604      -0.00404733       0.14062719      -5.85891157
Si      -3.80692219      -2.26889886     -13.15394153        0        0        0       0.00001455       0.00021074       0.00027963      -5.86134909
Si      -3.78361514      -4.47742263      -3.04555214        1        1        1      -0.00015528      -0.00016019      -0.00032215      -5.80400601
Si      -1.90350238      -1.16993770     -12.36504645        0        0        0      -0.00006376       0.00033732      -0.00002059      -5.85530447
Si      -1.90323265      -1.16959223     -10.02175807        0        0        0       0.00012262      -0.00013704       0.00003047      -5.85511944
Si       0.00006906      -0.07071608      -9.23417631        0        0        0      -0.00011989      -0.00008206      -0.00017207      -5.85483306
Si      -0.00001563      -0.07061680      -6.89098879        0        0        0       0.00012959      -0.00011243      -0.00019132      -5.84318066
Si      -1.90572051      -1.17087623      -2.84282437        1        1        1       0.00016566       0.00000618      -0.00028875      -5.87149369
Si      -3.78317171      -2.25478865      -3.74928894        1        1        1       0.00018670      -0.00015138       0.00003877      -5.85334697
Si      -7.63282208      -4.47742286      -3.04556747        1        1        1      -0.00018587      -0.00030722      -0.00012964      -5.80400266
Si       1.88878816       1.01984937      -6.06744467        0        0        0      -0.00018841      -0.00005515       0.00006095      -5.85713902
Si      -3.80545538      -2.26787378      12.01973105        0        0        0      -0.00000256      -0.00000151       0.29784868      -4.94223259
Si       7.58808152       4.31038889      -3.78092845        0        0        1       0.00019295      -0.00002596       0.00014843      -5.85892703
Si      -1.90272769      -1.16933344      12.79651637        0        0        0      -0.00002638      -0.00001506      -0.80249747      -5.64933903
Si       5.70811869       1.05421679      -3.78094144        0        0        1       0.00017337       0.00003619       0.00023127      -5.85894509
Si      -1.90272769      -1.16933344      15.12687235        0        0        0       0.00021425       0.00011990       0.20580734      -5.85881710
Si      -5.70826514      -1.14390842      -3.04559101        1        1        1      -0.00001056      -0.00018551      -0.00025230      -5.80401824
Si      -0.00000000      -0.07079310      15.90365768        0        0        0       0.00002115      -0.00002567       0.15582604      -5.85574321
Si      -0.00000000      -0.07079310     -16.27710912        0        0        0      -0.00002139       0.00002884       0.00690314      -5.84997428
Si       3.82819016       4.31039287      -3.78092645        0        0        1       0.00016437      -0.00011772       0.00025040      -5.85892740
Si       3.77734777       2.11025315      -2.97729749        0        0        1       0.00002268      -0.00009137      -0.00000190      -5.84365898
Si       1.86823346       1.00799447      -3.70965142        0        0        1      -0.00023775      -0.00014524       0.00022734      -5.83051835
Si       1.90272768       1.02774725     -15.50032379        0        0        0      -0.00446205      -0.00273516       0.11482537      -5.85860463
Si      -3.80367264       2.12522263     -12.36835713        0        0        0       0.00015472      -0.00009257      -0.00007460      -5.85382036
Si      -3.80113549       2.12387056     -10.02700916        0        0        0       0.00016165      -0.00003714      -0.00017391      -5.85534819
Si      -1.90222314       3.22084650      -9.22532714        0        0        0      -0.00002931      -0.00009283       0.00033017      -5.85701762
Si      -1.90345350       3.21411240      -6.88024221        0        0        0      -0.00020769      -0.00019782       0.00023469      -5.85687372
Si      -0.00000276       4.30661950      -6.09071290        0        0        0       0.00002548      -0.00008317      -0.00023928      -5.85086789
Si      -7.60976555      -4.46440116     -12.35591566        0        0        0      -0.00007799      -0.00007726      -0.00000962      -5.85577929
Si      -7.60946402      -4.46407807     -10.00841950        0        0        0       0.00000974      -0.00001251       0.00009850      -5.85809943
Si       0.00006008       4.48914282       3.26755720        1        0        0       0.00005337      -0.00013831       0.00023610      -5.21184214
Si      -2.24345850       3.79283272       2.55575883        1        0        0      -0.00007095       0.00001107      -0.00027366      -5.59797006
Si      -5.70815196      -3.36635113      -9.20620862        0        0        0       0.00001207      -0.00012911       0.00006551      -5.85741611
Si      -5.70819873      -3.36624935      -6.85611876        0        0        0      -0.00005408      -0.00019118      -0.00001999      -5.87067850
Si      -3.79083966      -2.25923174      -6.09076336        0        0        0       0.00017232      -0.00008526      -0.00013255      -5.85086422
Si       1.90163765       1.02693739     -13.15707803        0        0        0      -0.00016781       0.00025816       0.00007157      -5.86050183
Si      -3.93892381       2.20337855       3.33382602        1        0        0      -0.00023612       0.00027433      -0.00002210      -5.16755890
Si       0.00007861      -4.61904731       3.33385045        0        1        0      -0.00001639      -0.00048279       0.00002541      -5.16757058
Si       3.80385185       2.12516735     -12.36834777        0        0        0      -0.00029339       0.00008774      -0.00008897      -5.85380379
Si       3.80125806       2.12381874     -10.02700197        0        0        0      -0.00024333       0.00016541      -0.00010685      -5.85536097
Si       5.70823528       3.22487993      -9.25696731        0        0        0      -0.00012875       0.00006284      -0.00042998      -5.85230017
Si       5.70817969       3.22500284      -6.92359852        0        0        0      -0.00009730      -0.00019161      -0.00035424      -5.84686051
Si       7.60078896       4.31769787      -6.11738665        0        0        0      -0.00008873      -0.00011163      -0.00012295      -5.85541091
Si      -1.90272769       1.02774725      12.01973105        0        0        0       0.00000266      -0.00000151       0.29786088      -4.94223259
Si      -5.70809184      -1.17074460     -12.35594806        0        0        0      -0.00003442       0.00039556       0.00006496      -5.85578234
Si      -5.70810632      -1.17093995     -10.00845585        0        0        0      -0.00000715      -0.00001662       0.00022102      -5.85809742
Si      -3.80166327      -0.06910370      -9.22533361        0        0        0       0.00000350       0.00006446       0.00021338      -5.85700487
Si      -3.79638017      -0.06452921      -6.88026367        0        0        0      -0.00016452      -0.00001625       0.00035935      -5.85686425
Si      -1.88880799       1.01988452      -6.06745817        0        0        0       0.00022529      -0.00011246       0.00013954      -5.85712919
Si       0.00000000       2.12628759      12.79651637        0        0        0      -0.00000012       0.00003057      -0.80249704      -5.64933903
Si      -5.70818306      -1.16933344      12.79651637        0        0        0      -0.00000002       0.00001478      -0.80251403      -5.64933903
Si      -5.70818306      -1.16933344      15.12687235        0        0        0       0.00000094       0.00013845       0.20611243      -5.85881710
Si       1.92328893       3.27064076       0.25244174        1        0        0       0.00034066       0.00053506      -0.00002434      -5.81729401
Si      -0.00002328       2.09016683      -0.43025325        1        0        1      -0.00010787       0.00004030      -0.00013618      -5.78046998
Si      -3.80545538      -0.07079310      15.90365768        0        0        0       0.00037733      -0.00061619       0.15519346      -5.85580961
Si       3.94900565      -2.35066041       3.26746116        0        1        0       0.00026803      -0.00023411       0.00025030      -5.21193608
Si       2.22429344      -3.94553004       2.55576631        0        1        0       0.00000748       0.00000839      -0.00032462      -5.59797335
Si      -3.80545538      -0.07079310     -16.27710912        0        0        0      -0.00094725       0.00095663       0.01340743      -5.84887870
Si      -1.92333724       3.27066210       0.25240994        1        0        0      -0.00009951       0.00036654       0.00016185      -5.81731383
Si      -3.74685109       2.09239962      -0.63919501        1        0        1      -0.00027019       0.00016929      -0.00002475      -5.85084402
Si      -3.85552708      -0.07597597       0.25233856        1        0        0      -0.00018549       0.00026682       0.00010112      -5.81732154
Si      -1.90272769       1.02774725     -15.50032379        0        0        0       0.00465600      -0.00271362       0.11493184      -5.85860755
Si      -1.90145367       1.02697142     -13.15706628        0        0        0      -0.00000879       0.00017334      -0.00001119      -5.86051793
Si       0.00010839       2.12722305     -12.36505838        0        0        0      -0.00019871      -0.00009952      -0.00002063      -5.85531850
Si       0.00004734       2.12699870     -10.02176668        0        0        0       0.00009524       0.00002583       0.00000843      -5.85510938
Si       1.90233079       3.22082204      -9.22533107        0        0        0      -0.00003428      -0.00005380       0.00039283      -5.85704015
Si       1.90345130       3.21408301      -6.88023259        0        0        0       0.00018249      -0.00016221       0.00015143      -5.85687324
Si       3.81554648       4.31770003      -6.11738107        0        0        0       0.00021742      -0.00011883      -0.00021148      -5.85541371
Si       0.00000000       2.12628759      15.12687235        0        0        0       0.00000046      -0.00024826       0.20580723      -5.85881711
Si      -3.80545538       2.12628759      12.79651637        0        0        0      -0.00002821       0.00001634      -0.80244343      -5.64933903
Si      -3.80545538       2.12628759      15.12687235        0        0        0       0.00004616      -0.00002892       0.20607220      -5.85881711
Si      -1.90272769       3.22482793      15.90365768        0        0        0       0.00069838      -0.00003248       0.15519338      -5.85580983
Si      -1.90272769       3.22482793     -16.27710912        0        0        0      -0.00127323       0.00035381       0.01342342      -5.84887667
Si      -0.00000000      -4.46495447      12.79651637        0        0        0      -0.00000006      -0.00003265      -0.80244362      -5.64933904
Si      -0.00000000      -4.46495447      15.12687235        0        0        0       0.00000249       0.00005074       0.20607208      -5.85881710
Si       1.90272768      -3.36641413      15.90365768        0        0        0       0.00035029       0.00057370       0.15519833      -5.85580912
Si       1.90272768      -3.36641413     -16.27710912        0        0        0      -0.00035512      -0.00124378       0.01338099      -5.84888733
Si       3.80545538      -2.26787378     -15.50032379        0        0        0       0.00689858      -0.00404705       0.14056474      -5.85891255
Si       1.93215000      -3.40728138       0.25242600        0        1        0       0.00025750      -0.00004576      -0.00003113      -5.81732835
Si      -0.00004709       4.29767901      -3.74922528        1        0        1       0.00025862      -0.00014901      -0.00013248      -5.85334108
Si      -0.00005171       2.12977534      -2.84276468        1        0        1       0.00006455      -0.00018386      -0.00013697      -5.87148541
Si      -1.86834713       1.00802859      -3.70966548        1        0        1       0.00043079      -0.00033025       0.00022248      -5.83052114
Si      -0.00002926      -4.39731524      -0.63917411        0        1        1       0.00001951      -0.00027214      -0.00005025      -5.85087227
Si       3.80709638      -2.26889053     -13.15394816        0        0        0      -0.00000676       0.00017313       0.00028064      -5.86132885
Si       0.00000000       4.32336827     -15.50032379        0        0        0       0.00005615       0.00785422       0.14071093      -5.85891320
Si       0.00005763       4.32511935     -13.15393192        0        0        0       0.00002624      -0.00013778       0.00023899      -5.86136145
Si       1.90272768       3.22482793      15.90365768        0        0        0      -0.00067221      -0.00003961       0.15519475      -5.85580980
Si      -3.77745875       2.11026241      -2.97730748        1        0        1      -0.00013783      -0.00019047       0.00007171      -5.84364673
Si       1.87147990      -1.15140043      -0.43028672        0        1        1      -0.00003461       0.00008588      -0.00010016      -5.78048563
Si       1.90272768       3.22482793     -16.27710912        0        0        0       0.00125578       0.00036506       0.01342657      -5.84887844
Si       3.80545538       4.32336827     -15.50032379        0        0        0      -0.00931379       0.00529569       0.13525387      -5.85923396
Si      -0.00000000      -2.26787378      12.01973105        0        0        0      -0.00000009       0.00000301       0.29786100      -4.94223259
Si       1.90272768      -1.16933344      12.79651637        0        0        0       0.00002631      -0.00001497      -0.80249768      -5.64933903
Si       1.90272768      -1.16933344      15.12687235        0        0        0      -0.00021029       0.00012023       0.20580607      -5.85881710
Si       3.80545538      -0.07079310      15.90365768        0        0        0      -0.00032755      -0.00061688       0.15519561      -5.85580935
Si       3.80545538      -0.07079310     -16.27710912        0        0        0       0.00090133       0.00095644       0.01339380      -5.84888305
Si       5.70818306       1.02774725     -15.50032379        0        0        0       0.00009293      -0.01092967       0.13529792      -5.85923634
Si       5.70827585       1.02533438     -13.15472042        0        0        0       0.00001631       0.00035065      -0.00019583      -5.86276577
Si       3.80545538      -2.26787378      12.01973105        0        0        0       0.00000248      -0.00000147       0.29784876      -4.94223259
Si      -5.70810784      -3.36625436       4.61558762        1        1        0      -0.00009416      -0.00031080       0.00070297      -4.57851874
Si       3.80355635       4.32437396     -13.15472520        0        0        0       0.00001663       0.00005583      -0.00010017      -5.86276585
Si      -1.90272769      -3.36641413     -16.27710912        0        0        0       0.00031245      -0.00122860       0.01340201      -5.84888460
Si      -0.00000000      -2.26787378     -15.50032379        0        0        0       0.00008036       0.00520293       0.11469012      -5.85860183
Si      -2.22413923      -3.94552484       2.55572821        1        1        0      -0.00018020       0.00002022      -0.00024751      -5.59798287
Si       0.00007962      -2.26660905     -13.15709286        0        0        0      -0.00007628       0.00019551       0.00015936      -5.86047870
Si      -3.94886762      -2.35068895       3.26744911        1        1        0      -0.00022309       0.00006391       0.00019479      -5.21190423
Si      -5.70810890      -3.36641445       2.06604687        1        1        0      -0.00019805       0.00033990      -0.00009551      -5.44908146
Si       1.90272768       1.02774725      12.01973105        0        0        0      -0.00000258      -0.00000153       0.29786092      -4.94223259
Si       3.80545538       2.12628759      12.79651637        0        0        0       0.00002802       0.00001651      -0.80244349      -5.64933903
