450
Lattice="19.036527492674313 -4.778084756552231e-19 1.0137267821043678e-19 9.518263746337157 16.486116410543598 7.075304367692466e-20 -1.6013149728663706e-18 -4.665778141162885e-19 34.527901263111254" Properties=species:S:1:pos:R:3:travel:I:3:forces:R:3:energies:R:1 cutoff_factor=1.2 nneightol=1.2 energy=-2578.3829349528896 free_energy=-2578.3829349528896 stress="0.0017716037665900266 1.1730271511967392e-07 3.8509273468252474e-08 1.1730271511967392e-07 0.0017736613651778892 -6.781908957377217e-06 3.8509273468252474e-08 -6.781908957377217e-06 -0.003544987607877588" pbc="T T T"
Si      -8.61060551      -5.02394566       9.94215189        1        1        1       0.00001357       0.00012154      -0.00007615      -4.56638907
Si       8.53582992       4.87552646       9.88806850        0        0        1      -0.00017408       0.00009063      -0.00007074      -4.57843267
Si       0.91303631       4.87527810       9.88806585        1        0        1       0.00023164       0.00030621      -0.00036675      -4.57846179
Si      -0.97682811      -5.02373166       9.94200454        0        1        1      -0.00030758      -0.00014281       0.00008514      -4.56639338
Si      -4.79379732       1.58701204       9.94194133        1        0        1       0.00003938      -0.00026829       0.00002556      -4.56642429
Si       4.72443039      -1.72562717       9.88809231        0        1        1       0.00000024      -0.00018651      -0.00031226      -4.57845212
Si      -4.79381353       3.60448017       8.55621535        1        0        1       0.00003046       0.00016027       0.00014817      -5.28291543
Si      12.04611133       4.34816789       7.78880679        0        0        1      -0.00006993       0.00035194      -0.00002329      -5.57212986
Si      -6.60623116       0.64841702       8.58892107        1        0        1      -0.00004791       0.00016351       0.00015802      -5.38617550
Si      10.82859465       2.23090012       7.80135531        0        0        1      -0.00017456      -0.00013687      -0.00011191      -5.69580116
Si      -8.70400950      -2.98507343       8.58902537        1        1        1       0.00008172      -0.00005047       0.00019249      -5.38616775
Si       8.16121942      -2.38914979       7.80148111        0        1        1      -0.00015100       0.00012580      -0.00004905      -5.69578118
Si     -10.35790402      -6.03272776       8.55647485        1        1        1      -0.00000722       0.00009561       0.00013952      -5.28286189
Si     -12.10022713      -4.50218015       7.78902106        1        1        1      -0.00009623       0.00006953      -0.00024474      -5.57205709
Si      10.29105268       5.88894067       8.51513441        0        0        1       0.00006175      -0.00015193      -0.00010574      -5.30241880
Si       8.51256632       4.86219833       7.33059777        0        0        1      -0.00016266       0.00004797       0.00008203      -5.44706238
Si       8.63520455       2.84397939       8.52213096        0        0        1      -0.00015607      -0.00032995       0.00002820      -5.43500452
Si       6.66604267       1.55414926       7.96709191        0        0        1       0.00025778       0.00011949       0.00020575      -5.61348447
Si       6.53365157      -0.79604675       8.52223334        0        1        1      -0.00017810      -0.00014009      -0.00021655      -5.43493866
Si       4.72452328      -1.69892816       7.33057722        0        1        1       0.00003272      -0.00008296       0.00093559      -5.44714230
Si       4.72447562      -3.75248924       8.51525040        0        1        1       0.00004614       0.00040665      -0.00031394      -5.30241818
Si       2.51269528      -4.50205492       7.78884037        0        1        1      -0.00010508      -0.00025254       0.00000512      -5.57217195
Si       9.83437205       8.17930300       7.78894152        0        0        1      -0.00027367       0.00009319      -0.00020127      -5.57200093
Si       6.82609549       5.97752006       8.52223637        0        0        1      -0.00021544      -0.00025089      -0.00004791      -5.43495499
Si       4.72445687       4.91708820       7.96717113        0        0        1       0.00005772       0.00021017       0.00017459      -5.61341558
Si       4.72445075       2.67512273       8.72155867        0        0        1      -0.00006585      -0.00004726       0.00017936      -4.90704084
Si       2.78288819       1.55415522       7.96695953        0        0        1      -0.00019738      -0.00009584       0.00048473      -5.61354747
Si       2.91533507      -0.79603021       8.52210245        0        1        1       0.00018540       0.00014495      -0.00006804      -5.43499054
Si       1.28779932      -2.38904358       7.80125661        0        1        1      -0.00032949      -0.00001515       0.00029081      -5.69582951
Si       0.77036134      -6.03256256       8.55630505        0        1        1       0.00012897      -0.00024050       0.00018135      -5.28288272
Si      -1.02316677      -4.99716362       7.38991547        0        1        1       0.00007274       0.00006984       0.00006952      -5.39896306
Si      -2.12631711      -8.30254945       7.80146567        0        1        1       0.00011752       0.00001143       0.00003132      -5.69577609
Si      -0.88351443      -2.98493351       8.58885198        0        1        1       0.00010222      -0.00017174       0.00012155      -5.38619262
Si      -2.69587981      -6.12418296       8.58900373        0        1        1      -0.00010040       0.00005036       0.00015495      -5.38615129
Si       2.62278016       5.97736679       8.52223184        1        0        1       0.00011648      -0.00020447       0.00016095      -5.43498296
Si       0.93632184       4.86208977       7.33056614        1        0        1      -0.00003223       0.00002562       0.00035139      -5.44709516
Si       0.81365169       2.84381250       8.52201329        1        0        1       0.00037399       0.00010447       0.00021488      -5.43498797
Si      -1.37971676       2.23083328       7.80121589        1        0        1      -0.00007897      -0.00001947       0.00008371      -5.69582035
Si      -2.81896939      -1.68012404       7.98223950        1        1        1      -0.00003323       0.00011981      -0.00007911      -5.57116134
Si      -4.79375317      -5.10069572       7.98235369        1        1        1      -0.00041970       0.00001440       0.00013387      -5.57113445
Si      -7.46129505      -8.30268265       7.80154229        1        1        1      -0.00001655       0.00015303      -0.00026301      -5.69574832
Si      -0.84216354       5.88880235       8.51516621        1        0        1       0.00024270       0.00004748      -0.00012229      -5.30241872
Si      -2.59721301       4.34813618       7.78875936        1        0        1      -0.00004484       0.00007452       0.00002268      -5.57218983
Si      -2.98143301       0.64842204       8.58882335        1        0        1       0.00004361      -0.00001997       0.00019349      -5.38621245
Si      -4.79386649       1.53352062       7.38981438        1        0        1       0.00012171       0.00025571       0.00058027      -5.39898880
Si      -4.79380280      -2.82031095       8.58660191        1        1        1       0.00032287      -0.00019333       0.00026157      -4.94520392
Si      -6.76863026      -1.68013828       7.98234507        1        1        1      -0.00031195       0.00003437      -0.00013693      -5.57111061
Si      -6.89163568      -6.12432061       8.58905245        1        1        1       0.00041471       0.00020603       0.00005125      -5.38613532
Si      -8.56439770      -4.99726972       7.39006037        1        1        1      -0.00015723      -0.00007018      -0.00024742      -5.39895596
Si      -9.90370361      -8.30692681       7.78902573        1        1        1       0.00016335      -0.00009344      -0.00023041      -5.57199967
Si      12.31246231       4.84563451       5.48015985        0        0        0      -0.00013684       0.00020644      -0.00000611      -5.82723474
Si      10.48798250       3.74808834       4.50852135        0        0        0       0.00010927       0.00003040       0.00005730      -5.84812312
Si      10.48059868       1.63823040       5.51400642        0        0        0      -0.00006240       0.00018871       0.00010198      -5.81388399
Si       8.56145643       0.45975941       4.80662966        0        0        0       0.00002068       0.00009848       0.00007210      -5.79872922
Si       8.50047171      -1.79149839       5.51411247        0        1        0      -0.00013567       0.00025399      -0.00006163      -5.81386074
Si       6.67700643      -2.85281799       4.50860696        0        1        0      -0.00006024       0.00002436       0.00007193      -5.84811537
Si       6.63869430      -4.98160033       5.48035861        0        1        0      -0.00002596      -0.00004599      -0.00033903      -5.82722009
Si       4.72446205      -6.16200966       4.79211465        0        1        0       0.00006669      -0.00007377      -0.00018439      -5.78072948
Si       4.72441326      -8.31564967       5.68982659        0        1        0      -0.00002389       0.00008559       0.00005897      -4.88638815
Si      12.37759154       7.09366714       4.79208470        0        0        0       0.00015622       0.00000946      -0.00023483      -5.78072929
Si       8.53701752       4.87630727       5.06082851        0        0        0       0.00008362       0.00031097      -0.00007774      -5.64140866
Si       6.55933696       3.73454284       4.65000210        0        0        0       0.00015092      -0.00008927       0.00000551      -5.81909146
Si       6.64393162       1.56688897       5.56946032        0        0        0       0.00006666       0.00001586       0.00012588      -5.87158526
Si       4.72445076       0.55630395       4.64992254        0        0        0      -0.00002949      -0.00004763       0.00009804      -5.81913585
Si       4.72446485      -1.72730013       5.06083890        0        1        0      -0.00001683       0.00009180      -0.00045201      -5.64138424
Si       2.77193287      -2.85278579       4.50848809        0        1        0       0.00006429       0.00014984       0.00008166      -5.84812109
Si       2.81023803      -4.98155184       5.48021356        0        1        0       0.00003423      -0.00012126      -0.00014197      -5.82720738
Si       0.97676529      -6.15186056       4.60087302        0        1        0      -0.00014402      -0.00000148      -0.00003568      -5.85572184
Si       0.87997067      -8.32484188       5.48026261        0        1        0       0.00004032      -0.00000337      -0.00013594      -5.82722326
Si       8.53546502       7.13005086       4.50861042        0        0        0       0.00007032      -0.00019030       0.00001867      -5.84812751
Si       4.72442418       4.89158563       5.56954308        0        0        0       0.00003365       0.00003723       0.00012659      -5.87155302
Si       2.88949929       3.73456555       4.64997452        0        0        0      -0.00017911      -0.00005986      -0.00011593      -5.81910676
Si       2.80493323       1.56689428       5.56935764        0        0        0       0.00001609       0.00002687       0.00014818      -5.87158704
Si       0.88740671       0.45980406       4.80648535        0        0        0       0.00003514       0.00006507       0.00018550      -5.79872468
Si       0.94846369      -1.79143560       5.51392856        0        1        0      -0.00005793       0.00007394      -0.00000638      -5.81386695
Si      -0.98793783      -2.75379759       4.61436733        0        1        0      -0.00003458      -0.00004695       0.00011209      -5.84393256
Si      -0.98655172      -5.01835773       5.11126225        0        1        0       0.00017945       0.00003532       0.00020908      -5.64112145
Si      -2.94840911      -6.14944677       4.61445872        0        1        0      -0.00004837      -0.00004670       0.00007167      -5.84390333
Si      -2.81365133      -8.30757156       5.51414134        0        1        0       0.00006395       0.00015937      -0.00011546      -5.81386034
Si       4.72444123       7.10577522       4.80675076        0        0        0      -0.00011811       0.00002600       0.00005275      -5.79868618
Si       0.91177966       4.87627872       5.06080731        1        0        0       0.00019230       0.00019147      -0.00009700      -5.64138841
Si      -1.03917681       3.74808736       4.50845930        1        0        0      -0.00004406      -0.00000349       0.00001608      -5.84812197
Si      -1.03176112       1.63821777       5.51388097        1        0        0      -0.00000465       0.00006763       0.00004273      -5.81388914
Si      -2.83337874       0.44244319       4.61429514        1        0        0      -0.00007645      -0.00005412       0.00016803      -5.84392431
Si      -2.87494094      -1.71243431       5.55714995        1        1        0       0.00009041       0.00028021       0.00026827      -5.84269408
Si      -4.79383289      -2.82031401       4.75612132        1        1        0      -0.00000566       0.00015887       0.00012559      -5.86253397
Si      -4.79379769      -5.03603768       5.55727913        1        1        0      -0.00012585      -0.00007118       0.00005572      -5.84266597
Si      -6.63920766      -6.14950354       4.61450711        1        1        0      -0.00003458       0.00027220       0.00026098      -5.84391391
Si      -6.77401601      -8.30762502       5.51417732        1        1        0       0.00000822       0.00001144      -0.00001477      -5.81388527
Si       0.91337332       7.13001431       4.50864408        1        0        0       0.00003824      -0.00009375      -0.00002995      -5.84810699
Si      -2.86362955       4.84563238       5.48013812        1        0        0       0.00015756       0.00011804       0.00004954      -5.82722087
Si      -4.79384890       3.84295788       4.60076861        1        0        0      -0.00002205      -0.00003884       0.00009190      -5.85571385
Si      -4.79384593       1.57592648       5.11119560        1        0        0      -0.00007213       0.00007917      -0.00010149      -5.64112299
Si      -6.75433925       0.44243383       4.61440163        1        0        0       0.00035402       0.00008495      -0.00001684      -5.84389249
Si      -6.71269908      -1.71243445       5.55726177        1        1        0      -0.00007337       0.00014995       0.00003589      -5.84269165
Si      -8.59969000      -2.75381765       4.61447026        1        1        0       0.00020136      -0.00015554       0.00016597      -5.84391203
Si      -8.60105479      -5.01838408       5.11138112        1        1        0      -0.00002838      -0.00003434       0.00028260      -5.64116912
Si     -10.56436312      -6.15189995       4.60098326        1        1        0      -0.00001818       0.00006447      -0.00006413      -5.85571630
Si     -10.46762628      -8.32489710       5.48035013        1        1        0      -0.00009322       0.00010098      -0.00016278      -5.82721662
Si      -2.92875038       7.09366478       4.79213357        1        0        0      -0.00003032       0.00012546      -0.00040220      -5.78071734
Si      10.45128522       3.75743250       2.20098844        0        0        0      -0.00024755       0.00002770       0.00012261      -5.80255115
Si       8.51103931       2.64888957       1.53231197        0        0        0      -0.00004954      -0.00007239       0.00004702      -5.86131264
Si       8.54301626       0.47050885       2.40701619        0        0        0      -0.00008504       0.00007252       0.00030585      -5.86914522
Si       6.64053058      -0.59099310       1.53231222        0        1        0       0.00012958       0.00011425      -0.00003702      -5.86131379
Si       6.65061801      -2.82556532       2.20106547        0        1        0      -0.00014836       0.00024909       0.00005474      -5.80255392
Si       4.72446571      -3.93930201       1.49737370        0        1        0       0.00005669       0.00017083      -0.00015597      -5.85548975
Si       4.72445879      -6.11471342       2.38778752        0        1        0      -0.00002455       0.00019393      -0.00011450      -5.87333442
Si       2.85458029      -7.23597788       1.52631220        0        1        0      -0.00016636       0.00014447       0.00015405      -5.83261850
Si      12.33670432       7.07012944       2.38777246        0        0        0      -0.00020103      -0.00005267      -0.00009985      -5.87334970
Si      10.45272064       5.98244839       1.49741141        0        0        0      -0.00022341      -0.00000852      -0.00012219      -5.85550930
Si       6.58992527       3.75225971       2.29977199        0        0        0      -0.00003191      -0.00009179      -0.00018775      -5.84892395
Si       4.72442793       2.67520340       1.42902415        0        0        0      -0.00009467       0.00014775      -0.00018076      -5.81678484
Si       4.72443684       0.52107465       2.29969911        0        0        0      -0.00003257       0.00005259      -0.00008274      -5.84892110
Si       2.80835804      -0.59098843       1.53221802        0        1        0      -0.00004000       0.00019655       0.00003563      -5.86132415
Si       2.79829966      -2.82555320       2.20096361        0        1        0      -0.00000764       0.00019564       0.00001949      -5.80255874
Si       0.89206489      -3.93108724       1.47095778        0        1        0       0.00004632      -0.00003325       0.00002007      -5.86211298
Si       0.94683886      -6.13454566       2.26444043        0        1        0       0.00015588      -0.00008229       0.00000654      -5.84338866
Si      -0.98880866      -7.18882481       1.47099906        0        1        0       0.00001498       0.00014059       0.00001050      -5.86211700
Si       8.52509711       7.09369808       2.20107474        0        0        0       0.00006564      -0.00027966      -0.00008105      -5.80257485
Si       6.59493078       5.96769852       1.53237337        0        0        0      -0.00001746      -0.00003358       0.00000649      -5.86130562
Si       2.85890715       3.75226437       2.29973993        0        0        0       0.00014369      -0.00015703      -0.00014036      -5.84894029
Si       0.90586543       0.47051656       2.40690307        0        0        0      -0.00001444       0.00000794       0.00024946      -5.86915059
Si      -0.99031385      -2.78628598       2.27557617        0        1        0      -0.00013593      -0.00003137       0.00000590      -5.84747463
Si      -2.92143040      -6.13104732       2.27565782        0        1        0       0.00007608      -0.00000038      -0.00004233      -5.84745737
Si       4.72441584       7.08452806       2.40714963        0        0        0       0.00005389      -0.00009816      -0.00004166      -5.86912807
Si       0.93780034       2.64889396       1.53223812        1        0        0       0.00025925      -0.00007444       0.00003274      -5.86130422
Si      -0.95754380      -0.60531257       1.47182226        1        1        0      -0.00014885       0.00000767       0.00013365      -5.82333797
Si      -2.90375403      -3.91141492       1.53262881        1        1        0      -0.00009598       0.00016056      -0.00020256      -5.86378061
Si      -4.79382266      -7.24994568       1.47198941        1        1        0      -0.00004382       0.00028892      -0.00007642      -5.82330904
Si       2.85389612       5.96770346       1.53236735        1        0        0       0.00003719      -0.00001442       0.00000049      -5.86130779
Si      -1.00244151       3.75740642       2.20093127        1        0        0       0.00002979      -0.00000567       0.00014547      -5.80255654
Si      -2.91300080       2.65936818       1.47089083        1        0        0       0.00022690       0.00005548       0.00000657      -5.86210660
Si      -2.86274933       0.45675897       2.27550128        1        0        0      -0.00003674      -0.00009746       0.00011530      -5.84746057
Si      -4.79385613      -0.63776433       1.53255966        1        1        0       0.00007426       0.00000465      -0.00003596      -5.86377832
Si      -4.79382130      -2.82021059       2.37875509        1        1        0      -0.00003675       0.00003485      -0.00003698      -5.84044064
Si      -6.68389029      -3.91143050       1.53267494        1        1        0       0.00010592       0.00003076      -0.00024984      -5.86378336
Si      -6.66621259      -6.13107758       2.27570819        1        1        0      -0.00007478       0.00010156      -0.00015867      -5.84746375
Si      -8.59884548      -7.18884741       1.47106006        1        1        0       0.00002695       0.00014919      -0.00008554      -5.86211245
Si       0.92372226       7.09366718       2.20110591        1        0        0       0.00012622      -0.00020145      -0.00010576      -5.80257240
Si      -1.00387050       5.98241759       1.49739462        1        0        0       0.00004147       0.00012896      -0.00016010      -5.85550159
Si      -4.79383118       3.80852546       2.26436243        1        0        0      -0.00014104       0.00014939       0.00004915      -5.84336789
Si      -6.67470706       2.65938378       1.47094643        1        0        0       0.00007594      -0.00007538      -0.00006884      -5.86212287
Si      -6.72492867       0.45676663       2.27559778        1        0        0      -0.00001701       0.00000050      -0.00000780      -5.84745775
Si      -8.63011554      -0.60531383       1.47191345        1        1        0       0.00018225      -0.00005159       0.00007559      -5.82332850
Si      -8.59730538      -2.78629518       2.27567115        1        1        0      -0.00007397      -0.00002690      -0.00011743      -5.84748655
Si     -10.47970155      -3.93109356       1.47104730        1        1        0       0.00022949      -0.00006085      -0.00015973      -5.86211090
Si     -10.53446011      -6.13455386       2.26453880        1        1        0      -0.00030594      -0.00009790      -0.00008969      -5.84339738
Si     -12.44219442      -7.23598178       1.52634403        1        1        0       0.00025633       0.00014187       0.00007343      -5.83262165
Si      -2.88783172       7.07012299       2.38780460        1        0        0       0.00018944      -0.00009058      -0.00016624      -5.87336845
Si      -4.79382819       6.01141922       1.52632292        1        0        0       0.00005998      -0.00000514       0.00009165      -5.83261938
Si      -0.98651146      -0.62150222     -17.24422040        0        0        0      -0.00000124      -0.00000069       0.30309796      -4.94119994
Si       0.91714128       0.47757220     -16.46705742        0        0        0       0.00001937       0.00001142      -0.79596201      -5.65019421
Si       0.91714128       0.47757220     -14.13556848        0        0        0      -0.00011177      -0.00006783       0.20557299      -5.85914035
Si       2.82079404       1.57664663     -13.35840550        0        0        0      -0.00024251      -0.00018481       0.15557037      -5.85613330
Si       2.82079404       1.57664663     -11.02691656        0        0        0       0.00109571       0.00067255       0.01485281      -5.84921390
Si       4.72444678       2.67572106     -10.24975357        0        0        0       0.00000426      -0.00021325       0.14591869      -5.85986846
Si       4.72444422       2.67555107      -7.90172655        0        0        0      -0.00001841      -0.00006301       0.00013044      -5.86484088
Si       6.63005449       3.77574522      -7.11240347        0        0        0       0.00001166       0.00003827      -0.00003176      -5.85486094
Si       6.63276938       3.77723026      -4.76806065        0        0        0       0.00011124      -0.00002485       0.00002845      -5.85685050
Si       8.53047998       4.87285772      -3.95347487        0        0        0       0.00018201       0.00007356       0.00005834      -5.86015878
Si       8.52933384       4.87208360      -1.59987244        0        0        0      -0.00004733      -0.00000328       0.00002894      -5.86591192
Si      10.44905482       5.98042168      -0.84313643        0        0        0       0.00011698       0.00008281      -0.00038330      -5.85242682
Si       0.91714128       2.67572106     -17.24422040        0        0        0      -0.00000122       0.00000547       0.30309092      -4.94119995
Si       2.82079404       3.77479549     -16.46705742        0        0        0       0.00002892      -0.00001676      -0.79597091      -5.65019420
Si       2.82079404       3.77479549     -14.13556848        0        0        0      -0.00007649       0.00004133       0.20592118      -5.85914035
Si       4.72444678       4.87386991     -13.35840550        0        0        0      -0.00000329       0.00023460       0.15557059      -5.85613311
Si       4.72444678       4.87386991     -11.02691656        0        0        0      -0.00000173      -0.00122854       0.01483447      -5.84921461
Si       6.62809954       5.97294434     -10.24975357        0        0        0       0.00722095      -0.00048024       0.11576393      -5.85882328
Si       6.62957424       5.97286125      -7.90514918        0        0        0       0.00012990       0.00004800       0.00008001      -5.86090077
Si       8.53302098       7.06985390      -7.10943782        0        0        0      -0.00000896       0.00006044       0.00004681      -5.85579413
Si       8.53555266       7.06657844      -4.76334264        0        0        0      -0.00001986       0.00001000      -0.00002037      -5.85605559
Si      10.43839713       8.17279712      -3.97657569        0        0        0      -0.00000065       0.00005619       0.00002790      -5.85732184
Si      10.44240978       8.17773800      -1.63176671        0        0        0       0.00000522       0.00005804       0.00002682      -5.85804842
Si      12.35303705       9.26167145      -0.82784686        0        0        0      -0.00015180       0.00003153      -0.00003796      -5.85587941
Si       2.82079404       5.97294434     -17.24422040        0        0        0      -0.00000536      -0.00000155       0.30309089      -4.94119995
Si       4.72444678       7.07201876     -16.46705742        0        0        0       0.00000002      -0.00002208      -0.79596225      -5.65019421
Si       4.72444678       7.07201876     -14.13556848        0        0        0       0.00000008       0.00012545       0.20557066      -5.85914035
Si       6.62809954       8.17109320     -13.35840550        0        0        0      -0.00012623      -0.00013306       0.15591252      -5.85608960
Si       6.62809954       8.17109320     -11.02691656        0        0        0       0.00094621       0.00019754       0.01083326      -5.84999268
Si       8.53175228       9.27016763     -10.24975357        0        0        0      -0.00102349      -0.00532187       0.13389473      -5.85937002
Si       8.53138582       9.26863163      -7.90307427        0        0        0       0.00015419      -0.00004321       0.00008468      -5.86293721
Si      10.43503493      10.36925776      -7.11346529        0        0        0       0.00005454       0.00001664       0.00014759      -5.85456997
Si      10.43372874      10.36993708      -4.76963065        0        0        0       0.00006383      -0.00008738      -0.00009459      -5.85701024
Si      12.33883717      11.46443375      -3.97657476        0        0        0      -0.00001211      -0.00007554       0.00000373      -5.85732964
Si      12.33645262      11.45829796      -1.63176854        0        0        0      -0.00001228      -0.00000485      -0.00007672      -5.85804255
Si      14.24273558      12.55114184      -0.84318173        0        0        0      -0.00002308      -0.00004355      -0.00022954      -5.85242598
Si       4.72444678       9.27016763     -17.24422040        0        0        0       0.00000008       0.00000149       0.30309802      -4.94119995
Si       6.62809954      10.36924205     -16.46705742        0        0        0       0.00002276       0.00001145      -0.79597996      -5.65019420
Si       6.62809954      10.36924205     -14.13556848        0        0        0      -0.00012639      -0.00009463       0.20584787      -5.85914034
Si       8.53175228      11.46831648     -13.35840550        0        0        0       0.00032967      -0.00023781       0.15541005      -5.85614344
Si       8.53175228      11.46831648     -11.02691656        0        0        0      -0.00023516       0.00017520       0.01495263      -5.84897385
Si      10.43540504      12.56739090     -10.24975357        0        0        0       0.00391033       0.00317128       0.13378347      -5.85936524
Si      10.43639913      12.56819325      -7.90308775        0        0        0       0.00002386      -0.00005269       0.00016815      -5.86293188
Si      12.34140868      13.66612971      -7.10945822        0        0        0      -0.00003818       0.00010493       0.00000983      -5.85578748
Si      12.34545300      13.66545392      -4.76338080        0        0        0      -0.00011791      -0.00008487      -0.00000681      -5.85604655
Si      14.24274205      14.76665348      -3.95354784        0        0        0      -0.00006196      -0.00001569       0.00023685      -5.86015051
Si      14.24273430      14.76784006      -1.59995696        0        0        0      -0.00008650       0.00016400       0.00015950      -5.86591616