450
Lattice="19.21593922212526 -1.9683734372913563e-19 -1.7014318347094974e-21 9.60796961106263 16.641491526005332 -1.9244933932548963e-19 8.211118551969506e-19 -8.513193434413033e-20 34.8533130527514" Properties=species:S:1:pos:R:3:travel:I:3:forces:R:3 cutoff_factor=1.2 nneightol=1.2 energy=-73371.28582630838 free_energy=-73371.28582630838 stress="0.0005562219179178979 1.9246772757762347e-07 1.2816134647916343e-06 1.9246772757762347e-07 0.0005576012332339583 -3.2361979172886015e-06 1.2816134647916343e-06 -3.2361979172886015e-06 -0.0011229561570066874" pbc="T T T"
Si      -8.83316184      -5.15265821       9.98529168        1        1        1       0.00017107       0.00013648       0.00060859
Si       8.74191268       4.99424790      10.00492082        0        0        1      -0.00016117      -0.00009368       0.00041216
Si       0.79640491       4.99414324      10.00488647        1        0        1       0.00004806       0.00001589       0.00029097
Si      -0.84461855      -5.15261705       9.98518523        0        1        1       0.00005798       0.00008601       0.00059131
Si      -4.83877961       1.76544361       9.98502602        1        0        1      -0.00028028       0.00007229       0.00069703
Si       4.76912155      -1.88643218      10.00489861        0        1        1      -0.00002217      -0.00025160      -0.00013802
Si      -4.83882213       3.72364859       8.55128775        1        0        1      -0.00001561       0.00008200       0.00016523
Si      12.14573608       4.39572143       7.83583784        0        0        1      -0.00035709      -0.00023823      -0.00010858
Si      -6.69108458       0.71361928       8.68434627        1        0        1      -0.00052012       0.00007930       0.00021120
Si      10.92829062       2.28652534       7.86195245        0        0        1       0.00006027       0.00045807      -0.00003530
Si      -8.84830841      -3.02261216       8.68459994        1        1        1      -0.00035873       0.00023888      -0.00018563
Si       8.20725198      -2.42634640       7.86199324        0        1        1      -0.00018977      -0.00023632       0.00008377
Si     -10.52899925      -6.13173206       8.55154552        1        1        1      -0.00008196      -0.00010950      -0.00032054
Si     -12.22661997      -4.53522802       7.83596277        1        1        1      -0.00007521       0.00015276      -0.00009901
Si      10.48336858       5.99969312       8.64265596        0        0        1       0.00005887       0.00003028       0.00003911
Si       8.67167568       4.95374152       7.52171017        0        0        1      -0.00032542      -0.00032201      -0.00087107
Si       8.77684142       2.88544941       8.68216325        0        0        1      -0.00000208       0.00004867      -0.00011513
Si       6.79378701       1.53176457       8.01966773        0        0        1      -0.00018460       0.00001165       0.00028018
Si       6.61290246      -0.86244406       8.68203493        0        1        1      -0.00003706      -0.00022713       0.00013333
Si       4.76912754      -1.80553439       7.52162250        0        1        1      -0.00008318       0.00037079      -0.00043243
Si       4.76910606      -3.89740175       8.64273848        0        1        1       0.00003258      -0.00021405       0.00005467
Si       2.54890284      -4.53521143       7.83591737        0        1        1       0.00004118       0.00005816      -0.00015973
Si       9.92546404       8.24134134       7.83585970        0        0        1       0.00015400      -0.00002873       0.00013309
Si       6.93309049       6.07891907       8.68219466        0        0        1       0.00000991       0.00019485      -0.00005498
Si       4.76915578       5.03846425       8.01978306        0        0        1      -0.00011335      -0.00008375       0.00003542
Si       4.76914717       2.70063573       8.42701889        0        0        1      -0.00001805      -0.00006183       0.00004936
Si       2.74452037       1.53175839       8.01963216        0        0        1       0.00002986      -0.00007542       0.00020675
Si       2.92535560      -0.86244000       8.68205279        0        1        1      -0.00011035      -0.00029250      -0.00000779
Si       1.33098961      -2.42634578       7.86197353        0        1        1       0.00023587       0.00015382       0.00001087
Si       0.85126341      -6.13169720       8.55144965        0        1        1      -0.00024614      -0.00009301      -0.00019245
Si      -0.99391084      -5.06644344       7.49841645        0        1        1      -0.00028791       0.00016045      -0.00063264
Si      -2.11777054      -8.39988287       7.86201428        0        1        1      -0.00009025      -0.00044713      -0.00014652
Si      -0.82941606      -3.02256721       8.68447557        0        1        1       0.00014837       0.00005207      -0.00000368
Si      -2.68171218      -6.23083532       8.68450009        0        1        1       0.00002714       0.00001581      -0.00002488
Si       2.60518876       6.07888949       8.68215500        1        0        1      -0.00007018       0.00017411      -0.00007139
Si       0.86660838       4.95369308       7.52165343        1        0        1       0.00027502      -0.00022900      -0.00065650
Si       0.76144415       2.88538063       8.68207530        1        0        1      -0.00016070       0.00015536      -0.00009481
Si      -1.39003617       2.28652363       7.86184825        1        0        1       0.00017055       0.00020950       0.00011074
Si      -2.80333811      -1.67142967       7.99617503        1        1        1       0.00030551       0.00011873       0.00010868
Si      -4.83890080      -5.19707132       7.99622556        1        1        1       0.00017299      -0.00010533       0.00014922
Si      -7.55995171      -8.39988265       7.86207015        1        1        1      -0.00012719      -0.00048899      -0.00015488
Si      -0.94507245       5.99960734       8.64267097        1        0        1      -0.00009845       0.00021621       0.00004310
Si      -2.60745025       4.39570040       7.83580787        1        0        1       0.00015702      -0.00008334      -0.00010722
Si      -2.98658242       0.71360862       8.68425879        1        0        1       0.00041365       0.00034028       0.00013943
Si      -4.83887765       1.59309438       7.49823894        1        0        1       0.00018971      -0.00032292      -0.00064384
Si      -4.83886011      -2.84663179       8.37416531        1        1        1      -0.00014972      -0.00005187       0.00029942
Si      -6.87442410      -1.67144762       7.99624138        1        1        1      -0.00002297       0.00025902       0.00006824
Si      -6.99603819      -6.23083166       8.68459079        1        1        1      -0.00005554      -0.00025224       0.00001825
Si      -8.68384901      -5.06648657       7.49851297        1        1        1       0.00033473       0.00033952      -0.00039424
Si      -9.99525303      -8.40018325       7.83594226        1        1        1       0.00026451      -0.00012186       0.00003396
Si      12.42463564       4.87959493       5.49580001        0        0        0      -0.00007761      -0.00013885      -0.00001768
Si      10.57759162       3.79222162       4.52893820        0        0        0       0.00006848       0.00016048      -0.00008871
Si      10.55907380       1.66905200       5.53722014        0        0        0       0.00018550       0.00002831      -0.00011838
Si       8.63305623       0.46967136       4.80437086        0        0        0       0.00012101      -0.00001986       0.00008023
Si       8.55736660      -1.79800223       5.53722603        0        1        0       0.00014544       0.00004922      -0.00017734
Si       6.72791506      -2.87563788       4.52894201        0        1        0      -0.00010132      -0.00002458      -0.00000892
Si       6.70976791      -5.01886603       5.49593562        0        1        0       0.00011623       0.00037172      -0.00027259
Si       4.76908889      -6.12530057       4.73547571        0        1        0       0.00001384       0.00015432       0.00011054
Si       4.76905252      -8.39376847       5.14673793        0        1        0       0.00005981      -0.00005905      -0.00037274
Si      12.41244639       7.11351860       4.73543071        0        0        0       0.00013955      -0.00006273       0.00017707
Si       8.63777589       4.93417337       5.19877589        0        0        0      -0.00020007      -0.00001412       0.00000413
Si       6.64318886       3.78264545       4.69725491        0        0        0       0.00003873       0.00007983       0.00015099
Si       6.70935801       1.58039373       5.59847509        0        0        0      -0.00002195       0.00004160       0.00006480
Si       4.76907483       0.53654561       4.69722135        0        0        0      -0.00001286      -0.00008281       0.00029143
Si       4.76907319      -1.76659433       5.19870779        0        1        0      -0.00001421       0.00026878      -0.00004534
Si       2.81021588      -2.87560980       4.52891486        0        1        0       0.00018413      -0.00001168       0.00010425
Si       2.82841668      -5.01883572       5.49587229        0        1        0      -0.00014432       0.00024791      -0.00001330
Si       0.97938269      -6.20570072       4.63562879        0        1        0      -0.00014976       0.00003908      -0.00014333
Si       0.87597893      -8.40044762       5.49582670        0        1        0      -0.00029866      -0.00008849      -0.00007546
Si       8.61877331       7.18509485       4.52893549        0        0        0       0.00007763      -0.00002564       0.00005042
Si       4.76908281       4.94106053       5.59856362        0        0        0       0.00000478       0.00012584      -0.00000127
Si       2.89494131       3.78267696       4.69725995        0        0        0      -0.00001193      -0.00000943       0.00013024
Si       2.82879057       1.58039762       5.59843212        0        0        0       0.00002994       0.00001531       0.00013281
Si       0.90508565       0.46967451       4.80432127        0        0        0      -0.00011537      -0.00004513       0.00024011
Si       0.98077873      -1.79799212       5.53721658        0        1        0      -0.00007558       0.00011965      -0.00011216
Si      -0.97505071      -2.79626362       4.66638569        0        1        0      -0.00018358       0.00001042       0.00014937
Si      -0.98545442      -5.07134433       5.19194913        0        1        0      -0.00004817       0.00000117       0.00041953
Si      -2.95053147      -6.21792355       4.66639610        0        1        0      -0.00000573       0.00020898       0.00008075
Si      -2.83714009      -8.41084224       5.53726778        0        1        0      -0.00024924      -0.00004658      -0.00019169
Si       4.76905182       7.16241382       4.80442420        0        0        0       0.00010306       0.00002410       0.00019398
Si       0.90034791       4.93421253       5.19872504        1        0        0       0.00037435      -0.00009766       0.00007549
Si      -1.03944377       3.79226355       4.52886336        1        0        0      -0.00014495      -0.00001789       0.00003244
Si      -1.02093249       1.66907069       5.53711466        1        0        0      -0.00006181       0.00002847      -0.00003365
Si      -2.86341621       0.47439783       4.66636612        1        0        0      -0.00000743      -0.00000690       0.00012885
Si      -2.88468519      -1.71835822       5.55941763        1        1        0       0.00012392       0.00012171       0.00018854
Si      -4.83890849      -2.84661893       4.81839117        1        1        0       0.00004317      -0.00000328       0.00015904
Si      -4.83889769      -5.10316239       5.55945107        1        1        0      -0.00001160      -0.00000758       0.00010716
Si      -6.72726088      -6.21791178       4.66638201        1        1        0       0.00003490       0.00009657       0.00028569
Si      -6.84066225      -8.41082992       5.53730268        1        1        0       0.00029751       0.00013264      -0.00028074
Si       0.91936331       7.18514156       4.52895226        1        0        0      -0.00011838      -0.00010117       0.00015580
Si      -2.88645471       4.87961926       5.49578765        1        0        0       0.00011309      -0.00001734       0.00004685
Si      -4.83886987       3.87180114       4.63559959        1        0        0      -0.00008059      -0.00008657      -0.00025429
Si      -4.83888578       1.60300022       5.19180687        1        0        0      -0.00002718      -0.00007372       0.00041269
Si      -6.81438301       0.47443079       4.66638641        1        0        0       0.00004242      -0.00009310       0.00016665
Si      -6.79309490      -1.71832183       5.55946600        1        1        0      -0.00021960       0.00002373       0.00012027
Si      -8.70272041      -2.79624549       4.66640175        1        1        0       0.00013742       0.00003288       0.00018157
Si      -8.69229155      -5.07131141       5.19208118        1        1        0       0.00006317       0.00003649      -0.00017534
Si     -10.65710326      -6.20567054       4.63568490        1        1        0      -0.00000948      -0.00007976      -0.00018897
Si     -10.55375124      -8.40042681       5.49590810        1        1        0       0.00015425       0.00000617      -0.00022838
Si      -2.87430120       7.11357179       4.73547375        1        0        0      -0.00009923      -0.00014838       0.00011030
Si      10.53432718       3.79969932       2.19448946        0        0        0       0.00004331       0.00014509       0.00006753
Si       8.58671907       2.67283870       1.52165458        0        0        0       0.00016626       0.00001899       0.00010522
Si       8.62927004       0.47183587       2.39618374        0        0        0       0.00019812       0.00003603       0.00016729
Si       6.70187744      -0.59179249       1.52164627        0        1        0       0.00022400      -0.00003493       0.00004959
Si       6.69976151      -2.84190865       2.19447825        0        1        0      -0.00005881      -0.00003013       0.00014724
Si       4.76900978      -3.95973249       1.44902949        0        1        0       0.00015391      -0.00001676       0.00022813
Si       4.76906314      -6.14675050       2.33783387        0        1        0      -0.00009668       0.00018478      -0.00004605
Si       2.87497564      -7.30020586       1.51581163        0        1        0       0.00005531       0.00007518       0.00009555
Si      12.43098422       7.12422841       2.33782441        0        0        0       0.00006117       0.00005307      -0.00013807
Si      10.53699180       6.03069158       1.44905265        0        0        0       0.00009852       0.00012680       0.00024251
Si       6.66370883       3.79450863       2.31835422        0        0        0       0.00010502       0.00003261      -0.00001319
Si       4.76904000       2.70060389       1.45681948        0        0        0      -0.00001092       0.00013117      -0.00004061
Si       4.76902424       0.51280713       2.31833229        0        0        0       0.00002964       0.00001976      -0.00005000
Si       2.83617513      -0.59181051       1.52161773        0        1        0      -0.00015444       0.00011154      -0.00000622
Si       2.83827365      -2.84191104       2.19447505        0        1        0       0.00016175       0.00000011      -0.00004991
Si       0.90726559      -3.96492057       1.47614050        0        1        0       0.00013899       0.00006485       0.00010512
Si       0.95357847      -6.19085209       2.27285120        0        1        0       0.00009091       0.00003633       0.00000430
Si      -0.99725332      -7.26376197       1.47615432        0        1        0      -0.00011672      -0.00011452       0.00015978
Si       8.60359029       7.14390451       2.19448919        0        0        0       0.00009557       0.00002091       0.00002954
Si       6.65386196       6.02072893       1.52166031        0        0        0      -0.00016441       0.00016804       0.00002085
Si       2.87438214       3.79451214       2.31835562        0        0        0      -0.00006918       0.00008942      -0.00001084
Si       0.90879292       0.47182668       2.39615527        0        0        0      -0.00005784       0.00011207       0.00006242
Si      -0.99251726      -2.81987986       2.29808472        0        1        0       0.00002632      -0.00009334      -0.00018905
Si      -2.93879973      -6.19101680       2.29807257        0        1        0       0.00004496       0.00011884       0.00003184
Si       4.76901957       7.15808228       2.39621435        0        0        0       0.00011576       0.00008927       0.00021399
Si       0.95137347       2.67284506       1.52163747        1        0        0      -0.00010581      -0.00002056       0.00004543
Si      -0.97774796      -0.61733992       1.48747383        1        1        0      -0.00019449       0.00000127       0.00000310
Si      -2.93233736      -3.94733832       1.55500825        1        1        0       0.00006618       0.00000020      -0.00009209
Si      -4.83891569      -7.30502660       1.48751000        1        1        0       0.00000435       0.00014701      -0.00000217
Si       2.88418921       6.02073750       1.52165662        1        0        0       0.00009409       0.00015104      -0.00000070
Si      -0.99622463       3.79973732       2.19442826        1        0        0      -0.00002684       0.00002427       0.00008002
Si      -2.93433834       2.68895265       1.47618194        1        0        0       0.00017832       0.00018829       0.00008861
Si      -2.89259783       0.47112631       2.29806490        1        0        0      -0.00003280       0.00016139      -0.00008835
Si      -4.83892215      -0.64505991       1.55499483        1        1        0      -0.00001338       0.00005163       0.00000339
Si      -4.83892397      -2.84659744       2.41577837        1        1        0      -0.00005365       0.00005767      -0.00005613
Si      -6.74551662      -3.94732775       1.55499797        1        1        0       0.00000391       0.00003150      -0.00007907
Si      -6.73902941      -6.19100934       2.29806192        1        1        0      -0.00003100       0.00020137       0.00005467
Si      -8.68057044      -7.26374309       1.47616031        1        1        0       0.00005373      -0.00008165       0.00008634
Si       0.93447283       7.14393432       2.19451257        1        0        0       0.00013530       0.00000278      -0.00005810
Si      -0.99891025       6.03073692       1.44904949        1        0        0      -0.00014224       0.00014635       0.00020652
Si      -4.83888734       3.84205532       2.27284002        1        0        0      -0.00001999       0.00004615       0.00010797
Si      -6.74346831       2.68898110       1.47621878        1        0        0      -0.00020388       0.00010793       0.00009275
Si      -6.78523824       0.47114611       2.29807683        1        0        0       0.00004026       0.00013650      -0.00002720
Si      -8.70010777      -0.61730295       1.48749900        1        1        0       0.00025198      -0.00007784      -0.00004697
Si      -8.68533012      -2.81986130       2.29808690        1        1        0       0.00007500      -0.00001728      -0.00003134
Si     -10.58512799      -3.96488236       1.47617447        1        1        0      -0.00019633       0.00010789       0.00009881
Si     -10.63137682      -6.19080685       2.27288160        1        1        0      -0.00008162      -0.00006038       0.00019050
Si     -12.55277496      -7.30016005       1.51583618        1        1        0       0.00003458       0.00006447       0.00005120
Si      -2.89288113       7.12427857       2.33784568        1        0        0      -0.00007409      -0.00000042      -0.00000241
Si      -4.83890076       6.06074796       1.51588679        1        0        0      -0.00002261      -0.00000006      -0.00009917
Si      -0.99580894      -0.62735963     -17.40674035        0        0        0       0.00000000      -0.00000001       0.43345280
Si       0.92578497       0.48207313     -16.62225292        0        0        0       0.00000005       0.00000004      -0.63779856
Si       0.92578497       0.48207313     -14.26879061        0        0        0      -0.00007585      -0.00004310       0.15468738
Si       2.84737890       1.59150590     -13.48430318        0        0        0      -0.00062765      -0.00039704      -0.05482387
Si       2.84737890       1.59150590     -11.13084088        0        0        0       0.00101477       0.00062154       0.01420531
Si       4.76897282       2.70093867     -10.34635344        0        0        0      -0.00001452      -0.00019258       0.09198232
Si       4.76895619       2.70075591      -7.98152535        0        0        0       0.00006217       0.00012274       0.00013058
Si       6.69168619       3.81082726      -7.18915668        0        0        0      -0.00005603      -0.00000256      -0.00003043
Si       6.69291604       3.81151218      -4.82693705        0        0        0       0.00014261      -0.00001605      -0.00015962
Si       8.60760141       4.91693563      -4.01159859        0        0        0       0.00000587       0.00006456       0.00015151
Si       8.60016106       4.91262713      -1.64248573        0        0        0      -0.00002787      -0.00001775       0.00003316
Si      10.53717740       6.03092069      -0.90094459        0        0        0       0.00001761       0.00005807       0.00015752
Si       0.92578497       2.70093867     -17.40674035        0        0        0       0.00000005      -0.00000004       0.43345284
Si       2.84737890       3.81037144     -16.62225292        0        0        0      -0.00000005      -0.00000002      -0.63779854
Si       2.84737890       3.81037144     -14.26879061        0        0        0      -0.00004494       0.00002550       0.15501057
Si       4.76897282       4.91980421     -13.48430318        0        0        0       0.00000036       0.00066724      -0.05482348
Si       4.76897282       4.91980421     -11.13084088        0        0        0      -0.00000781      -0.00112144       0.01419845
Si       6.69056675       6.02923697     -10.34635344        0        0        0       0.00445047       0.00260351       0.08329482
Si       6.69169863       6.02987401      -7.98256864        0        0        0       0.00010361      -0.00000668       0.00030529
Si       8.61253764       7.13735838      -7.18184695        0        0        0       0.00008035       0.00006464       0.00009733
Si       8.61318748       7.13481991      -4.81636983        0        0        0      -0.00007604       0.00007295       0.00010895
Si      10.53559416       8.25220046      -4.03037891        0        0        0      -0.00000308       0.00000612       0.00003795
Si      10.53813736       8.25787443      -1.66826004        0        0        0       0.00000528       0.00001063       0.00012382
Si      12.46545183       9.35153359      -0.85568585        0        0        0      -0.00011798      -0.00001689       0.00021761
Si       2.84737890       6.02923697     -17.40674035        0        0        0       0.00000000      -0.00000000       0.43345280
Si       4.76897282       7.13866974     -16.62225292        0        0        0       0.00000005       0.00000004      -0.63779856
Si       4.76897282       7.13866974     -14.26879061        0        0        0      -0.00000048       0.00008630       0.15468701
Si       6.69056675       8.24810252     -13.48430318        0        0        0      -0.00073984       0.00007465      -0.05464951
Si       6.69056675       8.24810252     -11.13084088        0        0        0       0.00122596       0.00001302       0.01024433
Si       8.61216067       9.35753528     -10.34635344        0        0        0      -0.00560411      -0.00336629       0.10251290
Si       8.61006374       9.35650025      -7.98009850        0        0        0      -0.00005526       0.00014623       0.00025808
Si      10.53112477      10.46827833      -7.18748487        0        0        0       0.00008056       0.00011820      -0.00005061
Si      10.52790195      10.47011450      -4.82468341        0        0        0       0.00000226       0.00009898      -0.00001304
Si      12.45249882      11.57244281      -4.03037742        0        0        0       0.00008964       0.00013011      -0.00006981
Si      12.44886231      11.56745906      -1.66826628        0        0        0       0.00004704      -0.00006078       0.00008554
Si      14.37700977      12.68171747      -0.90098863        0        0        0       0.00005334      -0.00001895       0.00036168
Si       4.76897282       9.35753528     -17.40674035        0        0        0       0.00000005      -0.00000005       0.43345284
Si       6.69056675      10.46696805     -16.62225292        0        0        0      -0.00000005      -0.00000002      -0.63779854
Si       6.69056675      10.46696805     -14.26879061        0        0        0      -0.00001958      -0.00002244       0.15463046
Si       8.61216067      11.57640082     -13.48430318        0        0        0      -0.00005213      -0.00002589      -0.05478432
Si       8.61216067      11.57640082     -11.13084088        0        0        0       0.00005864       0.00002096       0.01528454
Si      10.53375459      12.68583358     -10.34635344        0        0        0      -0.00009287       0.00621482       0.10258634
Si      10.53341643      12.68787666      -7.98008919        0        0        0       0.00004952       0.00013976       0.00014188
Si      12.45649976      13.79530352      -7.18187676        0        0        0       0.00001244       0.00006102       0.00015908
Si      12.45900391      13.79597719      -4.81640210        0        0        0       0.00000643       0.00013795       0.00016090
Si      14.37697559      14.90974529      -4.01163602        0        0        0       0.00001914       0.00007249       0.00016484
Si      14.37701319      14.91837108      -1.64252267        0        0        0      -0.00001370       0.00004105       0.00003208
Si      16.30366569      16.02920482      -0.84939494        0        0        0       0.00010191      -0.00007584      -0.00015666
Si       6.69056675      12.68583358     -17.40674035        0        0        0      -0.00000000       0.00000004       0.43345283
Si       8.61216067      13.79526636     -16.62225292        0        0        0       0.00000005      -0.00000006      -0.63779857
Si       8.61216067      13.79526636     -14.26879061        0        0        0       0.00000819       0.00002700       0.15463051
Si      10.53375459      14.90469912     -13.48430318        0        0        0      -0.00048390       0.00053119      -0.05465011
Si      10.53375459      14.90469912     -11.13084088        0        0        0       0.00064923      -0.00100157       0.01025977
Si      12.45534851      16.01413189     -10.34635344        0        0        0      -0.00023483      -0.00541532       0.08338594
Si      12.45517603      16.01256966      -7.98255700        0        0        0       0.00016571       0.00000781       0.00020722
Si      14.37693347      17.12207707      -7.18916352        0        0        0       0.00004551       0.00020133      -0.00002114
Si      14.37697027      17.12063221      -4.82695142        0        0        0       0.00004341      -0.00001110      -0.00008564
Si      16.29950042      18.23223718      -4.04045589        0        0        0       0.00018889      -0.00003571      -0.00024217
Si      16.30098166      18.23140110      -1.68051241        0        0        0       0.00004780      -0.00009677      -0.00013383
Si      18.20947182      19.33016472      -0.84938340        0        0        0       0.00003770      -0.00003696      -0.00007207
Si       2.84737890      -0.62735963     -17.40674035        0        0        0      -0.00000005       0.00000002       0.43345282
Si       4.76897282       0.48207313     -16.62225292        0        0        0       0.00000004       0.00000004      -0.63779856
Si       4.76897282       0.48207313     -14.26879061        0        0        0       0.00000011      -0.00004972       0.15501314
Si       6.69056675       1.59150590     -13.48430318        0        0        0       0.00062820      -0.00037767      -0.05482358
Si       6.69056675       1.59150590     -11.13084088        0        0        0      -0.00102069       0.00060382       0.01419875
Si       8.61216067       2.70093867     -10.34635344        0        0        0       0.00471320       0.00232197       0.08343605
Si       8.61348427       2.70139054      -7.98255065        0        0        0      -0.00007986       0.00015073       0.00022806
Si      10.53302388       3.81114551      -7.18181951        0        0        0      -0.00005706      -0.00002274       0.00005887
Si      10.53119102       3.81290984      -4.81633491        0        0        0      -0.00005450      -0.00006836       0.00007500
Si      12.46008324       4.91904009      -4.03030922        0        0        0      -0.00006130      -0.00004596      -0.00007402
Si      12.46629704       4.91833266      -1.66818185        0        0        0       0.00003177       0.00001672      -0.00001286
Si      14.37705447       6.04067394      -0.85559976        0        0        0       0.00007829      -0.00031615      -0.00005921