450
Lattice="19.2108758060218 1.0356009292091515e-19 -5.549193652342927e-20 9.6054379030109 16.63710647902865 -1.7151122122660298e-19 2.1360709076089632e-20 2.104033583446309e-20 34.844129175524685" Properties=species:S:1:pos:R:3:travel:I:3:forces:R:3:energies:R:1 cutoff_factor=1.2 nneightol=1.2 energy=-73371.61414357569 free_energy=-73371.61414357569 stress="0.0005930760815568082 4.819619336435879e-07 2.6384848369277334e-06 4.819619336435879e-07 0.0005923027992770138 2.1523788172419393e-06 2.6384848369277334e-06 2.1523788172419393e-06 -0.0011874604776167137" pbc="T T T"
Si      -8.71123218      -5.08178100      10.00823504        1        1        1      -0.00006127      -0.00001512      -0.00004133    -162.20156241
Si       8.65776097       4.94621947       9.93550169        0        0        1      -0.00000647      -0.00002406      -0.00001548    -162.22013387
Si       0.87826420       4.94621624       9.93550325        1        0        1       0.00000607       0.00002590      -0.00001128    -162.22013461
Si      -0.96359684      -5.08178918      10.00823180        0        1        1      -0.00001910      -0.00002524      -0.00000924    -162.20156418
Si      -4.83741971       1.62789022      10.00825142        1        0        1       0.00000108      -0.00000432      -0.00003725    -162.20155670
Si       4.76801376      -1.79103517       9.93551176        0        1        1      -0.00000713      -0.00000833      -0.00000462    -162.22013214
Si      -4.83741996       3.65793106       8.62966266        1        0        1      -0.00002186      -0.00001934       0.00002393    -162.62428226
Si      12.15132624       4.36196617       7.84645243        0        0        1       0.00001638       0.00003876       0.00003420    -162.98856238
Si      -6.69321714       0.67444985       8.67098353        1        0        1      -0.00001202       0.00000859       0.00001657    -162.68712962
Si      10.93925054       2.27359624       7.84775469        0        0        1      -0.00005351      -0.00004360       0.00002521    -163.01284995
Si      -8.81345007      -2.99789757       8.67096255        1        1        1       0.00001641      -0.00002898       0.00000551    -162.68713721
Si       8.22330590      -2.43055242       7.84775414        0        1        1      -0.00001287      -0.00003149      -0.00000641    -163.01286395
Si     -10.46931589      -6.09681203       8.62967496        1        1        1       0.00003777       0.00004259       0.00001508    -162.62428415
Si     -12.19010781      -4.52443563       7.84646524        1        1        1      -0.00001699      -0.00001260       0.00002434    -162.98854959
Si      10.45375254       5.98313346       8.60182682        0        0        1      -0.00003227      -0.00004484      -0.00002652    -162.68065791
Si       8.63677936       4.93409847       7.46112681        0        0        1      -0.00004156      -0.00000854       0.00008568    -162.26570607
Si       8.75389383       2.86158526       8.61299239        0        0        1       0.00001245      -0.00001019      -0.00001600    -162.75751510
Si       6.79296672       1.53135289       8.04835014        0        0        1      -0.00002098      -0.00000104      -0.00001200    -162.97546095
Si       6.62141905      -0.83197532       8.61299448        0        1        1       0.00000345       0.00002357      -0.00001942    -162.75751545
Si       4.76801239      -1.76680941       7.46113826        0        1        1      -0.00003427       0.00000128       0.00003804    -162.26570933
Si       4.76801590      -3.86487021       8.60184290        0        1        1      -0.00002222       0.00001500      -0.00002280    -162.68065642
Si       2.51525863      -4.52443481       7.84646198        0        1        1       0.00003248      -0.00002672       0.00001071    -162.98855549
Si       9.89856781       8.26385303       7.84645150        0        0        1       0.00002829      -0.00000645       0.00000387    -162.98856308
Si       6.90048588       6.07178521       8.61299068        0        0        1       0.00001813      -0.00002002      -0.00001179    -162.75751918
Si       4.76801378       5.03868691       8.04835198        0        0        1      -0.00003928      -0.00000459      -0.00003819    -162.97545992
Si       4.76800649       2.70046654       8.39674882        0        0        1       0.00003473      -0.00001740       0.00000246    -162.51805584
Si       2.74305200       1.53135212       8.04835170        0        0        1      -0.00001555      -0.00001114      -0.00003649    -162.97546379
Si       2.91460533      -0.83197208       8.61300134        0        1        1      -0.00001739      -0.00002860      -0.00003808    -162.75751471
Si       1.31272312      -2.43055697       7.84775484        0        1        1      -0.00001664       0.00005220       0.00001759    -163.01285442
Si       0.79447263      -6.09681837       8.62966134        0        1        1      -0.00002047       0.00000876       0.00000679    -162.62428795
Si      -1.02581594      -5.04587155       7.51484593        0        1        1      -0.00001383       0.00000704       0.00008418    -162.29762823
Si      -2.12148998      -8.37876078       7.84774798        0        1        1      -0.00004381       0.00001680       0.00001821    -163.01285096
Si      -0.86138811      -2.99790368       8.67097014        0        1        1      -0.00001621      -0.00003630      -0.00002556    -162.68713979
Si      -2.71719599      -6.21224510       8.67096996        0        1        1       0.00002002       0.00000538      -0.00000061    -162.68713304
Si       2.63553744       6.07178951       8.61298498        1        0        1       0.00000278      -0.00003415       0.00000516    -162.75751560
Si       0.89924947       4.93410167       7.46112792        1        0        1      -0.00000943      -0.00001505       0.00008223    -162.26571037
Si       0.78213389       2.86158937       8.61299319        1        0        1      -0.00000995      -0.00001820      -0.00002362    -162.75751830
Si      -1.40321831       2.27360849       7.84775440        1        0        1      -0.00002135      -0.00003259       0.00002340    -163.01285359
Si      -2.79798610      -1.66776090       8.02748044        1        1        1      -0.00002941      -0.00000248      -0.00000094    -163.05116050
Si      -4.83742042      -5.20016142       8.02747039        1        1        1      -0.00002147      -0.00001721      -0.00001791    -163.05116592
Si      -7.55337070      -8.37875485       7.84774886        1        1        1       0.00000760       0.00000963       0.00000002    -163.01286353
Si      -0.91772210       5.98313753       8.60183010        1        0        1      -0.00000568      -0.00002094      -0.00000237    -162.68066013
Si      -2.61530012       4.36197735       7.84645678        1        0        1      -0.00002585       0.00001398       0.00002860    -162.98855319
Si      -2.98161181       0.67445495       8.67098690        1        0        1      -0.00004599      -0.00002087      -0.00000906    -162.68713580
Si      -4.83741708       1.55603573       7.51486569        1        0        1       0.00000364      -0.00001259       0.00002309    -162.29763680
Si      -4.83741584      -2.84522999       8.38572501        1        1        1      -0.00000373       0.00000844      -0.00001657    -162.44577592
Si      -6.87684526      -1.66775816       8.02748080        1        1        1      -0.00002691      -0.00004447      -0.00000199    -163.05116373
Si      -6.95764960      -6.21224062       8.67096404        1        1        1      -0.00001004       0.00001216      -0.00000999    -162.68714013
Si      -8.64902885      -5.04586406       7.51484614        1        1        1      -0.00003744      -0.00002697       0.00008803    -162.29763637
Si      -9.96798936      -8.37324264       7.84645973        1        1        1      -0.00006228      -0.00003742       0.00000121    -162.98855112
Si      12.43287012       4.84833402       5.51611992        0        0        0      -0.00002277      -0.00000491       0.00000853    -163.13540505
Si      10.57690162       3.77763977       4.53376521        0        0        0      -0.00000518      -0.00000063      -0.00001909    -163.08101503
Si      10.57290571       1.64579092       5.54325952        0        0        0      -0.00003866       0.00000753      -0.00000420    -163.15890491
Si       8.63275942       0.46910824       4.83003668        0        0        0      -0.00000538      -0.00001191      -0.00000555    -163.20800874
Si       8.58379429      -1.79944504       5.54324263        0        1        0      -0.00004034       0.00000333       0.00000124    -163.15890573
Si       6.73954892      -2.86884527       4.53376679        0        1        0       0.00000642      -0.00000848      -0.00000527    -163.08101639
Si       6.74030329      -5.01149428       5.51614307        0        1        0      -0.00003200       0.00000071      -0.00000491    -163.13540714
Si       4.76797883      -6.08460111       4.79054493        0        1        0      -0.00001039       0.00000614       0.00000101    -163.08651519
Si       4.76797699      -8.39096422       5.07231088        0        1        0      -0.00001171       0.00000072      -0.00001999    -162.57317119
Si      12.37604470       7.09296209       4.79051759        0        0        0      -0.00001253      -0.00001008      -0.00001594    -163.08652823
Si       8.63255399       4.93165672       5.15000161        0        0        0      -0.00002447      -0.00002024       0.00000089    -163.25983563
Si       6.63067740       3.77586963       4.71208318        0        0        0      -0.00001347      -0.00000832      -0.00002817    -163.15307892
Si       6.71300222       1.57747959       5.61651588        0        0        0      -0.00000076      -0.00000437       0.00001095    -163.09281937
Si       4.76797480       0.54957175       4.71208488        0        0        0      -0.00002096       0.00000257      -0.00000981    -163.15306677
Si       4.76797391      -1.76199273       5.15001140        0        1        0      -0.00001203       0.00000215      -0.00000243    -163.25983522
Si       2.79639627      -2.86884528       4.53376136        0        1        0      -0.00001301      -0.00000239       0.00001313    -163.08102319
Si       2.79565692      -5.01149592       5.51613300        0        1        0      -0.00000526      -0.00000000       0.00000568    -163.13540751
Si       0.96723317      -6.19660160       4.62108834        0        1        0       0.00000434      -0.00002832      -0.00000527    -163.11147534
Si       0.85511352      -8.37261637       5.51611781        0        1        0      -0.00001654      -0.00000180       0.00000739    -163.13540547
Si       8.60532347       7.19251730       4.53375813        0        0        0       0.00000249      -0.00000881      -0.00001121    -163.08101567
Si       4.76797906       4.94636268       5.61651606        0        0        0      -0.00001935      -0.00002154       0.00001077    -163.09281620
Si       2.90526982       3.77587226       4.71208453        0        0        0      -0.00000785      -0.00001101      -0.00001776    -163.15306681
Si       2.82295267       1.57747987       5.61651708        0        0        0      -0.00001064       0.00000268      -0.00000155    -163.09282781
Si       0.90318952       0.46910828       4.83004386        0        0        0       0.00000070      -0.00002264      -0.00002525    -163.20801252
Si       0.95216596      -1.79944453       5.54325330        0        1        0      -0.00000154      -0.00000860      -0.00001464    -163.15890545
Si      -0.99440476      -2.78398688       4.64762438        0        1        0      -0.00001471      -0.00001615      -0.00002082    -163.08272950
Si      -1.00066889      -5.06043241       5.19843376        0        1        0      -0.00002368      -0.00000725      -0.00000611    -163.27264284
Si      -2.96899654      -6.20408566       4.64761846        0        1        0      -0.00001305       0.00000768      -0.00002421    -163.08274052
Si      -2.84834909      -8.38212775       5.54325172        0        1        0      -0.00002001      -0.00001468      -0.00001059    -163.15890539
Si       4.76797744       7.16310439       4.83003568        0        0        0       0.00000286       0.00000403      -0.00002755    -163.20800958
Si       0.90339446       4.93165897       5.15000511        1        0        0       0.00001677      -0.00002062      -0.00003384    -163.25983338
Si      -1.04095676       3.77764609       4.53376169        1        0        0      -0.00000242      -0.00001334      -0.00000902    -163.08102166
Si      -1.03694666       1.64579718       5.54325469        1        0        0       0.00000590      -0.00000206      -0.00002188    -163.15890649
Si      -2.86287439       0.45229602       4.64762560        1        0        0       0.00000226      -0.00002397      -0.00002426    -163.08273340
Si      -2.88831736      -1.71991464       5.57165805        1        1        0      -0.00000221      -0.00001938       0.00003311    -163.16651995
Si      -4.83746450      -2.84525723       4.80467895        1        1        0      -0.00001158      -0.00002248       0.00000819    -163.14723072
Si      -4.83746159      -5.09593537       5.57164799        1        1        0       0.00000511      -0.00001359       0.00003832    -163.16652572
Si      -6.70593027      -6.20408111       4.64761304        1        1        0      -0.00000568      -0.00000959      -0.00001649    -163.08273040
Si      -6.82656461      -8.38212532       5.54324034        1        1        0      -0.00002641      -0.00002042      -0.00000828    -163.15890742
Si       0.93062239       7.19252056       4.53376275        1        0        0      -0.00000949      -0.00000906      -0.00000875    -163.08101493
Si      -2.89691589       4.84833315       5.51612964        1        0        0       0.00000188      -0.00000092       0.00001616    -163.13540600
Si      -4.83746256       3.85742423       4.62109619        1        0        0      -0.00000763       0.00001777      -0.00002528    -163.11147482
Si      -4.83746066       1.58509224       5.19845325        1        0        0      -0.00002073      -0.00004126      -0.00003047    -163.27264646
Si      -6.81205123       0.45229064       4.64763013        1        0        0      -0.00000955      -0.00000829      -0.00003982    -163.08274261
Si      -6.78660579      -1.71991792       5.57166185        1        1        0       0.00000986      -0.00001717       0.00000869    -163.16652406
Si      -8.68051782      -2.78399057       4.64762260        1        1        0      -0.00001760      -0.00001105      -0.00004042    -163.08272672
Si      -8.67425340      -5.06043295       5.19843581        1        1        0      -0.00001134      -0.00001952      -0.00001500    -163.27263700
Si     -10.64216055      -6.19659996       4.62109120        1        1        0      -0.00001269      -0.00003837      -0.00001675    -163.11148357
Si     -10.53002979      -8.37260810       5.51613574        1        1        0       0.00000063      -0.00001281       0.00001772    -163.13540668
Si      -2.84009003       7.09296484       4.79054227        1        0        0      -0.00000024      -0.00001584      -0.00001406    -163.08651856
Si      10.53997028       3.79942460       2.20327648        0        0        0      -0.00000374      -0.00000072      -0.00000440    -163.15482486
Si       8.58693429       2.67354609       1.53692099        0        0        0      -0.00000335       0.00001220       0.00001191    -163.17822325
Si       8.62613933       0.47288223       2.41359503        0        0        0      -0.00000772      -0.00000628       0.00000684    -163.18995848
Si       6.70069681      -0.59350768       1.53692618        0        1        0      -0.00000464      -0.00000855       0.00000737    -163.17821502
Si       6.70217802      -2.84782130       2.20327747        0        1        0       0.00001660      -0.00000204       0.00000008    -163.15482399
Si       4.76794017      -3.96926938       1.46507954        0        1        0       0.00000070       0.00000656      -0.00001047    -163.17948836
Si       4.76794792      -6.14693432       2.38080737        0        1        0      -0.00002939       0.00000994      -0.00002472    -163.13007510
Si       2.87860615      -7.30018607       1.54005140        0        1        0      -0.00000133       0.00001074      -0.00001135    -163.19234670
Si      12.42996344       7.12408111       2.38078428        0        0        0      -0.00003006      -0.00001007       0.00000060    -163.13009018
Si      10.54404230       6.03523956       1.46507073        0        0        0      -0.00001308       0.00000476       0.00000121    -163.17948218
Si       6.65834784       3.79183540       2.33103584        0        0        0      -0.00002926      -0.00000670      -0.00000972    -163.16365409
Si       4.76794401       2.70041138       1.46223144        0        0        0      -0.00000908      -0.00000307      -0.00000736    -163.13681135
Si       4.76794563       0.51756968       2.33103813        0        0        0      -0.00000765       0.00001764      -0.00001583    -163.16365108
Si       2.83518291      -0.59350206       1.53692589        0        1        0      -0.00000603       0.00000239       0.00000607    -163.17821815
Si       2.83371264      -2.84781514       2.20327443        0        1        0      -0.00002695      -0.00000884      -0.00000035    -163.15482782
Si       0.90563970      -3.96303135       1.46966772        0        1        0      -0.00001941      -0.00001932      -0.00000191    -163.17101406
Si       0.94864628      -6.18591087       2.26786925        0        1        0      -0.00002848      -0.00000209       0.00002004    -163.17041217
Si      -0.99793044      -7.26011733       1.46966297        0        1        0       0.00000687       0.00000582      -0.00000240    -163.17101304
Si       8.60573328       7.14962617       2.20326953        0        0        0      -0.00000830       0.00001163       0.00000685    -163.15482361
Si       6.65417545       6.02118405       1.53692000        0        0        0      -0.00000965       0.00000937       0.00001657    -163.17822323
Si       2.87754834       3.79183631       2.33103631        0        0        0       0.00000363       0.00000498      -0.00000572    -163.16365342
Si       0.90974901       0.47288530       2.41360036        0        0        0      -0.00000262       0.00000434      -0.00000549    -163.18995614
Si      -0.99714237      -2.82005198       2.28645072        0        1        0      -0.00002176      -0.00000012      -0.00002083    -163.16371581
Si      -2.93916563      -6.18374304       2.28644510        0        1        0      -0.00002594      -0.00000098      -0.00000902    -163.16371944
Si       4.76794565       7.15547570       2.41359329        0        0        0      -0.00000913      -0.00002789       0.00000042    -163.18995996
Si       0.94894851       2.67355248       1.53692464        1        0        0      -0.00000130      -0.00001139       0.00001966    -163.17821878
Si      -0.97296641      -0.61410030       1.48539434        1        1        0      -0.00000638      -0.00000418       0.00000108    -163.16371813
Si      -2.93169199      -3.94560500       1.53460823        1        1        0      -0.00000331       0.00000121       0.00000844    -163.18169321
Si      -4.83749231      -7.30766687       1.48539142        1        1        0      -0.00000888       0.00000453      -0.00000145    -163.16372488
Si       2.88170223       6.02118783       1.53692397        1        0        0      -0.00000160      -0.00000446       0.00001098    -163.17821622
Si      -1.00408058       3.79943570       2.20327466        1        0        0      -0.00001027      -0.00001949      -0.00000832    -163.15482813
Si      -2.93392456       2.68728557       1.46966924        1        0        0      -0.00001305      -0.00001115      -0.00000917    -163.17101366
Si      -2.89546545       0.46794046       2.28645093        1        0        0      -0.00001693      -0.00002259      -0.00000704    -163.16371871
Si      -4.83749726      -0.64465559       1.53461205        1        1        0       0.00000555      -0.00000414      -0.00000240    -163.18169290
Si      -4.83749114      -2.84528481       2.39824615        1        1        0      -0.00001298      -0.00000898      -0.00000900    -163.20050381
Si      -6.74329750      -3.94560404       1.53460275        1        1        0      -0.00000977      -0.00000435       0.00001402    -163.18168737
Si      -6.73581188      -6.18374189       2.28644139        1        1        0      -0.00001105       0.00000253      -0.00002563    -163.16371482
Si      -8.67705975      -7.26011614       1.46966122        1        1        0      -0.00000354       0.00001739       0.00000603    -163.17101202
Si       0.93014871       7.14963033       2.20327336        1        0        0       0.00001759      -0.00000099       0.00000762    -163.15482297
Si      -1.00817003       6.03525078       1.46507474        1        0        0      -0.00000645       0.00000339       0.00000236    -163.17948703
Si      -4.83749051       3.83596878       2.26787646        1        0        0      -0.00000928      -0.00003413       0.00001147    -163.17041118
Si      -6.74106521       2.68728223       1.46967074        1        0        0       0.00000959      -0.00000172      -0.00001589    -163.17101219
Si      -6.77951803       0.46793930       2.28645577        1        0        0      -0.00001234      -0.00002953      -0.00002469    -163.16372213
Si      -8.70202643      -0.61410066       1.48539601        1        1        0       0.00000931      -0.00000875      -0.00002175    -163.16372464
Si      -8.67783962      -2.82005418       2.28644907        1        1        0       0.00000986       0.00000424      -0.00003343    -163.16371436
Si     -10.58063033      -3.96303424       1.46966425        1        1        0       0.00000156      -0.00000540       0.00000693    -163.17101279
Si     -10.62362849      -6.18591179       2.26787001        1        1        0       0.00001595      -0.00000180       0.00003231    -163.17041878
Si     -12.55359766      -7.30018365       1.54005441        1        1        0       0.00000134       0.00000024      -0.00001610    -163.19235034
Si      -2.89408114       7.12409011       2.38080492        1        0        0       0.00001280      -0.00002599      -0.00003090    -163.13007679
Si      -4.83749638       6.06449667       1.54005123        1        0        0       0.00000182      -0.00000080      -0.00000917    -163.19234584
Si      -0.99554655      -0.62719433     -17.40215366        0        0        0       0.00000000      -0.00000001       0.29815226    -162.40209692
Si       0.92554103       0.48194610     -16.61787294        0        0        0       0.00000005       0.00000004      -0.48431280    -162.72503710
Si       0.92554103       0.48194610     -14.26503077        0        0        0      -0.00002999      -0.00001660       0.19842582    -163.16816872
Si       2.84662862       1.59108653     -13.48075005        0        0        0      -0.00036298      -0.00020568      -0.12252706    -163.17570533
Si       2.84662862       1.59108653     -11.12790790        0        0        0       0.00080668       0.00046250       0.01576947    -163.17489364
Si       4.76771619       2.70022697     -10.34362717        0        0        0       0.00008356       0.00007127       0.10729417    -163.17798432
Si       4.76778815       2.70028867      -7.97761799        0        0        0       0.00000228       0.00000267      -0.00003116    -163.17727631
Si       6.68992275       3.81003485      -7.18228210        0        0        0      -0.00000174      -0.00000652      -0.00001516    -163.17889982
Si       6.69132315       3.81085950      -4.81883915        0        0        0       0.00000715      -0.00001557       0.00000220    -163.17677995
Si       8.60620604       4.91641689      -4.00249024        0        0        0       0.00000991      -0.00000369       0.00001477    -163.17934358
Si       8.60023540       4.91297973      -1.63213929        0        0        0      -0.00000680      -0.00000752       0.00000628    -163.18470992
Si      10.53811638       6.03181719      -0.88693196        0        0        0      -0.00001257      -0.00001194       0.00001451    -163.16796531
Si       0.92554103       2.70022697     -17.40215366        0        0        0       0.00000005      -0.00000005       0.29815230    -162.40209691
Si       2.84662862       3.80936740     -16.61787294        0        0        0      -0.00000005      -0.00000002      -0.48431278    -162.72503710
Si       2.84662862       3.80936740     -14.26503077        0        0        0      -0.00005278       0.00003392       0.19866955    -163.16816871
Si       4.76771619       4.91850783     -13.48075005        0        0        0       0.00001487       0.00044933      -0.12252711    -163.17570529
Si       4.76771619       4.91850783     -11.12790790        0        0        0      -0.00001235      -0.00095604       0.01577129    -163.17489385
Si       6.68880378       6.02764826     -10.34362717        0        0        0       0.00562831       0.00080563       0.09413120    -163.17775472
Si       6.69032871       6.02784413      -7.97920003        0        0        0      -0.00001395       0.00001002      -0.00000398    -163.17492018
Si       8.61091377       7.13522546      -7.17742579        0        0        0      -0.00000582       0.00000065      -0.00001633    -163.18027442
Si       8.61299614       7.13262124      -4.81162949        0        0        0       0.00000347      -0.00001028      -0.00000893    -163.17818302
Si      10.53464216       8.25004589      -4.02265578        0        0        0      -0.00000224      -0.00001272       0.00001040    -163.17524226
Si      10.53925599       8.25651278      -1.65938215        0        0        0      -0.00000509      -0.00001397       0.00000816    -163.17764485
Si      12.46503590       9.34785160      -0.83664120        0        0        0      -0.00000596      -0.00001069       0.00000199    -163.18334561
Si       2.84662862       6.02764826     -17.40215366        0        0        0       0.00000000      -0.00000000       0.29815226    -162.40209691
Si       4.76771619       7.13678869     -16.61787294        0        0        0       0.00000005       0.00000004      -0.48431280    -162.72503711
Si       4.76771619       7.13678869     -14.26503077        0        0        0       0.00000253       0.00003979       0.19842593    -163.16816872
Si       6.68880378       8.24592913     -13.48075005        0        0        0      -0.00039077      -0.00011079      -0.12239299    -163.17573937
Si       6.68880378       8.24592913     -11.12790790        0        0        0       0.00098504       0.00008042       0.01173246    -163.17435498
Si       8.60989136       9.35506956     -10.34362717        0        0        0      -0.00312595      -0.00509451       0.10551752    -163.17810886
Si       8.60884287       9.35355112      -7.97778059        0        0        0      -0.00000078      -0.00000628      -0.00000497    -163.17614383
Si      10.53002294      10.46487462      -7.18472343        0        0        0       0.00000017      -0.00000784      -0.00001183    -163.17771922
Si      10.52801595      10.46610500      -4.82232004        0        0        0       0.00000121       0.00000437       0.00000034    -163.17730882
Si      12.45049995      11.56841066      -4.02265542        0        0        0       0.00000414      -0.00000217       0.00000902    -163.17524491
Si      12.44726499      11.56128464      -1.65938043        0        0        0      -0.00000090      -0.00000788      -0.00000006    -163.17764813
Si      14.37334345      12.67462410      -0.88692370        0        0        0      -0.00001597       0.00000366      -0.00000656    -163.16796826
Si       4.76771619       9.35506956     -17.40215366        0        0        0       0.00000005      -0.00000005       0.29815230    -162.40209691
Si       6.68880378      10.46420999     -16.61787294        0        0        0      -0.00000005      -0.00000002      -0.48431278    -162.72503710
Si       6.68880378      10.46420999     -14.26503077        0        0        0      -0.00001751      -0.00003447       0.19863778    -163.16816872
Si       8.60989136      11.57335042     -13.48075005        0        0        0       0.00022663      -0.00010950      -0.12260484    -163.17567965
Si       8.60989136      11.57335042     -11.12790790        0        0        0      -0.00024679       0.00012497       0.01677442    -163.17497845
Si      10.53097894      12.68249085     -10.34362717        0        0        0       0.00295230       0.00543238       0.10550932    -163.17810831
Si      10.53185966      12.68431252      -7.97778166        0        0        0      -0.00001311      -0.00000502       0.00000345    -163.17614294
Si      12.45402743      13.79169801      -7.17742635        0        0        0      -0.00000327      -0.00000859      -0.00000885    -163.18027370
Si      12.45738674      13.79130637      -4.81162987        0        0        0       0.00001212      -0.00001979       0.00000953    -163.17818209
Si      14.37328880      14.90530284      -4.00248740        0        0        0      -0.00000633      -0.00004191       0.00002084    -163.17934344
Si      14.37333623      14.91228855      -1.63213336        0        0        0      -0.00000724      -0.00000743      -0.00000541    -163.18470781