886
Lattice="26.909628222812664 6.88986361545656e-19 4.099401610351673e-20 13.454814111406332 23.30442164480527 -1.6498016413856798e-19 7.9040771588362025e-19 2.854870804518528e-19 34.86278781389369" Properties=species:S:1:pos:R:3:forces:R:3:energies:R:1 cutoff_factor=1.2 nneightol=1.2 energy=-144460.97040095556 free_energy=-144460.97040095556 stress="0.0005070850032195391 7.92546110769182e-09 -2.1445346968243265e-08 7.92546110769182e-09 0.0005070881739127214 -1.1829367252231927e-08 -2.1445346968243265e-08 -1.1829367252231927e-08 -0.001013995015200758" pbc="T T T"
Si      13.38476877       2.83742356       9.86326148      -0.00000858      -0.00000045       0.00000207    -162.14972285
Si       9.49774552       9.56995355       9.86327604      -0.00001283      -0.00000975      -0.00000266    -162.14972030
Si       5.64454476       2.85695996       9.81867635      -0.00000572       0.00000799      -0.00000189    -162.21486126
Si      34.60615752      19.57797065       9.74889826      -0.00000647      -0.00001114      -0.00001027    -162.23076327
Si      26.83957805      19.59143692       9.82685925       0.00000328      -0.00000529      -0.00003058    -162.16566780
Si      30.73454282      12.84518596       9.82685993      -0.00001115       0.00001625      -0.00003476    -162.16567088
Si      19.07301201      19.57793656       9.74891017       0.00000584       0.00001521       0.00000021    -162.23076060
Si      21.12498680       2.85697544       9.81867069      -0.00001065      -0.00000288      -0.00001721    -162.21486030
Si      22.94463184      12.84517421       9.82685994       0.00000142      -0.00000064      -0.00004088    -162.16567130
Si      13.38477305      16.26339776       9.81866810      -0.00002686       0.00000382       0.00000286    -162.21486333
Si      26.83958188       6.12587804       9.74889957      -0.00000502      -0.00000959      -0.00002993    -162.23076396
Si      17.27179041       9.56995562       9.86325966       0.00000008       0.00000790       0.00001243    -162.14972309
Si      13.38476963      18.28204984       8.42924466      -0.00000220       0.00002610      -0.00000890    -162.63531626
Si      11.17571696      18.99583581       7.64071722       0.00003557       0.00000025      -0.00000628    -162.99713724
Si      11.51912048      15.32083216       8.48673934       0.00001368      -0.00000144      -0.00001139    -162.69445774
Si       9.96489849      16.91144223       7.63914920       0.00000725      -0.00002496      -0.00000961    -163.00296161
Si       9.42283708      11.59544404       8.43426898       0.00000226      -0.00000208      -0.00002134    -162.69080325
Si       7.26541756      12.23568622       7.63409660      -0.00000556       0.00000403      -0.00001912    -163.02727093
Si       7.70615029       8.62208073       8.43427736       0.00002356       0.00000030      -0.00001571    -162.69080431
Si       6.07299354      10.17035808       7.63409830       0.00000095      -0.00001772      -0.00001541    -163.02726795
Si       5.52801664       4.94394317       8.48674963       0.00001706       0.00000382      -0.00002946    -162.69445665
Si       3.37340611       5.49464803       7.63915214       0.00001778       0.00000910      -0.00000515    -163.00296160
Si       3.89634115       1.84763814       8.42924675      -0.00001074       0.00000585      -0.00000344    -162.63531434
Si       2.17367007       3.40385448       7.64071729       0.00001790      -0.00002051      -0.00000265    -162.99713856
Si      36.39254960      20.60933461       8.40332303      -0.00002418       0.00000701      -0.00002333    -162.69051020
Si      34.57144924      19.55792343       7.26990929       0.00000654      -0.00000950       0.00006788    -162.26516110
Si      34.71126017      17.49268152       8.43031972      -0.00000244       0.00003698      -0.00001901    -162.76507573
Si      32.78060721      16.14988815       7.84679152      -0.00000367      -0.00001971      -0.00001711    -162.97285302
Si      32.55286183      13.79727376       8.42763834      -0.00000077       0.00000063      -0.00000933    -162.76058308
Si      30.68360955      12.87459362       7.27118312       0.00000425      -0.00002539      -0.00001499    -162.37763955
Si      30.81916614      10.79443204       8.42764538      -0.00002493      -0.00001712      -0.00003037    -162.76058323
Si      28.89561718       9.42089006       7.84679728       0.00000374      -0.00001106      -0.00002204    -162.97284996
Si      28.69804336       7.07749106       8.43030976      -0.00002046      -0.00001666      -0.00000962    -162.76507805
Si      26.83958432       6.16594495       7.26990832       0.00000963       0.00000306       0.00008742    -162.26516158
Si      26.83958189       4.06312695       8.40333339      -0.00001912       0.00000658      -0.00003056    -162.69051563
Si      24.59586052       3.40386291       7.64071344       0.00001121      -0.00002610      -0.00000815    -162.99713803
Si      35.84162310      22.88209171       7.64071317       0.00001565      -0.00001564      -0.00001789    -162.99713831
Si      32.85280057      20.71163102       8.43030510       0.00001975      -0.00001796      -0.00000007    -162.76507707
Si      30.72457406      19.71103184       7.84678785       0.00000697      -0.00000013      -0.00000268    -162.97285003
Si      30.80519711      17.38348242       8.14577539       0.00001297      -0.00000912       0.00000577    -162.52551391
Si      28.79921782      16.22533186       7.83779936      -0.00000723      -0.00001431       0.00000125    -163.00906910
Si      28.90650377      13.90060673       8.43521042      -0.00001029      -0.00001161       0.00002201    -162.73506002
Si      26.83959128      12.83114472       7.83780721      -0.00000216      -0.00000796      -0.00000121    -163.00906606
Si      26.83959255      10.51484402       8.14582153      -0.00002264      -0.00000522      -0.00002736    -162.52550728
Si      24.78356330       9.42089051       7.84679280       0.00001215      -0.00000233       0.00000537    -162.97285296
Si      24.98112527       7.07749267       8.43030221       0.00001650      -0.00001667       0.00001068    -162.76507691
Si      23.39612630       5.49465613       7.63914625      -0.00002365      -0.00000092       0.00001081    -163.00296570
Si      22.87318753       1.84765304       8.42923922      -0.00000023       0.00000562      -0.00000414    -162.63531974
Si      21.04672010       2.90216041       7.32242132       0.00000406      -0.00000463      -0.00001180    -162.29631933
Si      33.43107497      22.87569522       7.63914223      -0.00002206       0.00000422       0.00000275    -163.00296242
Si      28.57327257      20.69009226       8.42763296       0.00001260       0.00001435      -0.00001101    -162.76058247
Si      26.83958534      19.53260314       7.27118077      -0.00000000       0.00002854      -0.00003350    -162.37764220
Si      26.83958611      17.48059356       8.43522740       0.00000112      -0.00004748       0.00001242    -162.73506032
Si      24.87996156      16.22531773       7.83780401      -0.00000708      -0.00000207      -0.00000527    -163.00906707
Si      24.77267493      13.90059342       8.43521796       0.00001710       0.00000212       0.00000878    -162.73505954
Si      22.99557495      12.87457933       7.27118059      -0.00000695      -0.00001140       0.00002051    -162.37763987
Si      22.86000863      10.79442036       8.42764041       0.00000370      -0.00001246      -0.00001562    -162.76058222
Si      20.69654885      10.17034823       7.63408972      -0.00000415      -0.00000789       0.00000347    -163.02727138
Si      21.24150780       4.94395550       8.48673766       0.00000329       0.00000131      -0.00002661    -162.69445835
Si      19.32773389       6.28042442       7.82013162       0.00000928      -0.00001524      -0.00001152    -163.05019783
Si      19.37586682       1.71257278       8.48673900       0.00000480      -0.00000853      -0.00003051    -162.69445555
Si      17.26155879       2.70169277       7.82011890       0.00000627      -0.00000180      -0.00000715    -163.05019803
Si      28.03199872      22.87573402       7.63407831       0.00002629      -0.00000762       0.00001021    -163.02727090
Si      25.10588889      20.69008733       8.42762145       0.00000221       0.00001139       0.00000362    -162.76058358
Si      22.95459232      19.71101266       7.84678830      -0.00002566       0.00001492       0.00000731    -162.97284994
Si      22.87398093      17.38346358       8.14579086      -0.00001759      -0.00000141      -0.00000671    -162.52551189
Si      20.89857271      16.14986896       7.84678524      -0.00001286       0.00001626      -0.00000023    -162.97285371
Si      21.12631929      13.79725878       8.42762959      -0.00000366       0.00000974       0.00000036    -162.76058343
Si      19.50413258      12.23567917       7.63408447      -0.00002225       0.00000554      -0.00000127    -163.02727000
Si      19.06337125       8.62208188       8.43425502      -0.00000185       0.00002395      -0.00000851    -162.69080247
Si      17.18758848       9.52135052       7.28664892       0.00000596      -0.00001723       0.00007790    -162.42584722
Si      17.35119903       5.03575415       8.18700635       0.00001469       0.00000112      -0.00000411    -162.44991006
Si      15.33780581       6.19818573       7.83667279      -0.00000355       0.00000377      -0.00001076    -163.05856013
Si      15.10144263       1.75981033       8.43425087      -0.00002953       0.00000714      -0.00001169    -162.69080573
Si      13.38475629       2.93464839       7.28664872       0.00000802       0.00000693       0.00008359    -162.42584576
Si      25.64716132      22.87573483       7.63407910      -0.00003161      -0.00002002       0.00000420    -163.02727069
Si      20.82636667      20.71161156       8.43032315      -0.00000624      -0.00000228      -0.00001251    -162.76507178
Si      19.10771785      19.55790823       7.26992673       0.00000998      -0.00000451      -0.00005400    -162.26516387
Si      18.96791040      17.49265720       8.43031430      -0.00000041       0.00001898      -0.00000253    -162.76507552
Si      16.80463650      16.91142987       7.63914775       0.00002606      -0.00001456       0.00000272    -163.00296050
Si      17.34670592      11.59545387       8.43425718      -0.00000773      -0.00002195       0.00000233    -162.69080655
Si      15.45094740      12.99521926       7.82012454      -0.00000694      -0.00000211      -0.00000558    -163.05019898
Si      15.43688223       8.51057385       8.48085389      -0.00000652      -0.00000418       0.00002069    -162.65625697
Si      13.38475990       9.58096482       7.83666820      -0.00000056      -0.00001616       0.00000659    -163.05855955
Si      13.38475682       4.95619131       8.48085783       0.00001160      -0.00000792       0.00001190    -162.65626092
Si      11.43170807       6.19818101       7.83667108      -0.00000597       0.00000704      -0.00000108    -163.05855979
Si      11.66808343       1.75980476       8.43426530       0.00003763       0.00001788      -0.00001578    -162.69080623
Si       9.50796761       2.70168722       7.82013020      -0.00002257       0.00000321      -0.00000727    -163.05019856
Si      20.24808441      22.87567625       7.63915579       0.00003398      -0.00001329      -0.00001171    -163.00295974
Si      17.28662000      20.60931508       8.40334040       0.00001076       0.00000395      -0.00001887    -162.69051163
Si      15.59382478      18.99582672       7.64072226      -0.00003355       0.00000230      -0.00000288    -162.99714008
Si      15.25040563      15.32082680       8.48672721       0.00001024      -0.00001725      -0.00001135    -162.69445838
Si      13.38476099      16.17303306       7.32242168       0.00000132       0.00001303      -0.00003661    -162.29631820
Si      13.38476220      11.90582919       8.18701021       0.00003894       0.00000421      -0.00000582    -162.44991255
Si      11.31858475      12.99522342       7.82013117      -0.00001991       0.00000809      -0.00001723    -163.05019677
Si      11.33264300       8.51056647       8.48086131       0.00000897      -0.00000441       0.00002013    -162.65626047
Si       9.58193129       9.52133487       7.28666090       0.00000612       0.00001131       0.00005941    -162.42584894
Si       9.41831132       5.03575125       8.18700878       0.00003605      -0.00001604      -0.00000614    -162.44991207
Si       7.44178028       6.28042108       7.82013821      -0.00001147       0.00002249      -0.00001166    -163.05019590
Si       7.39365731       1.71256020       8.48673994       0.00003848      -0.00001055      -0.00002595    -162.69445521
Si       5.72280488       2.90214968       7.32242845      -0.00000973       0.00000310      -0.00002838    -162.29631911
Si      17.83753664      22.88207127       7.64072725       0.00000041       0.00000768      -0.00001337    -162.99713882
Si      11.44772073      19.46886443       5.30933726      -0.00000663      -0.00000602       0.00000650    -163.13522287
Si      36.50009968      18.39670344       4.33340797      -0.00001253       0.00000915       0.00000476    -163.08033662
Si       9.58683041      16.26549332       5.34157360      -0.00000743       0.00001691      -0.00000990    -163.16008842
Si      34.55827912      15.08934747       4.61885498      -0.00000934       0.00001038       0.00000787    -163.20619590
Si       7.60112273      12.82127416       5.32984101      -0.00000434       0.00000221       0.00001198    -163.16592531
Si      32.65780582      11.73477234       4.34763579      -0.00000527       0.00000235       0.00002468    -163.08850479
Si       5.73370673       9.58682474       5.32984597      -0.00000997       0.00000590       0.00000418    -163.16592564
Si      30.70289019       8.41162689       4.61886195      -0.00001465       0.00000670       0.00000194    -163.20619542
Si       3.74377814       6.14503863       5.34157762      -0.00001261       0.00000938      -0.00001204    -163.16008807
Si      28.80954365       5.07628612       4.33341137      -0.00002208      -0.00000137       0.00000567    -163.08033490
Si       1.90002016       2.93177799       5.30933651       0.00000511       0.00000232       0.00001199    -163.13522247
Si      26.83958528       1.86063563       4.58091814      -0.00000702       0.00003034       0.00002520    -163.08560705
Si      13.38477269      22.86206279       4.86797262      -0.00000693      -0.00000443      -0.00001780    -162.57277080
Si      38.29995026      21.71056413       4.58092618      -0.00001881      -0.00001028      -0.00000191    -163.08560777
Si      34.55986913      19.55122469       4.95787448       0.00001985      -0.00000097      -0.00002419    -163.26996701
Si      32.56012762      18.39667518       4.51567289       0.00000198      -0.00000859      -0.00000636    -163.16140404
Si      32.64569378      16.20056660       5.41820000      -0.00000506      -0.00001250       0.00000483    -163.08021313
Si      30.69672325      15.16966171       4.51971260      -0.00001161      -0.00000683      -0.00000423    -163.15070026
Si      30.70385871      12.86288982       4.96867201      -0.00002147       0.00000447       0.00002169    -163.18535165
Si      28.70256637      11.71568432       4.51971388      -0.00000347       0.00000200      -0.00000664    -163.15070129
Si      28.78425932       9.51237517       5.41820511      -0.00000312       0.00000362       0.00001334    -163.08021884
Si      26.83958650       8.48842171       4.51568319       0.00000340      -0.00000781      -0.00001861    -163.16140143
Si      26.83958378       6.17931700       4.95787464       0.00001651      -0.00001786      -0.00002291    -163.26996389
Si      24.86962602       5.07628800       4.33340833      -0.00000291      -0.00000879       0.00000997    -163.08033533
Si      24.86952037       2.93178005       5.30933370      -0.00001468       0.00000344       0.00001507    -163.13522519
Si      23.03723319       1.75293180       4.41837197      -0.00000561       0.00001428       0.00000363    -163.11364075
Si      36.38728101      22.88112355       5.30933253      -0.00001885      -0.00000213       0.00002325    -163.13522265
Si      34.53013863      21.80877209       4.33340677       0.00000669       0.00000553       0.00000426    -163.08033513
Si      30.70102196      19.56882894       5.41819877      -0.00000854      -0.00000384      -0.00000620    -163.08020786
Si      28.83375129      18.39642156       4.51970512      -0.00002274       0.00000213      -0.00000171    -163.15070300
Si      28.74890636      16.19626754       5.40473341       0.00000069      -0.00002308       0.00001117    -163.12856686
Si      26.83959125      15.09391880       4.55678959       0.00000311       0.00000869      -0.00000476    -163.21995196
Si      26.83958972      12.88923339       5.40473951       0.00001681       0.00000050       0.00001151    -163.12856990
Si      24.97661854      11.71567977       4.51971118      -0.00001040       0.00000644      -0.00000578    -163.15069839
Si      24.89491574       9.51237432       5.41820594       0.00000434       0.00000139      -0.00000743    -163.08022058
Si      22.97628354       8.41162912       4.61886200      -0.00001024      -0.00000694      -0.00001323    -163.20619875
Si      23.02576096       6.14504106       5.34157272       0.00000398      -0.00000192      -0.00002231    -163.16009136
Si      21.07962660       5.16222924       4.44574598       0.00001174      -0.00000884      -0.00002031    -163.08579059
Si      21.07120275       2.88801479       5.00466457       0.00001501      -0.00000839       0.00001030    -163.28191097
Si      19.10589287       1.74360659       4.44573273       0.00000662       0.00000357       0.00000005    -163.08579154
Si      32.68263567      22.87122677       5.34156719       0.00000403      -0.00000290      -0.00000679    -163.16008786
Si      30.69497492      21.78078189       4.61884844      -0.00000915       0.00000220      -0.00000076    -163.20619499
Si      26.83958866      19.55597216       4.96867031      -0.00000314      -0.00000410       0.00000777    -163.18535353
Si      24.84543012      18.39641297       4.51970929       0.00000557       0.00001246       0.00001252    -163.15070188
Si      24.93027389      16.19625777       5.40473698      -0.00000433      -0.00000162       0.00001481    -163.12856880
Si      22.98246101      15.16964999       4.51971107      -0.00000563       0.00000075       0.00000220    -163.15070087
Si      22.97532622      12.86287947       4.96867329       0.00000546       0.00001490      -0.00001310    -163.18535204
Si      21.02137739      11.73476616       4.34763398      -0.00001502       0.00000160       0.00001593    -163.08850460
Si      21.03583125       9.58681821       5.32983888       0.00000519      -0.00000919       0.00000914    -163.16592954
Si      19.19962585       8.40081324       4.44849234      -0.00000142       0.00001191      -0.00002279    -163.08874103
Si      19.18875691       6.22669589       5.37189619       0.00001822       0.00000479       0.00000619    -163.16325094
Si      17.24258917       5.09844790       4.60879180      -0.00000604       0.00002511      -0.00001579    -163.14704746
Si      17.23858930       2.84889170       5.37188146       0.00000724      -0.00000145       0.00002464    -163.16325391
Si      15.36118177       1.75242333       4.44847672      -0.00001045       0.00001945      -0.00001122    -163.08874218
Si      28.70699307      22.87364803       5.32982747       0.00000838       0.00001074       0.00001605    -163.16592468
Si      26.83958124      21.81219610       4.34763053       0.00000442       0.00001578       0.00000763    -163.08850437
Si      22.97815387      19.56881675       5.41820058       0.00000120       0.00000755      -0.00000626    -163.08021213
Si      21.11904747      18.39666236       4.51567782      -0.00000972       0.00000843       0.00000046    -163.16140579
Si      21.03348699      16.20054994       5.41819639       0.00000135       0.00000767       0.00001082    -163.08021611
Si      19.12089592      15.08934062       4.61885536      -0.00000515       0.00000356       0.00000591    -163.20619725
Si      19.16842709      12.82126481       5.32983051      -0.00000973       0.00001366       0.00002584    -163.16592704
Si      17.22321666      11.82406687       4.44848309      -0.00000227      -0.00000376       0.00000078    -163.08873969
Si      17.22068928       9.54044401       4.97617375      -0.00000546      -0.00000476      -0.00006362    -163.21733890
Si      15.23983624       8.39679531       4.47847012       0.00000599      -0.00000429      -0.00000672    -163.06895351
Si      15.30443728       6.21743806       5.39110431      -0.00000770       0.00000712       0.00000762    -163.19148727
Si      13.38475864       5.18370389       4.47846946       0.00001674       0.00001722      -0.00001802    -163.06895240
Si      13.38476241       2.89641094       4.97617212      -0.00000241       0.00002436      -0.00005381    -163.21734079
Si      11.40834387       1.75242231       4.44847968       0.00001054       0.00002795      -0.00000139    -163.08874006
Si      24.97216764      22.87364638       5.32982788      -0.00000240       0.00001390       0.00002547    -163.16592604
Si      22.98418818      21.78077394       4.61885687       0.00000643      -0.00000209       0.00000695    -163.20619588
Si      19.11930507      19.55121353       4.95788581      -0.00000287       0.00000971       0.00002042    -163.26997195
Si      17.17907535      18.39669820       4.33341365      -0.00000285       0.00000032       0.00000232    -163.08033614
Si      17.18271390      16.26548707       5.34157525       0.00000043      -0.00000144      -0.00002197    -163.16008907
Si      15.35850827      15.07149179       4.44574535      -0.00000201       0.00001826      -0.00000759    -163.08579129
Si      15.33494366      12.90171405       5.37188902      -0.00000578       0.00001015       0.00001103    -163.16325356
Si      13.38476876      11.78040344       4.60878914       0.00000384       0.00000456       0.00000640    -163.14704779
Si      13.38475852       9.54242081       5.39110182       0.00001052      -0.00000646       0.00001062    -163.19148695
Si      11.52968018       8.39679683       4.47847055       0.00001736       0.00000106      -0.00001224    -163.06895487
Si      11.46508096       6.21743952       5.39110233       0.00001351       0.00000460       0.00002023    -163.19148757
Si       9.52693002       5.09844927       4.60879269       0.00002471      -0.00000815       0.00001254    -163.14704688
Si       9.53093752       2.84889123       5.37189267       0.00000568       0.00001061       0.00000158    -163.16325373
Si       7.66363663       1.74360008       4.44574646      -0.00000091       0.00000252      -0.00000631    -163.08579132
Si      20.99652516      22.87121659       5.34157790       0.00000021       0.00000099       0.00000481    -163.16008899
Si      19.14902470      21.80876148       4.33341576       0.00001440       0.00000392       0.00000149    -163.08033593
Si      15.32182535      19.46885925       5.30934467       0.00000473       0.00000597      -0.00003040    -163.13522439
Si      13.38477363      18.47147791       4.41837494      -0.00000607       0.00000467       0.00000667    -163.11364075
Si      13.38476841      16.20130540       5.00466530       0.00001707      -0.00000481       0.00001245    -163.28190939
Si      11.41103117      15.07149485       4.44574016       0.00000040       0.00000234       0.00000937    -163.08578985
Si      11.43459871      12.90171905       5.37189352       0.00000658       0.00001683       0.00000348    -163.16325041
Si       9.54632663      11.82407033       4.44848827      -0.00000322       0.00000859      -0.00000444    -163.08874262
Si       9.54883295       9.54044901       4.97618337       0.00003427      -0.00001320      -0.00005477    -163.21734256
Si       7.56990246       8.40081723       4.44849170       0.00000409      -0.00000051      -0.00000647    -163.08873933
Si       7.58076550       6.22670064       5.37189977       0.00000587       0.00000093       0.00000787    -163.16324933
Si       5.68990594       5.16222562       4.44574399      -0.00001600      -0.00000712      -0.00000430    -163.08579037
Si       5.69832773       2.88801377       5.00467178       0.00001209      -0.00002071       0.00000626    -163.28191123
Si       3.73230455       1.75292395       4.41837859      -0.00000300      -0.00000156       0.00000298    -163.11364072
Si      17.29188662      22.88111452       5.30934648      -0.00000083       0.00001153      -0.00001880    -163.13522291
Si      15.37922017      21.71055840       4.58092682       0.00002092      -0.00000974       0.00002070    -163.08560448
Si      36.45944083      18.41484613       2.00377084      -0.00001504      -0.00000039      -0.00001010    -163.15638355
Si      34.50549388      17.28888985       1.33915397       0.00000384      -0.00000145       0.00000551    -163.17874114
Si      34.54878821      15.08642389       2.20881235      -0.00002088       0.00000882      -0.00000226    -163.19194443
Si      32.61938818      14.01379270       1.34744468       0.00000674      -0.00000504       0.00001147    -163.17755274
Si      32.61693377      11.75837270       2.02086946      -0.00000836       0.00000152       0.00000264    -163.14787437
Si      30.66490789      10.62854087       1.34744826      -0.00000223      -0.00001391       0.00000181    -163.17755227
Si      30.70067681       8.42131514       2.20881815      -0.00002053       0.00000689       0.00000583    -163.19194508
Si      28.77163648       7.35757740       1.33916299       0.00000413       0.00000262      -0.00000412    -163.17874142
Si      28.77350232       5.10243038       2.00377563       0.00000741       0.00001731      -0.00001300    -163.15638181
Si      26.83958177       3.98146637       1.26498060       0.00001561       0.00000189       0.00001390    -163.17882070
Si      26.83958661       1.80190576       2.17479757      -0.00000393      -0.00002436       0.00001488    -163.13225962
Si      24.94859579       0.64940990       1.33877165      -0.00001406      -0.00000006      -0.00001596    -163.19270927
Si      38.35081940      21.73993715       2.17480313      -0.00000868      -0.00000551       0.00001159    -163.13225828
Si      36.46326595      20.65015632       1.26497850      -0.00000065      -0.00001911       0.00002737    -163.17882137
Si      32.57767725      18.40680465       2.13702336      -0.00000168       0.00000392      -0.00000691    -163.16544984
Si      30.68439933      17.31371834       1.27310906       0.00000141       0.00000539       0.00001865    -163.14469264
Si      30.69031226      15.13024327       2.14239828      -0.00000684       0.00000238      -0.00000986    -163.16139145
Si      28.76653042      13.98140759       1.37997576       0.00000092      -0.00001462       0.00000786    -163.19342865
Si      28.73349522      11.74094570       2.14239913      -0.00000358       0.00000348      -0.00000410    -163.16139168
Si      26.83959095      10.65432800       1.27311511      -0.00000067      -0.00001774       0.00001839    -163.14469322
Si      26.83958494       8.46815813       2.13703254       0.00000960       0.00000436      -0.00000998    -163.16544948
Si      24.90753386       7.35757820       1.33916070      -0.00000428       0.00000643      -0.00000815    -163.17874065
Si      24.90566301       5.10243290       2.00377295      -0.00000914       0.00000298      -0.00000638    -163.15638126
Si      22.97683826       3.98725125       1.27121473       0.00000474      -0.00000542      -0.00000779    -163.17073693
Si      23.01852570       1.76373472       2.06669516       0.00000169      -0.00000095      -0.00000147    -163.17158111
Si      21.07206690       0.68807201       1.27120876      -0.00000375      -0.00000671      -0.00001136    -163.17073700
Si      34.52551777      21.76449245       2.00376981      -0.00000916       0.00000019      -0.00000191    -163.15638321
Si      32.57344103      20.63529925       1.33915155      -0.00000686       0.00000355       0.00000323    -163.17874104
Si      28.79640751      18.41057554       2.14239247      -0.00001014       0.00000447      -0.00000847    -163.16139155
Si      26.83958828      17.31895663       1.37997643       0.00000770       0.00000301       0.00000746    -163.19342849
Si      26.83959130      15.09392179       2.17937232      -0.00000710      -0.00000411       0.00000052    -163.19664416
Si      24.91265260      13.98140564       1.37997552      -0.00000425      -0.00000718       0.00000155    -163.19342911
Si      24.94568687      11.74094403       2.14239742      -0.00000625       0.00000114      -0.00000697    -163.16139155
Si      23.01427363      10.62853787       1.34744652      -0.00000674      -0.00001002       0.00000089    -163.17755157
Si      22.97849542       8.42131399       2.20881838       0.00000301       0.00001086      -0.00000279    -163.19194447
Si      21.09393261       7.33463249       1.28756316       0.00000589      -0.00000504       0.00000833    -163.16491944
Si      21.07298816       5.12819284       2.08665621       0.00000551       0.00000328      -0.00000685    -163.16521919
Si      19.13586253       4.00538442       1.33843041      -0.00000874       0.00000555       0.00001012    -163.18221876
Si      19.13205277       1.76637771       2.08664453       0.00000047       0.00000140       0.00000509    -163.16521930
Si      17.23169358       0.64501943       1.28755002      -0.00000841      -0.00001053       0.00001904    -163.16491868
Si      30.68769497      21.77402276       2.20880536      -0.00000624       0.00000109       0.00001290    -163.19194524