886
Lattice="26.659828176444655 -5.118706373269389e-20 1.195410080721103e-19 13.329914088222328 23.088088458803266 2.167774045493446e-20 -1.0096762068993216e-18 1.08123383979389e-18 34.53915918772562" Properties=species:S:1:pos:R:3:forces:R:3:energies:R:1 cutoff_factor=1.2 nneightol=1.2 energy=-5078.355457842363 free_energy=-5078.355457842363 stress="0.0017109341112627238 -5.668515143312534e-07 -4.358231223854778e-06 -5.668515143312534e-07 0.0017109259856410849 -4.2184180271834344e-07 -4.358231223854778e-06 -4.2184180271834344e-07 -0.003422003690139345" pbc="T T T"
Si      13.25996533       2.86828596       9.77037412       0.00012294       0.00033135       0.00012860      -4.55504446
Si       9.45855360       9.45226250       9.77039850       0.00014985       0.00004721       0.00006177      -4.55502750
Si       5.61257336       2.84236122       9.75073410      -0.00014271      -0.00021573       0.00001947      -4.57211649
Si      34.23383402      19.36695034       9.69674047       0.00012134      -0.00002349      -0.00007494      -4.58512796
Si      26.59017496      19.33908721       9.71861257      -0.00004483      -0.00004180       0.00021448      -4.56379459
Si      30.38774970      12.76128112       9.71864167       0.00006671      -0.00005672       0.00042335      -4.56378471
Si      18.94641067      19.36682988       9.69682196      -0.00004916      -0.00002224      -0.00012808      -4.58513410
Si      20.90749435       2.84266070       9.75074690       0.00053136      -0.00025775       0.00002443      -4.57210327
Si      22.79236227      12.76120499       9.71872815       0.00001414      -0.00002910       0.00003545      -4.56377417
Si      13.26003152      16.08817796       9.75073137       0.00033291       0.00030993       0.00024401      -4.57209359
Si      26.58997649       6.12768541       9.69674863       0.00025491      -0.00018851      -0.00000903      -4.58514768
Si      17.06137475       9.45239966       9.77047173      -0.00013756       0.00011190       0.00009371      -4.55500548
Si      13.26010940      18.09974924       8.36164174       0.00035210       0.00008462       0.00006809      -5.28918306
Si      11.07226793      18.84210159       7.58969886      -0.00043312       0.00010026      -0.00041855      -5.58230171
Si      11.44252528      15.14984672       8.39950389      -0.00046375      -0.00037538      -0.00017887      -5.38582656
Si       9.85659744      16.72873200       7.60374589       0.00034224       0.00013741      -0.00012338      -5.70648311
Si       9.37103695      11.47691475       8.38463358      -0.00000294      -0.00025449       0.00003823      -5.46101633
Si       7.20953343      12.14351132       7.61454563      -0.00005281       0.00015250      -0.00013829      -5.66206344
Si       7.66137892       8.51584881       8.38460522       0.00044333       0.00047616       0.00003964      -5.46102480
Si       6.00349272      10.05472315       7.61454589       0.00018346      -0.00019065      -0.00012581      -5.66204203
Si       5.51640685       4.88557724       8.39949086      -0.00000483       0.00000447       0.00001274      -5.38583505
Si       3.35615520       5.46972769       7.60379171      -0.00015581       0.00001112      -0.00030460      -5.70646962
Si       3.87046625       1.83654951       8.36170878       0.00027352       0.00021904      -0.00026738      -5.28909369
Si       2.13372117       3.36027956       7.58972108      -0.00008360       0.00023028      -0.00017600      -5.58226406
Si      35.98288985      20.37675568       8.31943963       0.00026188      -0.00017835      -0.00010469      -5.30942561
Si      34.20149135      19.34827681       7.13881959       0.00000222       0.00012856      -0.00036401      -5.45552087
Si      34.33458737      17.33224357       8.33269783      -0.00011451      -0.00015326      -0.00009966      -5.43630273
Si      32.37698703      16.04142324       7.77532065       0.00007652      -0.00000176       0.00004221      -5.60995440
Si      32.19808997      13.69454775       8.33854395       0.00029812      -0.00029380       0.00033473      -5.48993005
Si      30.37570890      12.76820397       7.16018360      -0.00016201       0.00014835      -0.00026490      -5.42013616
Si      30.48458115      10.72681612       8.33855763       0.00014809      -0.00032353       0.00030390      -5.48997212
Si      28.54158582       9.39845383       7.77534545       0.00024207       0.00002670      -0.00005176      -5.60997479
Si      28.40252243       7.05770035       8.33273894       0.00015373      -0.00010182      -0.00012759      -5.43626391
Si      26.59003275       6.16498907       7.13883162       0.00016019       0.00022584      -0.00056162      -5.45546639
Si      26.58998168       4.10805755       8.31942029       0.00023310      -0.00057082       0.00011388      -5.30951580
Si      24.38642639       3.36045046       7.58975281       0.00003350      -0.00000716      -0.00049553      -5.58229713
Si      35.52858227      22.65894346       7.58975374      -0.00026063      -0.00002689      -0.00042608      -5.58219442
Si      32.52215559      20.47164217       8.33273611      -0.00004451      -0.00015627      -0.00025534      -5.43626755
Si      30.42549929      19.42174913       7.77530805      -0.00028698      -0.00026331       0.00019225      -5.61000327
Si      30.48680349      17.20365161       8.55928363      -0.00000150       0.00006238      -0.00005525      -4.91927219
Si      28.58316528      16.10456044       7.77307166       0.00002321      -0.00014698      -0.00009707      -5.66313507
Si      28.62302229      13.78017585       8.32554014      -0.00000160       0.00007165       0.00018768      -5.58538014
Si      26.59008051      12.65256576       7.77311426       0.00007739      -0.00006475      -0.00010793      -5.66312016
Si      26.59006201      10.45441371       8.55933252      -0.00002266      -0.00012003      -0.00005871      -4.91927632
Si      24.63851144       9.39847713       7.77534554      -0.00021427       0.00021978       0.00003079      -5.61000253
Si      24.77755837       7.05775210       8.33269089      -0.00020555       0.00014681      -0.00000805      -5.43631693
Si      23.16402372       5.46991636       7.60379859      -0.00009743      -0.00031086      -0.00023264      -5.70644057
Si      22.64963232       1.83683064       8.36170193      -0.00001407       0.00000803      -0.00003943      -5.28919798
Si      20.85282900       2.87421110       7.19930281       0.00007785      -0.00001006      -0.00024043      -5.40655723
Si      33.09052202      22.66289937       7.60379350       0.00017190       0.00022264      -0.00041306      -5.70649604
Si      28.30357901      20.44025637       8.33851311       0.00002495      -0.00017061       0.00031578      -5.48992993
Si      26.59017075      19.32514765       7.16012786      -0.00008670       0.00007171      -0.00010772      -5.42022253
Si      26.59017218      17.30130940       8.32548488      -0.00000240       0.00006450       0.00048270      -5.58535821
Si      24.59718609      16.10449404       7.77313463      -0.00038493      -0.00003914      -0.00009372      -5.66309848
Si      24.55711565      13.78009952       8.32555949       0.00007730       0.00013541       0.00034182      -5.58536880
Si      22.80439388      12.76817672       7.16022575       0.00012824      -0.00011740      -0.00014573      -5.42018286
Si      22.69544226      10.72675533       8.33860556      -0.00016598       0.00001275       0.00019347      -5.48994833
Si      20.51659880      10.05474857       7.61461867       0.00006933       0.00013001      -0.00018878      -5.66197569
Si      21.00369071       4.88585585       8.39945957      -0.00007151       0.00001928       0.00019481      -5.38586349
Si      19.07413623       6.18566151       7.78863046      -0.00000466      -0.00001708      -0.00007834      -5.56923255
Si      19.18615631       1.73772803       8.39948410      -0.00025259      -0.00023649      -0.00004327      -5.38583042
Si      17.09562003       2.75871212       7.78859541       0.00004710      -0.00013731       0.00009543      -5.56917726
Si      27.79603626      22.66307617       7.61449356       0.00011737       0.00039391      -0.00016084      -5.66208382
Si      24.87670310      20.44017521       8.33852158      -0.00004524      -0.00012502       0.00021573      -5.48996279
Si      22.75482874      19.42158819       7.77531226       0.00025293       0.00012781       0.00004221      -5.60997373
Si      22.69350731      17.20357374       8.55933883       0.00017235      -0.00032219      -0.00004006      -4.91925762
Si      20.80326396      16.04137261       7.77543521      -0.00009073      -0.00021389      -0.00011712      -5.61002681
Si      20.98201354      13.69448359       8.33861207      -0.00008418      -0.00004591       0.00035047      -5.48992444
Si      19.31060623      12.14358377       7.61460762      -0.00005169      -0.00019433      -0.00003809      -5.66199697
Si      18.85853329       8.51604845       8.38464493       0.00001121       0.00003924       0.00008545      -5.46102762
Si      17.02981567       9.43425650       7.20249185       0.00034664      -0.00007501      -0.00015530      -5.39284012
Si      17.16229688       5.00479563       8.45735727      -0.00016935       0.00020235      -0.00029928      -4.94087285
Si      15.23031755       6.12015262       7.80739617       0.00025069       0.00012211      -0.00017788      -5.63369534
Si      14.96959272       1.78023706       8.38460044       0.00017251      -0.00031077       0.00000282      -5.46100234
Si      13.26001002       2.90471483       7.20240346       0.00014191      -0.00019320      -0.00044870      -5.39288471
Si      25.38407137      22.66302326       7.61446321       0.00012325       0.00000528      -0.00023537      -5.66206516
Si      20.65814037      20.47142401       8.33276422      -0.00011156       0.00027761      -0.00016674      -5.43625879
Si      18.97878172      19.34808661       7.13890615      -0.00020834       0.00001790      -0.00051207      -5.45549526
Si      18.84560269      17.33209517       8.33283616       0.00002482      -0.00018149      -0.00021295      -5.43625971
Si      16.66369606      16.72860631       7.60389848       0.00008707       0.00027350      -0.00022975      -5.70636476
Si      17.14898062      11.47701342       8.38466625       0.00016218       0.00017807       0.00016872      -5.46101033
Si      15.23850987      12.82887096       7.78867735       0.00033603      -0.00021932       0.00021923      -5.56922291
Si      15.29216894       8.43100077       8.39505844      -0.00008955      -0.00034288       0.00002381      -5.54139126
Si      13.25992079       9.53268340       7.80735556       0.00009400       0.00037835       0.00001223      -5.63365928
Si      13.25995699       4.91117569       8.39495231       0.00023241      -0.00009058       0.00041889      -5.54139941
Si      11.28959619       6.12002942       7.80732799      -0.00029624       0.00006071      -0.00017700      -5.63371799
Si      11.55048061       1.78010248       8.38453732      -0.00001404       0.00011850       0.00026534      -5.46103997
Si       9.42445189       2.75857187       7.78858882       0.00028664      -0.00011088       0.00000868      -5.56921226
Si      20.08967022      22.66266781       7.60377275      -0.00006684       0.00007851      -0.00028074      -5.70649373
Si      17.19735205      20.37658394       8.31947392      -0.00019092      -0.00012839      -0.00008796      -5.30950351
Si      15.44810432      18.84199769       7.58979960      -0.00001215      -0.00001325      -0.00043894      -5.58225870
Si      15.07765880      15.14980769       8.39954548      -0.00042032      -0.00006662       0.00006620      -5.38585190
Si      13.26008723      16.02497484       7.19931227       0.00037854      -0.00024807      -0.00032235      -5.40657113
Si      13.25994172      11.76350686       8.45729123       0.00011453      -0.00001811      -0.00026514      -4.94087857
Si      11.28142146      12.82886411       7.78864286       0.00013445       0.00008959       0.00004359      -5.56915609
Si      11.22770559       8.43085080       8.39497835       0.00047242      -0.00003509       0.00014655      -5.54136105
Si       9.49008421       9.43410015       7.20240806      -0.00027956       0.00025554       0.00051108      -5.39288986
Si       9.35770481       5.00461196       8.45748903       0.00034510       0.00047153      -0.00043771      -4.94087647
Si       7.44586913       6.18540916       7.78862541       0.00037936       0.00031768      -0.00010241      -5.56924800
Si       7.33401253       1.73750641       8.39946295      -0.00008879      -0.00008285       0.00006456      -5.38584734
Si       5.66727332       2.87394438       7.19928895       0.00010500      -0.00002669      -0.00010307      -5.40662924
Si      17.65160457      22.65871939       7.58974258       0.00022314       0.00002093      -0.00038821      -5.58227712
Si      11.33284252      19.32973501       5.28065567      -0.00006483      -0.00003475       0.00011040      -5.83048381
Si      36.16790096      18.23138419       4.31340788       0.00015005       0.00018624      -0.00051416      -5.84699853
Si       9.50292389      16.12452872       5.32042895       0.00001534      -0.00024891      -0.00004416      -5.81364754
Si      34.24582190      14.94526451       4.61190190       0.00001843      -0.00001167      -0.00003214      -5.79925309
Si       7.52222277      12.69769673       5.31978735       0.00006952       0.00012617       0.00018845      -5.82307703
Si      32.35179968      11.62719023       4.33049015       0.00029359      -0.00023296      -0.00051490      -5.85000924
Si       5.67993722       9.50684799       5.31979348      -0.00009720       0.00003222       0.00000411      -5.82309957
Si      30.42521878       8.32786868       4.61190576       0.00018483       0.00013279       0.00005483      -5.79923013
Si       3.70258141       6.07810960       5.32044986       0.00016786       0.00012988       0.00013370      -5.81366254
Si      28.54037493       5.02026605       4.31346735       0.00013591       0.00002549      -0.00079867      -5.84698020
Si       1.84172578       2.89078751       5.28069203       0.00006835      -0.00014414       0.00006147      -5.83044752
Si      26.59007080       1.71135739       4.59184583       0.00006832       0.00025117      -0.00017515      -5.78075062
Si      13.26022295      22.64965995       5.49514603      -0.00013082       0.00001350      -0.00065944      -4.89088603
Si      38.05829452      21.57485455       4.59176882       0.00014225      -0.00008784      -0.00007663      -5.78074569
Si      34.21814077      19.35783592       4.86897758      -0.00022702      -0.00012248      -0.00001272      -5.64185886
Si      32.24053510      18.21609354       4.46137338       0.00053976       0.00001030       0.00025511      -5.81956316
Si      32.33103196      16.04925185       5.37886220       0.00010632      -0.00005031      -0.00012361      -5.86983081
Si      30.41186334      15.03460603       4.46348374      -0.00005898      -0.00013707       0.00001525      -5.82372220
Si      30.40251878      12.75276865       4.89481184      -0.00012163      -0.00019287       0.00001303      -5.64314864
Si      28.43103638      11.60377510       4.46353836       0.00024017       0.00006105      -0.00017370      -5.82373017
Si      28.51186955       9.43434412       5.37887231       0.00005680       0.00001303      -0.00002386      -5.86983795
Si      26.59009690       8.42933249       4.46139151       0.00003740       0.00002405       0.00023276      -5.81955988
Si      26.59010142       6.14582370       4.86900089      -0.00025519      -0.00012222      -0.00002912      -5.64183179
Si      24.63974542       5.02036837       4.31349068       0.00021274      -0.00005654      -0.00029359      -5.84699786
Si      24.67860210       2.89087687       5.28072728       0.00005793       0.00013218       0.00022459      -5.83045572
Si      22.84311369       1.72510458       4.40424213       0.00024340      -0.00028032       0.00004367      -5.85541628
Si      36.08123256      22.64067802       5.28071658      -0.00022564       0.00008689       0.00004432      -5.83045296
Si      34.21765304      21.60961479       4.31342220      -0.00003033      -0.00011019      -0.00020902      -5.84697312
Si      30.40933089      19.37795289       5.37886177      -0.00017672      -0.00000419      -0.00004539      -5.86978909
Si      28.57103571      18.22320563       4.46350576      -0.00027309      -0.00004385      -0.00013786      -5.82373371
Si      28.50241050      16.05790904       5.37520701      -0.00027828      -0.00022576       0.00021411      -5.88411353
Si      26.59022064      14.95387376       4.57232576      -0.00000956       0.00004780       0.00016179      -5.80419087
Si      26.59017071      12.74586576       5.37525021      -0.00016721       0.00014267       0.00025573      -5.88408646
Si      24.74924796      11.60382673       4.46356014      -0.00001703      -0.00002056      -0.00015582      -5.82375308
Si      24.66833863       9.43440710       5.37888371      -0.00011486      -0.00004145       0.00000578      -5.86984421
Si      22.75492256       8.32801797       4.61196483      -0.00005684       0.00012943      -0.00000511      -5.79923421
Si      22.81770755       6.07827949       5.32048701       0.00002531       0.00001433      -0.00011928      -5.81366710
Si      20.88068725       5.12083367       4.42189996      -0.00000634      -0.00015045      -0.00013738      -5.84406419
Si      20.88155853       2.85764546       4.92042892      -0.00017442       0.00018211       0.00004922      -5.64190364
Si      18.92118062       1.72681232       4.42183548       0.00008588      -0.00024330      -0.00003272      -5.84405246
Si      32.39049429      22.65864343       5.32043234      -0.00006919       0.00016069       0.00006654      -5.81369778
Si      30.41076204      21.58818570       4.61190461      -0.00015544       0.00005173      -0.00007340      -5.79921899
Si      26.59022298      19.35604284       4.89474127       0.00004147       0.00001861       0.00033796      -5.64313498
Si      24.60946321      18.22313059       4.46351125       0.00011970      -0.00018157      -0.00001466      -5.82369594
Si      24.67802191      16.05784686       5.37527437       0.00015572      -0.00013259       0.00005601      -5.88411922
Si      22.76852632      15.03457930       4.46356080       0.00019684      -0.00005473       0.00007593      -5.82370507
Si      22.77774170      12.75275709       4.89484014      -0.00008700      -0.00024838       0.00024841      -5.64313862
Si      20.82837063      11.62727177       4.33055163      -0.00018522      -0.00034628      -0.00002696      -5.84999806
Si      20.84031357       9.50692606       5.31985791      -0.00002358       0.00017458       0.00009867      -5.82309220
Si      19.02673451       8.31933743       4.43126922       0.00017149      -0.00003781       0.00003849      -5.85087290
Si      18.99486159       6.15972169       5.36475096       0.00021908      -0.00006185       0.00033757      -5.84192650
Si      17.08322360       5.05052742       4.55344516      -0.00017573       0.00017185       0.00024106      -5.85519961
Si      17.07850932       2.84039929       5.36472975       0.00006214       0.00000581       0.00018278      -5.84189869
Si      15.22417714       1.73303944       4.43116442       0.00013624      -0.00028712       0.00005314      -5.85086015
Si      28.43242232      22.65673671       5.31976087       0.00001534       0.00008971       0.00012798      -5.82308406
Si      26.59020946      21.60695946       4.33042126      -0.00017255       0.00029823      -0.00006482      -5.84998357
Si      22.77109820      19.37778174       5.37884569      -0.00015752       0.00008486       0.00010650      -5.86982115
Si      20.93982062      18.21593853       4.46143688      -0.00005297       0.00009449       0.00014860      -5.81958014
Si      20.84931594      16.04913361       5.37895362      -0.00025484       0.00017279       0.00009633      -5.86983099
Si      18.93444132      14.94526262       4.61203085      -0.00011478      -0.00003999      -0.00012860      -5.79923570
Si      18.99804019      12.69772234       5.31984268       0.00011898      -0.00004768       0.00024225      -5.82309453
Si      17.06272675      11.72093263       4.43132201       0.00016093      -0.00002653      -0.00015558      -5.85086555
Si      17.05931627       9.45117850       4.92543217       0.00005052       0.00006488       0.00001724      -5.63958095
Si      15.09177116       8.31522892       4.45863786       0.00024611       0.00017262      -0.00001095      -5.84504074
Si      15.17787032       6.15048714       5.38094189       0.00039582      -0.00025039       0.00018158      -5.84117034
Si      13.26011138       5.14263993       4.45862728      -0.00021096      -0.00007642      -0.00010120      -5.84507232
Si      13.26014724       2.87071926       4.92531991      -0.00004800       0.00021803       0.00036259      -5.63957055
Si      11.29615581       1.73296612       4.43116220       0.00020018      -0.00018641       0.00004355      -5.85083824
Si      24.74787455      22.65665640       5.31969819       0.00003964      -0.00010016       0.00011464      -5.82314707
Si      22.76959962      21.58799557       4.61186592       0.00008380       0.00031819       0.00006734      -5.79921865
Si      18.96220845      19.35762657       4.86906271       0.00001329       0.00004365      -0.00004667      -5.64182672
Si      17.01239300      18.23127387       4.31350899      -0.00023198      -0.00003959      -0.00021660      -5.84700932
Si      17.01745546      16.12442203       5.32059727       0.00004430       0.00012888      -0.00041265      -5.81365606
Si      15.21976118      14.92565020       4.42192614      -0.00016486      -0.00003278      -0.00003460      -5.84408711
Si      15.17647415      12.77306245       5.36483638       0.00010011       0.00040571      -0.00003136      -5.84190257
Si      13.26005754      11.67213265       4.55350759       0.00006391      -0.00004395       0.00003574      -5.85519655
Si      13.25999627       9.47208034       5.38091501       0.00021714       0.00018684       0.00025428      -5.84117471
Si      11.42832629       8.31513349       4.45859297      -0.00003319      -0.00003834       0.00012499      -5.84507778
Si      11.34218052       6.15034603       5.38086226       0.00039550       0.00012649       0.00024487      -5.84118986
Si       9.43694047       5.05034583       4.55335176       0.00005781       0.00017807       0.00028544      -5.85515722
Si       9.44176199       2.84025243       5.36472481      -0.00000073       0.00008462       0.00012595      -5.84189165
Si       7.59920248       1.72657435       4.42182441      -0.00010801      -0.00026670      -0.00007436      -5.84404224
Si      20.78981423      22.65841088       5.32043937       0.00005874       0.00012979      -0.00000841      -5.81367299
Si      18.96265502      21.60937555       4.31345393       0.00002782       0.00027740      -0.00014053      -5.84698847
Si      15.18759491      19.32962100       5.28074640       0.00012911       0.00008147      -0.00000471      -5.83045749
Si      13.26022028      18.32295918       4.40424977      -0.00009790       0.00007711      -0.00003504      -5.85542825
Si      13.26015686      16.05791109       4.92042614       0.00003058       0.00005892       0.00016335      -5.64191804
Si      11.30057889      14.92562830       4.42186038       0.00013293       0.00033029      -0.00019785      -5.84406762
Si      11.34361882      12.77305905       5.36477442       0.00009543       0.00012941       0.00019767      -5.84190404
Si       9.45745071      11.72081689       4.43121543       0.00007272       0.00026920      -0.00003214      -5.85087273
Si       9.46078963       9.45107426       4.92537490      -0.00002202       0.00000323      -0.00027110      -5.63953945
Si       7.49343621       8.31912850       4.43122772       0.00018863       0.00034587      -0.00008441      -5.85085628
Si       7.52530347       6.15953124       5.36474288       0.00001915      -0.00023282       0.00021868      -5.84190952
Si       5.63958267       5.12057940       4.42184625       0.00001013      -0.00003613      -0.00013744      -5.84407983
Si       5.63880646       2.85739004       4.92040180      -0.00016865       0.00028218       0.00015245      -5.64190076
Si       3.67721749       1.72489735       4.40421682       0.00006574       0.00003316       0.00006286      -5.85544256
Si      17.09903338      22.64047604       5.28071483       0.00011835       0.00006727      -0.00022222      -5.83047959
Si      15.12193498      21.57471705       4.59179835       0.00015403       0.00013205      -0.00004691      -5.78074474
Si      36.12760278      18.23621668       2.00711657       0.00022150      -0.00018686       0.00037545      -5.80274114
Si      34.18578890      17.12725410       1.34274208      -0.00024389       0.00003751      -0.00025465      -5.86145614
Si      34.22127879      14.94873415       2.21604312       0.00008591       0.00004337       0.00022972      -5.87027557
Si      32.31740920      13.88071034       1.35055952      -0.00010622       0.00036038       0.00004402      -5.86282596
Si      32.32125146      11.64488100       2.02328270       0.00021432      -0.00032048       0.00031637      -5.80073073
Si      30.38301743      10.53033324       1.35060516      -0.00020953       0.00005657      -0.00000243      -5.86285720
Si      30.41001861       8.34745634       2.21606172      -0.00000021       0.00006201      -0.00001736      -5.87027696
Si      28.50560453       7.28899043       1.34279822       0.00000736       0.00029026      -0.00032802      -5.86146824
Si      28.51610537       5.05280350       2.00717229       0.00013142      -0.00000294       0.00029876      -5.80276622
Si      26.59015261       3.93882768       1.30420692      -0.00016305      -0.00005017      -0.00015021      -5.85552374
Si      26.59015341       1.76189209       2.19038387       0.00015265       0.00015097      -0.00006913      -5.87409085
Si      24.71961378       0.64161589       1.33119290      -0.00017363       0.00007700      -0.00002455      -5.83304633
Si      38.01460616      21.54955436       2.19030648      -0.00001340       0.00011853       0.00006609      -5.87410352
Si      36.12936399      20.46113381       1.30411410       0.00004698       0.00036755      -0.00012682      -5.85550928
Si      32.26465059      18.22996704       2.11244524      -0.00003528      -0.00008220       0.00042610      -5.85098077
Si      30.39626326      17.15123990       1.24718946      -0.00002462       0.00007008       0.00009299      -5.81826520
Si      30.40238105      14.99472990       2.11613159      -0.00003291       0.00006369      -0.00003200      -5.84877772
Si      28.49059437      13.85669059       1.37533932       0.00005969      -0.00011559       0.00004232      -5.86776268
Si      28.46083642      11.63199746       2.11617217      -0.00000739      -0.00023242       0.00001491      -5.84878240
Si      26.59019158      10.55905438       1.24723497       0.00010117       0.00017550       0.00014337      -5.81825946
Si      26.59015961       8.40159640       2.11246911       0.00019391      -0.00009902       0.00054036      -5.85097398
Si      24.67470147       7.28908172       1.34284838      -0.00003112      -0.00001406      -0.00029634      -5.86145683
Si      24.66420131       5.05288795       2.00723187       0.00018628       0.00008570      -0.00014931      -5.80273261
Si      22.75718221       3.94728998       1.27899313       0.00006985       0.00002542      -0.00012415      -5.86200332
Si      22.81209659       1.74306377       2.06938788      -0.00002517      -0.00012077       0.00018041      -5.84383257
Si      20.87575826       0.68852869       1.27894581      -0.00005828      -0.00027405       0.00006155      -5.86204401
Si      34.20171681      21.57222457       2.00715445      -0.00002427       0.00016146      -0.00005426      -5.80275416
Si      32.27038397      20.44508623       1.34277011      -0.00008187      -0.00010048      -0.00025154      -5.86145257
Si      28.53178984      18.23488780       2.11614846       0.00005977      -0.00025642      -0.00005611      -5.84878747
Si      26.59031811      17.14824233       1.37534394      -0.00000232       0.00006294      -0.00004549      -5.86778000
Si      26.59026603      14.95389676       2.20282326       0.00003316      -0.00002954      -0.00006478      -5.84672948
Si      24.68992361      13.85671125       1.37537849      -0.00002210      -0.00014709      -0.00012236      -5.86777020
Si      24.71955815      11.63202540       2.11619854       0.00017579      -0.00014622       0.00000700      -5.84878915
Si      22.79735697      10.53043807       1.35066563       0.00008598       0.00004511       0.00001718      -5.86283507
Si      22.77028678       8.34759472       2.21613253       0.00001341      -0.00005702      -0.00008776      -5.87027369
Si      20.90564716       7.27260491       1.28466060      -0.00001890      -0.00001990      -0.00003024      -5.82374955
Si      20.87452113       5.09055207       2.08440209      -0.00026887      -0.00009522      -0.00006452      -5.84808050
Si      18.96032712       3.96698313       1.34102084       0.00011730      -0.00022479      -0.00029453      -5.86421605
Si      18.94436096       1.74741839       2.08433252      -0.00000334       0.00014385       0.00006336      -5.84808278
Si      17.07022788       0.62944133       1.28458761       0.00002587      -0.00008417       0.00009909      -5.82371500
Si      30.40153326      21.56518980       2.21606066      -0.00003396      -0.00004066      -0.00004592      -5.87028330