886
Lattice="26.923438669769066 5.497785030829425e-19 1.1009730153743006e-19 13.461719334884533 23.31638184270397 1.9898923841218558e-20 -1.5295033002269507e-19 -1.2051736195618864e-19 34.88067994818173" Properties=species:S:1:pos:R:3:forces:R:3 cutoff_factor=1.2 nneightol=1.2 energy=-144460.12974972435 free_energy=-144460.12974972435 stress="0.00042562796196407126 -7.880298736966167e-07 -3.7611029276248782e-06 -7.880298736966167e-07 0.0004261238164066098 -4.4426098489558133e-07 -3.7611029276248782e-06 -4.4426098489558133e-07 -0.000852924522214981" pbc="T T T"
Si      13.39109864       2.78949375       9.85940395       0.00007488      -0.00008516       0.00005631
Si       9.45937300       9.59936436       9.85949826       0.00010366       0.00015266      -0.00005830
Si       5.51362545       2.78133286       9.78415426       0.00019371      -0.00014361       0.00016227
Si      34.68966652      19.62628139       9.79212076      -0.00002741       0.00002082       0.00073550
Si      26.85314386      19.61302211       9.86103011      -0.00025440       0.00019499       0.00016077
Si      30.75983461      12.84603279       9.86108215       0.00016352      -0.00008202       0.00025101
Si      19.01643218      19.62603919       9.79218811      -0.00013067       0.00011584       0.00026174
Si      21.26863909       2.78158409       9.78409698       0.00006479      -0.00011943       0.00039077
Si      22.94603851      12.84599838       9.86109851       0.00011977       0.00000229       0.00033154
Si      13.39128340      16.42569174       9.78428196      -0.00013161      -0.00014314       0.00037013
Si      26.85289223       6.05284900       9.79220507      -0.00003298      -0.00010545      -0.00043666
Si      17.32284160       9.59945746       9.85951034       0.00017407       0.00003842       0.00008040
Si      13.39130685      18.37509549       8.34450564       0.00008698      -0.00004729      -0.00017301
Si      11.16785213      19.04180503       7.62041396      -0.00009429      -0.00038540      -0.00010213
Si      11.53691947      15.37731620       8.48847886      -0.00006590      -0.00049208       0.00025626
Si       9.95907440      16.93311451       7.64072987       0.00003043       0.00008523      -0.00008434
Si       9.41761724      11.64977609       8.44263007       0.00040250       0.00004676       0.00021316
Si       7.26636429      12.26836921       7.65367861      -0.00037264       0.00008552      -0.00010418
Si       7.66279089       8.61046432       8.44260207       0.00017321      -0.00034727       0.00007584
Si       6.05151405      10.16427077       7.65364509      -0.00004971       0.00046244      -0.00009311
Si       5.49439209       4.91144853       8.48835199       0.00001117      -0.00010664       0.00009505
Si       3.35809384       5.50007074       7.64068457       0.00028248      -0.00002971      -0.00004764
Si       3.82533057       1.80658936       8.34441443       0.00055183       0.00046497       0.00005226
Si       2.13627093       3.39892871       7.62041999       0.00028010       0.00023237      -0.00003878
Si      36.43850405      20.63592605       8.44257327       0.00040042       0.00023515       0.00004836
Si      34.62669690      19.58984572       7.31278432       0.00005207      -0.00008160      -0.00089870
Si      34.75121187      17.52350142       8.47026755       0.00030551      -0.00031400      -0.00003738
Si      32.79695353      16.19205822       7.80580453      -0.00010816      -0.00004168      -0.00010136
Si      32.59494002      13.82372926       8.47376958       0.00035647      -0.00026296       0.00011602
Si      30.74545748      12.85433321       7.30824995       0.00005776       0.00006346       0.00002935
Si      30.83060843      10.76793920       8.47374835       0.00041850      -0.00030270       0.00016109
Si      28.88053497       9.40894383       7.80585506       0.00004718       0.00008409      -0.00010835
Si      28.70474943       7.05077637       8.47023391       0.00000842      -0.00012758       0.00008236
Si      26.85291440       6.12553177       7.31275156      -0.00009057      -0.00014983       0.00071266
Si      26.85288464       4.03343222       8.44269133      -0.00000021      -0.00033056      -0.00016605
Si      24.64605065       3.39907624       7.62040510      -0.00014556       0.00023665      -0.00018320
Si      35.88437017      22.86433097       7.62034921      -0.00010588      -0.00025305      -0.00023462
Si      32.89946325      20.73094518       8.47016196      -0.00029268       0.00037065       0.00000156
Si      30.76932340      19.70416683       7.80570826      -0.00011032      -0.00009929       0.00006082
Si      30.84052471      17.40392069       8.26947057      -0.00005062      -0.00004579       0.00014820
Si      28.84190868      16.24995457       7.83586227      -0.00004756       0.00024097       0.00019328
Si      28.93288059      13.90092509       8.46013873       0.00034216      -0.00017296      -0.00000361
Si      26.85301630      12.80525386       7.83600054      -0.00009349      -0.00026125       0.00015178
Si      26.85294099      10.49744455       8.26989394       0.00007083      -0.00002158      -0.00006110
Si      24.82531204       9.40902994       7.80582367      -0.00006757      -0.00010683       0.00012767
Si      25.00105991       7.05085130       8.47020002       0.00031440      -0.00008932       0.00003589
Si      23.42422234       5.50024139       7.64063019       0.00009827      -0.00015085      -0.00007626
Si      22.95695643       1.80686178       8.34440361      -0.00018502       0.00003664       0.00009491
Si      21.10708781       2.87486722       7.29807183       0.00011345      -0.00013398      -0.00058590
Si      33.45380825      22.87185951       7.64053314       0.00015023      -0.00008353       0.00021252
Si      28.61730064      20.71342387       8.47362360       0.00051322       0.00027425       0.00036268
Si      26.85311893      19.59636845       7.30818285      -0.00041433       0.00010879      -0.00003999
Si      26.85310556      17.50338616       8.46007248       0.00002833      -0.00014462       0.00008448
Si      24.86431674      16.24992866       7.83589678      -0.00010196       0.00010412       0.00016785
Si      24.77309754      13.90088241       8.46014076      -0.00017163      -0.00014361       0.00000194
Si      22.96051139      12.85431851       7.30826126       0.00001271      -0.00009105       0.00021631
Si      22.87519550      10.76792888       8.47379025      -0.00008917      -0.00018678       0.00003485
Si      20.73085063      10.16430753       7.65370353      -0.00009514       0.00006547      -0.00002183
Si      21.28792181       4.91165386       8.48829096      -0.00024603       0.00005573       0.00016672
Si      19.33501731       6.24565973       7.78339796       0.00017558      -0.00007860      -0.00003748
Si      19.43358677       1.69983543       8.48826383      -0.00011507       0.00004947       0.00009491
Si      17.30177175       2.72396646       7.78333526       0.00027842      -0.00001901      -0.00002729
Si      28.06778981      22.87222822       7.65348744      -0.00023337       0.00011923       0.00011352
Si      25.08879082      20.71332659       8.47368223       0.00008708      -0.00008447       0.00027054
Si      22.93682193      19.70401106       7.80576242       0.00009908       0.00000023      -0.00001543
Si      22.86562901      17.40377718       8.26949917       0.00005115      -0.00004601       0.00012363
Si      20.90916184      16.19196132       7.80582966      -0.00002014      -0.00012767      -0.00011451
Si      21.11098622      13.82363910       8.47374654      -0.00028420       0.00018772       0.00015405
Si      19.51604009      12.26840320       7.65369420      -0.00005249      -0.00029465       0.00001952
Si      19.11946534       8.61055367       8.44262982       0.00014529      -0.00018118       0.00015804
Si      17.25175969       9.55838521       7.30050691       0.00010673       0.00009579      -0.00046612
Si      17.35149656       5.04303348       8.18829034      -0.00011610       0.00004211       0.00005866
Si      15.33756195       6.20567613       7.82429759       0.00039872      -0.00005741       0.00016142
Si      15.14590161       1.72819464       8.44248888       0.00029249      -0.00007258       0.00027897
Si      13.39113691       2.87167123       7.30039684       0.00004850      -0.00000310      -0.00076203
Si      25.63816566      22.87212889       7.65349477       0.00024146       0.00047617       0.00001886
Si      20.80663757      20.73073308       8.47022530      -0.00000741       0.00050370      -0.00012069
Si      19.07943423      19.58960156       7.31280066      -0.00002820       0.00000068      -0.00056171
Si      18.95483918      17.52327842       8.47032234      -0.00016724      -0.00017000      -0.00013681
Si      16.82353930      16.93293044       7.64074843      -0.00008816       0.00002687      -0.00012998
Si      17.36472058      11.64980587       8.44263538       0.00020466       0.00018811       0.00015561
Si      15.42440530      13.01893337       7.78357089       0.00019121       0.00000085      -0.00030408
Si      15.47297117       8.53144686       8.50923737      -0.00011189      -0.00014536       0.00026515
Si      13.39106890       9.57703148       7.82432937       0.00034889       0.00000311       0.00019014
Si      13.39108222       4.92554426       8.50924657      -0.00005401       0.00018762       0.00023465
Si      11.44452411       6.20558557       7.82433871       0.00047888       0.00009944       0.00009336
Si      11.63640472       1.72809614       8.44244812      -0.00021272      -0.00017374       0.00027064
Si       9.48046855       2.72380747       7.78334116       0.00024901       0.00001787      -0.00015270
Si      20.25212839      22.87162632       7.64056146       0.00010986      -0.00005501       0.00037606
Si      17.26761801      20.63568315       8.44258632      -0.00066469       0.00009636      -0.00001980
Si      15.61479561      19.04164303       7.62038942       0.00019631      -0.00011773       0.00010424
Si      15.24556327      15.37721722       8.48847165       0.00016360      -0.00002956       0.00015174
Si      13.39124783      16.23902297       7.29826526       0.00013528       0.00016754      -0.00087392
Si      13.39114911      11.90243702       8.18840616       0.00006691       0.00001180       0.00005972
Si      11.35796040      13.01899596       7.78355460      -0.00033986       0.00002159      -0.00016300
Si      11.30925122       8.53136013       8.50926163      -0.00025790      -0.00002587       0.00030156
Si       9.53050906       9.55835454       7.30047139      -0.00001392      -0.00001748       0.00029554
Si       9.43069145       5.04288120       8.18831186       0.00002104      -0.00015618       0.00012669
Si       7.44721455       6.24550853       7.78338990      -0.00011179       0.00021885      -0.00005842
Si       7.34875414       1.69963063       8.48831440      -0.00013797       0.00003876       0.00015251
Si       5.67524088       2.87464980       7.29812250      -0.00018764      -0.00013100       0.00018845
Si      17.82156368      22.86408567       7.62033928       0.00032069      -0.00021387      -0.00004163
Si      11.44202719      19.51162274       5.27890326      -0.00020137      -0.00000922      -0.00007039
Si      36.51870509      18.42375156       4.31708250       0.00000697       0.00017097      -0.00016322
Si       9.57947876      16.30268513       5.32318405      -0.00007162      -0.00008879      -0.00018769
Si      34.57777216      15.10409639       4.59020559       0.00004107      -0.00009150      -0.00004595
Si       7.57996691      12.84129532       5.32525598       0.00014300       0.00007110      -0.00010083
Si      32.66765281      11.74450521       4.34233511      -0.00006435       0.00003044       0.00008995
Si       5.71217771       9.60626021       5.32521019      -0.00000164       0.00003304       0.00004456
Si      30.71311539       8.41054504       4.59024521       0.00015039       0.00004944      -0.00016961
Si       3.71422650       6.14398712       5.32314465       0.00000094       0.00008990      -0.00018861
Si      28.80863109       5.06978246       4.31710147      -0.00003295      -0.00000076      -0.00013809
Si       1.86645417       2.92647793       5.27893579      -0.00007236       0.00038854      -0.00011054
Si      26.85296058       1.82179456       4.51634557       0.00023582      -0.00002436      -0.00021809
Si      13.39133505      22.87362816       4.93585273      -0.00030415      -0.00005847       0.00040442
Si      38.35360771      21.74139274       4.51622611       0.00041116       0.00015671       0.00002189
Si      34.58065629      19.56315360       4.99139862      -0.00026804      -0.00003965       0.00002859
Si      32.58948787      18.41358007       4.48708572       0.00024032       0.00014492       0.00006224
Si      32.65974631      16.21658253       5.38711896      -0.00001354       0.00010500       0.00003226
Si      30.71334672      15.17089921       4.49669707      -0.00007233      -0.00001986       0.00017782
Si      30.71801921      12.87024550       4.98534813      -0.00002450       0.00002534       0.00011482
Si      28.72320532      11.72406364       4.49678335       0.00011564      -0.00012844       0.00007991
Si      28.79075978       9.51553392       5.38717963      -0.00007046      -0.00001401      -0.00015389
Si      26.85299267       8.47790021       4.48712946       0.00006847      -0.00023794       0.00008081
Si      26.85297019       6.17868753       4.99143103       0.00008219       0.00017199      -0.00048915
Si      24.89729558       5.06987558       4.31706936       0.00006674       0.00023487      -0.00008270
Si      24.91608813       2.92662103       5.27892223      -0.00005829       0.00009833       0.00012282
Si      23.06300437       1.74559921       4.42503727      -0.00006134       0.00009790      -0.00015655
Si      36.42852282      22.86661711       5.27885899      -0.00030361      -0.00012569       0.00008727
Si      34.56301388      21.81124111       4.31701202      -0.00003214      -0.00002473       0.00001990
Si      30.72200129      19.57302555       5.38704629       0.00001438      -0.00024231       0.00002028
Si      28.84322941      18.41018158       4.49666752      -0.00027505      -0.00000351       0.00014148
Si      28.78027097      16.21435975       5.39694600      -0.00002332      -0.00003672       0.00016365
Si      26.85319383      15.10172287       4.58316978      -0.00011121       0.00006570       0.00014033
Si      26.85309760      12.87653562       5.39708750       0.00002049      -0.00003029      -0.00002875
Si      24.98298762      11.72410375       4.49676293      -0.00016119      -0.00003089       0.00009750
Si      24.91524028       9.51561404       5.38716666       0.00008426      -0.00021454      -0.00024349
Si      22.99283482       8.41071741       4.59019299       0.00013647      -0.00012107       0.00010987
Si      23.06826949       6.14417333       5.32308649       0.00014288      -0.00004828      -0.00011535
Si      21.11371352       5.14939441       4.45181049       0.00000886       0.00010161      -0.00010934
Si      21.10030266       2.87880731       4.99139742       0.00013776      -0.00011759       0.00007776
Si      19.14062857       1.73191714       4.45174245      -0.00002983      -0.00007026       0.00005401
Si      32.71817353      22.85821065       5.32298545       0.00011411      -0.00025483      -0.00007437
Si      30.71758542      21.79029414       4.59006918       0.00008489       0.00006506      -0.00001414
Si      26.85314243      19.56458692       4.98530513       0.00000482      -0.00022853      -0.00010138
Si      24.86310462      18.41009775       4.49669208       0.00024615       0.00008610       0.00019576
Si      24.92608279      16.21429891       5.39698871      -0.00003718      -0.00008105       0.00011354
Si      22.99299138      15.17086864       4.49672986      -0.00014095      -0.00007730       0.00026941
Si      22.98815584      12.87022984       4.98539237      -0.00007120       0.00000269      -0.00023482
Si      21.03845322      11.74454331       4.34239523       0.00013652       0.00010693      -0.00007913
Si      21.07029788       9.60632311       5.32528081       0.00014129      -0.00000422      -0.00014847
Si      19.21860994       8.42095765       4.46349132       0.00002857      -0.00015047       0.00004570
Si      19.20993635       6.22269753       5.34922077       0.00004003      -0.00017711      -0.00003191
Si      17.25982483       5.09603552       4.60763079      -0.00001754       0.00016766       0.00020364
Si      17.25917407       2.84387179       5.34916987       0.00019112       0.00002861       0.00001592
Si      15.35976916       1.73727820       4.46338585       0.00010582      -0.00014561       0.00001918
Si      28.72080555      22.85735711       5.32510201      -0.00000335      -0.00024309      -0.00012901
Si      26.85308045      21.81587106       4.34223947      -0.00005346       0.00002918      -0.00002931
Si      22.98426022      19.57282628       5.38709589      -0.00024094      -0.00020599      -0.00006916
Si      21.11677054      18.41340555       4.48709707      -0.00015399       0.00020596      -0.00004413
Si      21.04648113      16.21643039       5.38712535      -0.00005987       0.00012484       0.00006025
Si      19.12840151      15.10398215       4.59021281      -0.00001388       0.00019576       0.00002311
Si      19.20259284      12.84121512       5.32525547       0.00004376       0.00025127      -0.00009220
Si      17.25015481      11.83029151       4.46356482      -0.00009498       0.00014828      -0.00006261
Si      17.24253866       9.55296755       4.98042844       0.00033157       0.00004793       0.00002609
Si      15.26368678       8.41048665       4.49071031       0.00005542       0.00019470       0.00012219
Si      15.32083594       6.21533792       5.37155459       0.00016195       0.00001622       0.00018312
Si      13.39118815       5.16727863       4.49068145      -0.00005710       0.00010246       0.00013483
Si      13.39122116       2.88230981       4.98028517       0.00010868      -0.00003365       0.00048327
Si      11.42275750       1.73714618       4.46339637      -0.00017707       0.00002733       0.00000379
Si      24.98524126      22.85721128       5.32507722       0.00022016      -0.00005636       0.00003398
Si      22.98852371      21.79007446       4.59008818      -0.00001422       0.00017017      -0.00009503
Si      19.12556596      19.56291245       4.99141246       0.00020998       0.00008976       0.00026946
Si      17.18747933      18.42361806       4.31712156      -0.00002209      -0.00008371      -0.00026626
Si      17.20322357      16.30253079       5.32320047       0.00007107       0.00009881      -0.00011156
Si      15.36442632      15.10719776       4.45194333       0.00014831       0.00018358      -0.00016419
Si      15.34205497      12.92187215       5.34937221      -0.00022736       0.00019762      -0.00002606
Si      13.39123933      11.79640318       4.60779439       0.00006264      -0.00016103      -0.00007571
Si      13.39116127       9.55751759       5.37161764       0.00006959       0.00019304      -0.00006031
Si      11.51866686       8.41043340       4.49074673       0.00007205       0.00014811       0.00020311
Si      11.46148645       6.21526679       5.37160104       0.00006946       0.00014083       0.00006247
Si       9.52257405       5.09588515       4.60766389       0.00031014       0.00003765      -0.00002882
Si       9.52326881       2.84368806       5.34916494      -0.00002566       0.00009253       0.00005852
Si       7.64190038       1.73163671       4.45174613       0.00012903       0.00003395       0.00012837
Si      20.98788571      22.85791769       5.32303295      -0.00000106       0.00019359      -0.00005694
Si      19.14306549      21.81099333       4.31706011       0.00007925       0.00006263      -0.00018134
Si      15.34070383      19.51151228       5.27887985       0.00020492      -0.00002438       0.00018723
Si      13.39135533      18.49717286       4.42509894      -0.00012989       0.00003020      -0.00014697
Si      13.39132031      16.23085840       4.99157799       0.00000427       0.00013846       0.00002947
Si      11.41820282      15.10725221       4.45189266      -0.00006935       0.00009313      -0.00017648
Si      11.44044284      12.92192751       5.34936834       0.00029141       0.00008126      -0.00017574
Si       9.53237804      11.83028630       4.46355995       0.00002822       0.00015542      -0.00008285
Si       9.53981682       9.55293700       4.98043747       0.00009333       0.00015953      -0.00033752
Si       7.56384148       8.42080319       4.46348947      -0.00005685       0.00001183      -0.00005490
Si       7.57244062       6.22253228       5.34921052       0.00022588      -0.00004724       0.00009542
Si       5.66875923       5.14917142       4.45178198      -0.00006943       0.00005320       0.00010604
Si       5.68225811       2.87858973       4.99151016       0.00001126       0.00004598      -0.00073356
Si       3.71956976       1.74542034       4.42509750       0.00000887       0.00014927      -0.00009401
Si      17.27753345      22.86641874       5.27884956       0.00021355      -0.00020626       0.00001154
Si      15.35241466      21.74126671       4.51623394       0.00009574       0.00033191       0.00005180
Si      36.47017655      18.42369232       1.98410179      -0.00002129       0.00000423       0.00014063
Si      34.52136873      17.29488545       1.31552470       0.00006807       0.00014056       0.00003202
Si      34.56513802      15.09327736       2.18728575      -0.00005347       0.00022418       0.00000462
Si      32.63348721      14.01877797       1.33281911       0.00002566      -0.00001885       0.00019974
Si      32.63108057      11.76565499       2.01156456       0.00016060       0.00012137      -0.00006850
Si      30.68100231      10.63709475       1.33288992       0.00008657       0.00002456       0.00006951
Si      30.71622729       8.42693512       2.18732752      -0.00015297       0.00002875       0.00000806
Si      28.78773095       7.36404265       1.31558367      -0.00009203      -0.00001540       0.00007197
Si      28.78443414       5.11187049       1.98412074       0.00018932       0.00017395       0.00028500
Si      26.85304674       3.99493227       1.23964901       0.00015395       0.00009168       0.00015679
Si      26.85307432       1.80532575       2.12223736      -0.00000491      -0.00024887      -0.00043537
Si      24.95750373       0.65170982       1.30584282      -0.00002553       0.00006588      -0.00016347
Si      38.36795819      21.74959483       2.12212859       0.00008154       0.00024576      -0.00026514
Si      36.47172117      20.65481312       1.23956368       0.00016714       0.00006753       0.00024283
Si      32.60011393      18.41969326       2.11148053      -0.00006499      -0.00012847      -0.00007881
Si      30.70156514      17.32356216       1.25798917      -0.00018983       0.00006224      -0.00003441
Si      30.70416252      15.13585907       2.12250894       0.00003200      -0.00007415       0.00001040
Si      28.77366360      13.99294675       1.37150398      -0.00006079      -0.00007627      -0.00014989
Si      28.74904224      11.74960239       2.12258398       0.00000015       0.00000930      -0.00007497
Si      26.85319110      10.65799515       1.25801693      -0.00011743       0.00021042      -0.00005389
Si      26.85311517       8.46571044       2.11152050       0.00005765       0.00010543      -0.00000772
Si      24.91849234       7.36413737       1.31556263      -0.00001680      -0.00012804       0.00009706
Si      24.92168551       5.11196163       1.98409744      -0.00010848       0.00019191       0.00023098
Si      22.99136462       3.98661267       1.26769733       0.00000536       0.00012740       0.00011362
Si      23.03658573       1.76089628       2.06407071       0.00028060      -0.00021585       0.00026973
Si      21.08648434       0.68719719       1.26770521      -0.00009727       0.00003303      -0.00005915
Si      34.53880859      21.76915281       1.98404756      -0.00020715       0.00001325       0.00017934
Si      32.58677837      20.64593676       1.31547656      -0.00001185       0.00000342       0.00005055
Si      28.80828213      18.41974982       2.12247467       0.00008180      -0.00002422       0.00004416
Si      26.85324744      17.31933609       1.37146644       0.00000142      -0.00014273      -0.00010481
Si      26.85323740      15.10178486       2.19754418      -0.00000435      -0.00019100      -0.00009151
Si      24.93281711      13.99297064       1.37149617      -0.00007987      -0.00009593      -0.00016262
Si      24.95731858      11.74963397       2.12256699      -0.00009285      -0.00005298      -0.00010005
Si      23.02529915      10.63720848       1.33289064      -0.00006494      -0.00000651      -0.00001477
Si      22.98996652       8.42706135       2.18729958       0.00012716      -0.00001041      -0.00010324
Si      21.10364921       7.33540323       1.28332865      -0.00004275       0.00000337       0.00000231
Si      21.09095048       5.13000603       2.08693695      -0.00003708       0.00025466       0.00000811
Si      19.14747964       4.00634361       1.34791501       0.00005022       0.00001982       0.00006769
Si      19.14609095       1.76139899       2.08689399      -0.00023437      -0.00013942      -0.00010249
Si      17.24249202       0.64779863       1.28325475      -0.00001030      -0.00008568      -0.00004376
Si      30.70202321      21.78471903       2.18717785      -0.00001661      -0.00012143      -0.00007492
Si      28.80561818      20.64913761       1.33276124      -0.00005337      -0.00011420       0.00011087
Si      24.89816852      18.41967643       2.12250360      -0.00012626       0.00002918       0.00000506
Si      23.00489637      17.32352628       1.25801548      -0.00001513      -0.00006180      -0.00015937
Si      23.00227901      15.13583602       2.12254279      -0.00014905      -0.00010585      -0.00005928
Si      21.07289309      14.01882367       1.33287894      -0.00003857      -0.00004813       0.00008322
Si      21.07517102      11.76571513       2.01160654       0.00000739       0.00003155       0.00003129
Si      19.14007101      10.64850871       1.29186591       0.00004430       0.00009423      -0.00023817
Si      19.18961584       8.42364201       2.09679959       0.00004080       0.00005682      -0.00002957
Si      17.23548011       7.31450701       1.36320962       0.00004712       0.00000626       0.00003664
Si      17.24136154       5.10680373       2.21074536      -0.00005799      -0.00000681      -0.00012238
Si      15.32644734       4.00811692       1.36321276       0.00013009      -0.00016424      -0.00018901
Si      15.34298276       1.76121375       2.09671392      -0.00002122      -0.00030620      -0.00003954
Si      13.39138836       0.69172397       1.29178146      -0.00002971      -0.00038075      -0.00014243
Si      26.85315293      21.77362168       2.01146774       0.00006228       0.00008318      -0.00002948
Si      24.90076800      20.64903657       1.33275912      -0.00000858       0.00008372       0.00014953
Si      21.10624227      18.41954829       2.11148226       0.00008348      -0.00004449      -0.00002607
Si      19.18493785      17.29481761       1.31554494       0.00015100       0.00010088       0.00002587
Si      19.14114730      15.09322655       2.18731323       0.00010326       0.00024295      -0.00013776
Si      17.25255525      14.00546832       1.28337731       0.00009753      -0.00002688      -0.00001814
Si      17.23799522      11.80377767       2.09686547       0.00018900       0.00002904      -0.00010510
Si      15.30036941      10.66606366       1.36325629       0.00004282      -0.00003467       0.00002884
Si      15.28641736       8.42359395       2.11881207       0.00004221       0.00000835      -0.00028195
Si      13.39130992       7.32948892       1.26125382       0.00004786       0.00007704      -0.00024711
Si      13.39127877       5.14124643       2.11879654       0.00008278       0.00002003      -0.00022089
Si      11.45620514       4.00799301       1.36318647       0.00001393      -0.00001230      -0.00004675
Si      11.43971344       1.76109527       2.09671328       0.00009726      -0.00022571       0.00003169
Si       9.54028730       0.64760294       1.28322916       0.00006076      -0.00002994       0.00010729
Si      23.00428341      21.78453688       2.18719139      -0.00005051      -0.00005446      -0.00013499
Si      21.11954328      20.64578334       1.31547843       0.00004142      -0.00003912       0.00011533
Si      17.23610158      18.42357780       1.98414545      -0.00001194       0.00002271       0.00018216
Si      15.29632670      17.31455761       1.26776745       0.00009411       0.00019918      -0.00003412
Si      15.33626856      15.09709811       2.08705997       0.00014850      -0.00005537      -0.00007647
Si      13.39139488      13.97586452       1.34801404       0.00002547       0.00003767       0.00006395
Si      13.39134291      11.77491304       2.21086832      -0.00004449       0.00021179      -0.00003029
Si      11.48234033      10.66599218       1.36330166       0.00002959       0.00010660      -0.00005354
Si      11.49617646       8.42351885       2.11886559       0.00002623       0.00014641      -0.00041392
Si       9.54719029       7.31437062       1.36322649       0.00006437       0.00002669      -0.00001664
Si       9.54129058       5.10666657       2.21076428       0.00000263      -0.00001029      -0.00000466
Si       7.63523402       4.00614118       1.34794964      -0.00002427       0.00000633      -0.00004277