1468
Lattice="34.284413539239374 -1.7495396565131103e-18 1.733030225901707e-19 17.142206769619687 29.69117308161103 -5.292394618855191e-19 1.6969588687737302e-18 4.418032441367441e-19 34.54670809781807" Properties=species:S:1:pos:R:3:travel:I:3:forces:R:3:energies:R:1 cutoff_factor=1.2 nneightol=1.2 energy=-8415.600989807583 free_energy=-8415.600989807583 stress="0.0016732436426028004 1.9042842596594184e-07 2.6499154973750656e-07 1.9042842596594184e-07 0.0016729802626153445 1.4323831922076473e-07 2.6499154973750656e-07 1.4323831922076473e-07 -0.00334380215004546" pbc="T T T"
Si      13.31072215       3.23169932       4.67802831        0        0        0      -0.00030294       0.00028485      -0.00006336      -4.55759754
Si       9.51528342       9.80527817       4.67801523        0        0        0       0.00012397      -0.00011980      -0.00000984      -4.55760152
Si       5.67347404       3.20472675       4.65672767        0        0        0       0.00047717       0.00009256      -0.00007020      -4.57534397
Si      17.14213749       9.82626935       4.68778136        0        0        0       0.00010276      -0.00023079      -0.00027061      -4.53827672
Si       7.72212121       8.87074064       3.28985663        0        0        0      -0.00001155       0.00050353       0.00011270      -5.46401706
Si       5.57816546       5.24764115       3.30594597        0        0        0       0.00011946      -0.00021074      -0.00032070      -5.38560844
Si       3.93327209       2.19997336       3.26660062        0        0        0       0.00016528       0.00016119       0.00018457      -5.29105481
Si       2.20020425       3.72149149       2.49228198        0        0        0      -0.00034406       0.00025419       0.00023761      -5.58828632
Si      17.14201381       9.82615134       2.11133941        0        0        0       0.00005772       0.00028314       0.00031822      -5.36420054
Si      15.26694735       6.49001776       2.71395742        0        0        0       0.00009370       0.00024198      -0.00017369      -5.63202631
Si      13.31815838       3.27087347       2.11108788        0        0        0      -0.00004400      -0.00011181       0.00022680      -5.39549914
Si      12.10533196      -0.05667063       2.51810186        0        0        0       0.00016179       0.00015139       0.00010117      -5.66484736
Si      15.38074712       8.80931394       3.29066871        0        0        0       0.00019598      -0.00002800      -0.00018636      -5.58483778
Si      13.31518925       9.87024468       2.71390754        0        0        0       0.00049085       0.00009169      -0.00001231      -5.63200226
Si      13.30197366       5.27860374       3.30208717        0        0        0      -0.00011663       0.00015076      -0.00019336      -5.54241918
Si      11.33090907       6.47105945       2.71198953        0        0        0       0.00056151       0.00029735      -0.00008345      -5.63491411
Si      11.60485951       2.14595868       3.28984780        0        0        0       0.00009345       0.00020281       0.00004439      -5.46411217
Si       9.48138861       3.12188890       2.69339615        0        0        0       0.00021036       0.00001631      -0.00014794      -5.57412843
Si       6.82104110      -0.05769519       2.50717738        0        0        0       0.00010286       0.00034385      -0.00021094      -5.71006779
Si      11.28361186       8.77424547       3.30212038        0        0        0       0.00007001       0.00000314      -0.00036927      -5.54237326
Si       9.55290536       9.79210991       2.11113190        0        0        0       0.00045166       0.00020457      -0.00002261      -5.39547608
Si       9.40744805       5.36049104       3.37873863        0        0        0       0.00018355       0.00017867       0.00003066      -4.94349518
Si       7.50570840       6.54382964       2.69344712        0        0        0       0.00030668       0.00008963      -0.00038978      -5.57413366
Si       7.39505546       2.10064087       3.30594755        0        0        0       0.00001972      -0.00006700      -0.00015151      -5.38556005
Si       5.73013396       3.23736098       2.10458670        0        0        0       0.00009453       0.00033524       0.00006939      -5.41039370
Si       4.38429676      -0.06172898       2.49234458        0        0        0       0.00018010      -0.00012044       0.00006818      -5.58815176
Si       0.00001658      -0.07080589       0.40004923        0        0        0      -0.00012884       0.00000826      -0.00022046      -4.89304512
Si      17.14205865       9.82617202      -0.16299588        0        0        0       0.00008092       0.00008259       0.00006093      -5.63513800
Si      15.16944369       8.68727979      -0.62626301        0        0        1       0.00033035       0.00007882       0.00001956      -5.85289093
Si      15.24334911       6.51831399       0.28854957        0        0        0       0.00024333      -0.00022376      -0.00011538      -5.84017099
Si      13.32551986       5.51110557      -0.63229439        0        0        1       0.00017576      -0.00039880       0.00036630      -5.84619458
Si      13.32696027       3.23941671      -0.16581785        0        0        0       0.00004483      -0.00019957      -0.00006012      -5.64002248
Si      11.36314335       2.10221252      -0.66232126        0        0        1       0.00012793      -0.00003962       0.00010120      -5.85117428
Si      11.48036564      -0.06291724       0.22261775        0        0        0      -0.00006952      -0.00016846       0.00019825      -5.82596645
Si      13.32800666       9.83579610       0.28851937        0        0        0      -0.00009954      -0.00021431      -0.00006764      -5.84015855
Si      11.49681401       8.67851460      -0.63229912        0        0        1      -0.00019615       0.00026317       0.00009084      -5.84622950
Si      11.40357492       6.51309244       0.28669483        0        0        0       0.00028623      -0.00009103       0.00011544      -5.84034134
Si       9.50159151       5.41496817      -0.54447110        0        0        1       0.00003807      -0.00016236      -0.00000974      -5.85329807
Si       9.50670975       3.20694230       0.26976964        0        0        0       0.00005653       0.00018803       0.00001222      -5.84222567
Si       7.66590263       2.09340529      -0.67352536        0        0        1      -0.00017802      -0.00016278       0.00009151      -5.84393411
Si       7.52495391      -0.06161331       0.22521116        0        0        0       0.00011593       0.00000737       0.00007622      -5.81342825
Si       9.53017924       9.81557283      -0.16578712        0        0        0       0.00000917      -0.00006199       0.00002027      -5.64001361
Si       7.56346834       8.68344395      -0.66236217        0        0        1      -0.00007562      -0.00002637       0.00010906      -5.85117483
Si       7.59196222       6.52338125       0.26981053        0        0        0       0.00016694      -0.00004128      -0.00011009      -5.84223534
Si       5.70723469       5.48595870      -0.67352389        0        0        1       0.00002058      -0.00012357      -0.00005159      -5.84388703
Si       5.70616456       3.22366481      -0.17429281        0        0        0       0.00013500      -0.00014832       0.00008503      -5.64206081
Si       3.74567008       2.09177614      -0.69251199        0        0        1       0.00007590      -0.00006886       0.00003065      -5.85485929
Si       3.83588581      -0.07994773       0.18326693        0        0        0       0.00002152       0.00018719      -0.00009528      -5.83166987
Si      19.04830478      10.92661611      -3.72029391        0        0        1      -0.00027168      -0.00009919      -0.00020099      -5.86980203
Si      17.14200801       7.62494700      -3.72033686        0        0        1       0.00013707       0.00023345      -0.00012406      -5.86982121
Si      15.24080585       4.33653878      -3.73411230        0        0        1      -0.00001187       0.00002651      -0.00041799      -5.86733740
Si      13.33075627       1.05882096      -3.79384541        0        0        1       0.00014239       0.00009993      -0.00008540      -5.86484733
Si      15.23591308      10.92658992      -3.72022968        0        0        1       0.00040067       0.00000965      -0.00035794      -5.86981828
Si      15.20152056       8.70568169      -2.96972989        0        0        1       0.00020777       0.00017777      -0.00019074      -5.84792886
Si      13.33241058       7.62655148      -3.84131385        0        0        1      -0.00026460       0.00004433      -0.00073996      -5.82269518
Si      13.33062658       5.46737956      -2.97563984        0        0        1       0.00011571       0.00001166      -0.00016654      -5.84973028
Si      11.42219372       4.33544834      -3.73558370        0        0        1       0.00000790      -0.00001305      -0.00021465      -5.86705731
Si      11.39243270       2.11431294      -2.99985357        0        0        1       0.00050412       0.00029166       0.00012748      -5.84642497
Si       9.52014835       0.99747875      -3.80864608        0        0        1      -0.00001168       0.00002728      -0.00001286      -5.82367842
Si      11.43749874      10.92434557      -3.73409097        0        0        1      -0.00004705      -0.00023569      -0.00027651      -5.86734221
Si      11.46160035       8.70464113      -2.97567391        0        0        1       0.00010136       0.00003282      -0.00009039      -5.84980723
Si       9.52710142       7.61784335      -3.73567370        0        0        1       0.00015062       0.00023026       0.00004931      -5.86706662
Si       9.52037271       5.42572176      -2.91363331        0        0        1       0.00024344       0.00017807       0.00003180      -5.84045571
Si       7.62935338       4.33395571      -3.75359688        0        0        1      -0.00007437      -0.00008294      -0.00028102      -5.86408221
Si       7.64515202       2.11467003      -3.01039135        0        0        1       0.00000613       0.00027216       0.00008010      -5.84849893
Si       5.71432207       1.05588311      -3.81571044        0        0        1      -0.00008715      -0.00006701       0.00006692      -5.86172541
Si       7.64388004      10.90904543      -3.79385751        0        0        1      -0.00010590       0.00006037      -0.00005886      -5.86485883
Si       7.58869600       8.70267480      -2.99989357        0        0        1       0.00044422       0.00016235       0.00014102      -5.84641238
Si       5.68534843       7.63965035      -3.80871091        0        0        1      -0.00029724       0.00002100       0.00005093      -5.82371294
Si       5.71530276       5.45728675      -3.01037567        0        0        1       0.00014341      -0.00010647      -0.00018927      -5.84850656
Si       3.83289093       4.31458742      -3.81569319        0        0        1       0.00001558      -0.00024133       0.00010405      -5.86175706
Si       3.77783790       2.11030714      -3.02651510        0        0        1       0.00013252       0.00025062       0.00045223      -5.84386748
Si       1.87051750       1.00913853      -3.76435502        0        0        1       0.00007317      -0.00001091       0.00030124      -5.83300774
Si      -5.67372138       3.20489907       4.65691309        1        0        0      -0.00013743       0.00006513      -0.00061443      -4.57533282
Si       0.00016131       6.48452860       4.60250963        1        0        0       0.00009450      -0.00041626      -0.00029939      -4.58857817
Si       6.06490515      10.40552746       2.51796614        1        0        0      -0.00003220       0.00000776       0.00026584      -5.66493574
Si       3.42210287       5.82974027       2.50709714        1        0        0      -0.00011181      -0.00003257      -0.00018908      -5.71008006
Si       3.88964532      11.07798307       3.24317222        1        0        0       0.00013897      -0.00006193       0.00022183      -5.49328159
Si       1.95026794       9.75099618       2.67906128        1        0        0       0.00011557       0.00009441       0.00018186      -5.61370142
Si       1.81173456       7.41448927       3.23856681        1        0        0       0.00017028       0.00036829       0.00047704      -5.43646420
Si       0.00008434       6.52363839       2.04354887        1        0        0      -0.00036817      -0.00046137      -0.00021584      -5.45941931
Si       0.00006507       4.46696443       3.22408431        1        0        0      -0.00000115       0.00028113      -0.00002421      -5.31124794
Si      -2.20018299       3.72164434       2.49248504        1        0        0      -0.00016354      -0.00030252       0.00010784      -5.58823427
Si       0.00016507      10.79810813       3.47178556        1        0        0      -0.00016913       0.00027849       0.00023384      -4.92422193
Si      -1.95000447       9.75099124       2.67913449        1        0        0      -0.00019273       0.00025783       0.00026358      -5.61372476
Si      -1.81149641       7.41452484       3.23875676        1        0        0      -0.00022121       0.00039516      -0.00003728      -5.43645984
Si      -3.42205093       5.82991280       2.50736116        1        0        0      -0.00004609      -0.00032017      -0.00041951      -5.70992014
Si      -3.93337954       2.20012683       3.26681290        1        0        0       0.00027830       0.00052757       0.00003859      -5.29104027
Si      -5.73013785       3.23755436       2.10471295        1        0        0      -0.00031319       0.00002832       0.00007431      -5.41038752
Si      -6.82101613      -0.05745954       2.50723294        1        0        0       0.00006745      -0.00014752      -0.00025280      -5.71008505
Si      -3.88939586      11.07800439       3.24318427        1        0        0      -0.00040566      -0.00036260       0.00050313      -5.49325773
Si      -6.06481101      10.40556132       2.51814468        1        0        0      -0.00023952       0.00018232      -0.00025306      -5.66473228
Si      -5.57822996       5.24781538       3.30605049        1        0        0      -0.00028840      -0.00007328      -0.00014842      -5.38557900
Si      -7.50584447       6.54398283       2.69343506        1        0        0      -0.00018133       0.00000856      -0.00005381      -5.57417748
Si      -7.39516460       2.10082373       3.30596950        1        0        0       0.00002247       0.00032101      -0.00011105      -5.38555709
Si      -9.48152493       3.12205388       2.69334073        1        0        0      -0.00016738       0.00002838       0.00025297      -5.57416499
Si      -7.72229314       8.87090938       3.28985009        1        0        0       0.00028842       0.00015620       0.00018932      -5.46405047
Si      -9.40762762       5.36066287       3.37869210        1        0        0       0.00010728      -0.00003395       0.00000698      -4.94348959
Si     -11.60499616       2.14617901       3.28986606        1        0        0       0.00034428      -0.00027042       0.00005375      -5.46407203
Si       5.74696861       9.86751940       0.22247675        1        0        0       0.00000450      -0.00007775       0.00012713      -5.82597684
Si       3.83341092       8.68979005      -0.48463232        1        0        1      -0.00006825      -0.00015588       0.00030781      -5.79918401
Si       3.77048152       6.44137896       0.22515045        1        0        0      -0.00009689       0.00008181      -0.00000621      -5.81339043
Si       1.94945921       5.38491378      -0.78274861        1        0        1      -0.00012197      -0.00021483      -0.00000660      -5.84637731
Si       1.91000315       3.25576012       0.18321688        1        0        0       0.00033157      -0.00012491      -0.00003280      -5.83166123
Si      -0.00007302       2.07695316      -0.50602097        1        0        1       0.00002861       0.00014262       0.00070871      -5.78065028
Si       1.92112535       9.79518291       0.28301553        1        0        0       0.00003592       0.00010946       0.00014585      -5.87027764
Si       0.00000295       8.79228506      -0.63451870        1        0        1       0.00011455      -0.00049787       0.00036056      -5.81968728
Si      -0.00002970       6.50962500      -0.22621877        1        0        0       0.00004635      -0.00013006      -0.00037484      -5.64192866
Si      -1.94957489       5.38493223      -0.78257164        1        0        1      -0.00005895      -0.00017644      -0.00004176      -5.84637006
Si      -1.91011271       3.25577548       0.18339263        1        0        0      -0.00006567       0.00011084      -0.00002846      -5.83164181
Si      -3.74577268       2.09186909      -0.69240710        1        0        1       0.00006102       0.00002267       0.00007149      -5.85479903
Si      -3.83585072      -0.07982584       0.18330159        1        0        0      -0.00001122      -0.00017965       0.00018814      -5.83165085
Si      -1.92105583       9.79515098       0.28309432        1        0        0      -0.00012308       0.00031419       0.00023754      -5.87025865
Si      -3.83344018       8.68982894      -0.48444164        1        0        1      -0.00018069      -0.00023205       0.00031546      -5.79915089
Si      -3.77056519       6.44144902       0.22539705        1        0        0       0.00008355      -0.00015691      -0.00033071      -5.81343240
Si      -5.70736211       5.48601365      -0.67333832        1        0        1       0.00020911      -0.00000659      -0.00028873      -5.84391357
Si      -5.70628199       3.22371125      -0.17417600        1        0        0      -0.00010663       0.00005479       0.00018449      -5.64205326
Si      -7.66600770       2.09347124      -0.67344871        1        0        1       0.00012498      -0.00021450       0.00002979      -5.84394169
Si      -7.52492043      -0.06151839       0.22527024        1        0        0      -0.00002472      -0.00011608       0.00021417      -5.81342076
Si      -5.74705118       9.86750670       0.22260248        1        0        0      -0.00013773      -0.00000711       0.00021604      -5.82604009
Si      -7.56363367       8.68347952      -0.66230964        1        0        1       0.00032930      -0.00005802       0.00013973      -5.85117340
Si      -7.59219440       6.52340060       0.26982490        1        0        0       0.00011483       0.00017891      -0.00001338      -5.84221681
Si      -9.50182082       5.41498066      -0.54446317        1        0        1      -0.00016156      -0.00003097      -0.00014278      -5.85327680
Si      -9.50688427       3.20697645       0.26974366        1        0        0      -0.00005344       0.00014580       0.00013782      -5.84220230
Si     -11.36329803       2.10220366      -0.66232587        1        0        1      -0.00001543      -0.00006361       0.00008245      -5.85117029
Si     -11.48032160      -0.06291514       0.22266703        1        0        0       0.00002302       0.00010420       0.00010606      -5.82597898
Si       3.79392335      10.89750033      -3.74248196        1        0        1      -0.00014490      -0.00028022       0.00004213      -5.86280107
Si       3.81982416       8.71368242      -2.87907761        1        0        1      -0.00007881      -0.00004573       0.00000697      -5.87096914
Si       1.91533104       7.65612679      -3.75186143        1        0        1       0.00001809      -0.00004262       0.00022334      -5.86139228
Si       1.92572694       5.41985968      -3.08836612        1        0        1       0.00011596       0.00012255       0.00025098      -5.80264262
Si      -0.00013397       4.30617466      -3.79063984        1        0        1       0.00002416      -0.00048411       0.00019740      -5.85531474
Si      -0.00008616       2.12896402      -2.90614250        1        0        1       0.00009383      -0.00023302       0.00021380      -5.87441948
Si      -1.87068052       1.00916968      -3.76433866        1        0        1       0.00019337      -0.00027123       0.00018693      -5.83301371
Si      -0.00002584      10.92685826      -3.84558628        1        0        1       0.00007212      -0.00043125       0.00008506      -5.81850717
Si      -0.00006819       8.76828671      -2.98257623        1        0        1       0.00009048       0.00009038       0.00030151      -5.85191739
Si      -1.91553989       7.65614062      -3.75170935        1        0        1       0.00023928      -0.00021156      -0.00002828      -5.86136392
Si      -1.92594146       5.41988802      -3.08819141        1        0        1       0.00006931      -0.00008257      -0.00005574      -5.80265973
Si      -3.83308570       4.31460080      -3.81556386        1        0        1       0.00004162       0.00004100      -0.00007497      -5.86175394
Si      -3.77794819       2.11035052      -3.02638457        1        0        1      -0.00015331       0.00020301       0.00013649      -5.84383444
Si      -5.71439491       1.05589371      -3.81557783        1        0        1      -0.00005014      -0.00022610      -0.00025755      -5.86174034
Si      -3.79395930      10.89744785      -3.74232517        1        0        1       0.00014360       0.00006926      -0.00020942      -5.86279964
Si      -3.81997219       8.71367025      -2.87885897        1        0        1      -0.00002910       0.00004014      -0.00035824      -5.87092037
Si      -5.68551480       7.63967244      -3.80855501        1        0        1       0.00019091      -0.00019861      -0.00014945      -5.82369764
Si      -5.71549155       5.45730480      -3.01021562        1        0        1      -0.00019354      -0.00014405      -0.00020262      -5.84852720
Si      -7.62956645       4.33394992      -3.75346226        1        0        1       0.00016544       0.00005070      -0.00040508      -5.86409918
Si      -7.64528523       2.11465270      -3.01029990        1        0        1       0.00011962       0.00035940      -0.00007736      -5.84851026
Si      -9.52026690       0.99743722      -3.80856254        1        0        1       0.00010790       0.00005616      -0.00006529      -5.82369439
Si      -7.58892686       8.70264743      -2.99983969        1        0        1      -0.00041241       0.00031219       0.00012626      -5.84640425
Si      -9.52066819       5.42568314      -2.91360666        1        0        1      -0.00011645       0.00022697      -0.00006964      -5.84047231
Si     -11.39262312       2.11425330      -2.99985019        1        0        1      -0.00037474       0.00035784       0.00013540      -5.84641159
Si      -5.67670297      -3.34832424       4.60253079        1        1        0      -0.00010916      -0.00017340       0.00016722      -4.58853993
Si     -13.30830811      -3.37448684       4.62699588        1        1        0       0.00034799      -0.00030593      -0.00023347      -4.56669908
Si      -9.51537812      -9.94437837       4.62684448        1        1        0      -0.00012326       0.00013337       0.00005923      -4.56671718
Si     -17.14202500      -9.96793512       4.63656655        1        1        0      -0.00012163      -0.00000587      -0.00018876      -4.54414710
Si      -2.18408993      -3.87259484       2.49242574        1        1        0      -0.00000608       0.00015944      -0.00002481      -5.58822510
Si      -3.39898477      -5.98488650       2.50724593        1        1        0       0.00011657       0.00016588      -0.00023797      -5.71003017
Si      -3.92959197      -2.33965922       3.22403573        1        1        0       0.00008309      -0.00017554       0.00018290      -5.31112175
Si      -5.71073769      -3.36802146       2.04363762        1        1        0      -0.00022438      -0.00016554      -0.00002706      -5.45945053
Si      -5.57646915      -5.38239516       3.23885735        1        1        0      -0.00048486       0.00017267      -0.00016686      -5.43649885
Si      -7.53074434      -6.67059016       2.67945895        1        1        0       0.00001709      -0.00022112       0.00005759      -5.61367486
Si      -7.71025130      -9.01375091       3.24341925        1        1        0       0.00017854       0.00016632       0.00046973      -5.49315419
Si      -9.53479870      -9.94215034       2.06832957        1        1        0      -0.00014709       0.00003650      -0.00018101      -5.42427774
Si      -4.38425851      -0.06153921       2.49238259        1        1        0      -0.00022815      -0.00003741       0.00016055      -5.58823336
Si      -7.38805650      -2.24448689       3.23882745        1        1        0      -0.00005188      -0.00003793      -0.00011211      -5.43649316
Si      -9.48082742      -3.29272021       2.67947892        1        1        0      -0.00048593      -0.00010938       0.00002180      -5.61365065
Si      -9.41259052      -5.50517417       3.47220610        1        1        0       0.00006427      -0.00011959       0.00005880      -4.92414548
Si     -11.30953381      -6.60037595       2.67734466        1        1        0      -0.00046466      -0.00013949      -0.00049813      -5.66411905
Si     -11.27934407      -8.91686544       3.23418981        1        1        0       0.00039095      -0.00035377      -0.00053081      -5.58580283
Si     -13.31287347     -10.03390996       2.68209270        1        1        0       0.00013280       0.00026728      -0.00003682      -5.65936972
Si     -11.59976655      -2.27652907       3.24352475        1        1        0      -0.00024660      -0.00003563       0.00027990      -5.49315424
Si     -13.31610645      -3.39241217       2.06840916        1        1        0       0.00014709      -0.00010887       0.00005544      -5.42437568
Si     -13.30049201      -5.41586114       3.23427212        1        1        0      -0.00004990       0.00008110      -0.00055002      -5.58577952
Si     -15.28459855      -6.61854464       2.68220987        1        1        0       0.00002007      -0.00009868      -0.00018695      -5.65930736
Si     -15.37324684      -8.94659769       3.23775468        1        1        0      -0.00013363      -0.00022488      -0.00017159      -5.61468533
Si     -17.14194371      -9.96781230       2.07911185        1        1        0      -0.00015728      -0.00025452       0.00006369      -5.37896563
Si     -12.10526974      -0.05650877       2.51816058        1        1        0      -0.00004972      -0.00018565       0.00012899      -5.66487293
Si      -1.92576162      -3.38831947       0.18334467        1        1        0       0.00030438      -0.00009902       0.00006043      -5.83165471
Si      -3.74993163      -4.48703068      -0.78260743        1        1        1       0.00003107       0.00001061      -0.00024543      -5.84636037
Si      -3.75442734      -6.59233394       0.22527916        1        1        0      -0.00001667      -0.00011628      -0.00011050      -5.81343687
Si      -5.67018932      -7.77099558      -0.48439982        1        1        1       0.00023707       0.00002145       0.00012354      -5.79915708
Si      -5.73335538     -10.01708250       0.22261627        1        1        0       0.00010407      -0.00011728       0.00003382      -5.82595684
Si      -7.56449314     -11.08869531      -0.76314415        1        1        1       0.00037585      -0.00007970      -0.00020640      -5.84940783
Si      -1.85998198      -1.14470623      -0.50596923        1        1        1      -0.00008996      -0.00026560       0.00058461      -5.78066715
Si      -5.69864800      -3.36095074      -0.22613709        1        1        0      -0.00005843      -0.00010393      -0.00027353      -5.64190281
Si      -7.67551076      -4.50231749      -0.63425238        1        1        1       0.00022843       0.00008017       0.00019313      -5.81971321
Si      -7.58352711      -6.66748444       0.28339629        1        1        0      -0.00005525       0.00003239      -0.00019271      -5.87024888
Si      -9.50208106      -7.68331201      -0.63084181        1        1        1       0.00002186      -0.00028387      -0.00007003      -5.82310301
Si      -9.51321483      -9.96414929      -0.19691601        1        1        0       0.00011818      -0.00028606      -0.00037909      -5.64346826
Si     -11.48501929     -11.11395823      -0.62449244        1        1        1       0.00025948      -0.00002948       0.00028743      -5.82441248
Si      -5.69943735      -1.11027607      -0.78264096        1        1        1      -0.00009887      -0.00019220       0.00002186      -5.84635897
Si      -9.50458430      -3.34003630       0.28341893        1        1        0      -0.00002273      -0.00017487      -0.00018339      -5.87025204
Si     -11.34362830      -4.49360850      -0.63079899        1        1        1      -0.00018016      -0.00009984      -0.00011100      -5.82313586
Si     -11.40796045      -6.65721127       0.28063730        1        1        0       0.00017048       0.00007184      -0.00042326      -5.88475252
Si     -13.32104193      -7.76177427      -0.52013111        1        1        1       0.00017207       0.00008827      -0.00034586      -5.80592779
Si     -13.32345694      -9.96677418       0.28492634        1        1        0       0.00002830      -0.00014645      -0.00043183      -5.88202294
Si     -15.16643037     -11.10845185      -0.62512745        1        1        1       0.00009698      -0.00007665      -0.00019020      -5.82702213
Si      -9.50356604      -1.13129081      -0.48436670        1        1        1       0.00006197       0.00007244       0.00019084      -5.79916475