1468
Lattice="34.28437040450861 -1.7499310407263788e-18 1.7318690202132856e-19 17.142185202254304 29.691135725838677 -5.293613824847349e-19 1.6973903571663671e-18 4.418500702892581e-19 34.54666463308302" Properties=species:S:1:pos:R:3:travel:I:3:forces:R:3:energies:R:1 cutoff_factor=1.2 nneightol=1.2 energy=-8415.601006175266 free_energy=-8415.601006175266 stress="0.0016717873545514996 6.974823750045848e-08 2.2411145403537778e-07 6.974823750045848e-08 0.0016717126451785019 1.1317875703914047e-07 2.2411145403537778e-07 1.1317875703914047e-07 -0.003343354297329086" pbc="T T T"
Si      13.31079681       3.23195556       4.67809237        0        0        0       0.00003222      -0.00001290      -0.00002965      -4.55759776
Si       9.51567354       9.80525252       4.67806211        0        0        0       0.00002366       0.00001052      -0.00000390      -4.55759626
Si       5.67391036       3.20496495       4.65681633        0        0        0       0.00000881       0.00001172       0.00001845      -4.57532405
Si      17.14217788       9.82620975       4.68776159        0        0        0       0.00000780      -0.00003331       0.00001249      -4.53834600
Si       7.72240069       8.87086947       3.28994548        0        0        0      -0.00001746       0.00000042      -0.00004763      -5.46406561
Si       5.57838021       5.24780803       3.30593074        0        0        0      -0.00000350       0.00005595       0.00003565      -5.38562370
Si       3.93352427       2.20013836       3.26687884        0        0        0       0.00000548       0.00004693       0.00002313      -5.29107845
Si       2.20026422       3.72154335       2.49258650        0        0        0       0.00004779       0.00001479       0.00002347      -5.58816485
Si      17.14217982       9.82620773       2.11131845        0        0        0       0.00001863      -0.00003334      -0.00007112      -5.36424199
Si      15.26708345       6.49010063       2.71377428        0        0        0       0.00004068       0.00002202      -0.00000239      -5.63204354
Si      13.31831523       3.27087644       2.11119387        0        0        0       0.00002607      -0.00001784      -0.00003392      -5.39545467
Si      12.10531532      -0.05659932       2.51831927        0        0        0       0.00000492      -0.00004121      -0.00002415      -5.66478390
Si      15.38091189       8.80933723       3.29053969        0        0        0       0.00001347       0.00001540       0.00000301      -5.58487594
Si      13.31547712       9.87037063       2.71376100        0        0        0       0.00001182      -0.00002487       0.00000460      -5.63203909
Si      13.30214607       5.27872770       3.30198237        0        0        0       0.00002598      -0.00000836       0.00001066      -5.54245645
Si      11.33118592       6.47122565       2.71186468        0        0        0       0.00002412       0.00002356       0.00001028      -5.63490793
Si      11.60497123       2.14610314       3.28997755        0        0        0      -0.00000957      -0.00002426      -0.00005204      -5.46406556
Si       9.48161388       3.12209131       2.69339669        0        0        0       0.00000555       0.00004734       0.00001567      -5.57419739
Si       6.82122945      -0.05754293       2.50730360        0        0        0      -0.00001191      -0.00001893      -0.00002546      -5.71000259
Si      11.28391716       8.77438253       3.30196703        0        0        0       0.00002639      -0.00000831      -0.00002699      -5.54246036
Si       9.55314943       9.79229870       2.11116254        0        0        0       0.00003703       0.00000126       0.00001759      -5.39546392
Si       9.40772477       5.36070608       3.37873661        0        0        0      -0.00002754      -0.00001760       0.00000372      -4.94351937
Si       7.50596953       6.54398532       2.69337932        0        0        0       0.00002183      -0.00002792       0.00000598      -5.57419413
Si       7.39531117       2.10081657       3.30594426        0        0        0       0.00001524       0.00001987       0.00004295      -5.38562795
Si       5.73029253       3.23751098       2.10468932        0        0        0       0.00003867      -0.00000915       0.00002956      -5.41029995
Si       4.38449286      -0.06160570       2.49260670        0        0        0      -0.00000822      -0.00001180      -0.00000600      -5.58816846
Si       0.00001105      -0.07089876       0.40039035        0        0        0       0.00001255      -0.00000308      -0.00003703      -4.89298702
Si      17.14218023       9.82618224      -0.16301107        0        0        0       0.00001374       0.00000240      -0.00006599      -5.63511713
Si      15.16960026       8.68732479      -0.62641168        0        0        1       0.00003147       0.00000166       0.00000059      -5.85292856
Si      15.24350226       6.51835030       0.28839308        0        0        0       0.00003012      -0.00000928       0.00000619      -5.84018542
Si      13.32568880       5.51105367      -0.63232957        0        0        1       0.00001799       0.00000185      -0.00004467      -5.84625117
Si      13.32702176       3.23940139      -0.16571294        0        0        0       0.00000274       0.00000975      -0.00001832      -5.63997190
Si      11.36322036       2.10220520      -0.66220892        0        0        1       0.00000207      -0.00004090      -0.00000602      -5.85116410
Si      11.48034695      -0.06291893       0.22280299        0        0        0       0.00000052       0.00002569      -0.00003109      -5.82598276
Si      13.32815692       9.83581239       0.28837959        0        0        0       0.00001240       0.00002442       0.00001580      -5.84018398
Si      11.49691171       8.67857494      -0.63234294        0        0        1      -0.00000256      -0.00001896      -0.00003146      -5.84625158
Si      11.40378691       6.51312568       0.28660826        0        0        0       0.00000546       0.00002713       0.00001636      -5.84038761
Si       9.50177093       5.41498798      -0.54450558        0        0        1       0.00004257       0.00002959       0.00000292      -5.85329966
Si       9.50682431       3.20701067       0.26979525        0        0        0       0.00002365      -0.00002090      -0.00000657      -5.84222214
Si       7.66599477       2.09340167      -0.67342130        0        0        1      -0.00001011       0.00002005       0.00001500      -5.84395166
Si       7.52500697      -0.06160344       0.22532915        0        0        0       0.00001491       0.00003055       0.00000570      -5.81341982
Si       9.53025686       9.81554155      -0.16574439        0        0        0       0.00002152       0.00001485       0.00000549      -5.63997085
Si       7.56351700       8.68343043      -0.66223524        0        0        1       0.00001198       0.00001173       0.00000491      -5.85116102
Si       7.59212033       6.52334384       0.26977543        0        0        0       0.00001323       0.00002573       0.00002445      -5.84222408
Si       5.70731115       5.48590993      -0.67344156        0        0        1       0.00002414      -0.00001009       0.00004034      -5.84395416
Si       5.70626421       3.22362416      -0.17416616        0        0        0       0.00003504       0.00004516      -0.00000514      -5.64203919
Si       3.74576410       2.09172000      -0.69229003        0        0        1       0.00004762       0.00001676       0.00007529      -5.85479655
Si       3.83596987      -0.07995175       0.18354446        0        0        0      -0.00000362       0.00004226       0.00002752      -5.83166646
Si      19.04836793      10.92672073      -3.72042923        0        0        1       0.00002464       0.00000202       0.00002733      -5.86977968
Si      17.14218471       7.62514362      -3.72042383        0        0        1       0.00002519      -0.00002597       0.00002329      -5.86978049
Si      15.24098113       4.33671105      -3.73415826        0        0        1       0.00002621       0.00002414      -0.00001801      -5.86733126
Si      13.33088600       1.05900203      -3.79374860        0        0        1       0.00001237       0.00000331      -0.00002249      -5.86481745
Si      15.23601507      10.92671316      -3.72043477        0        0        1       0.00001613       0.00001088       0.00001251      -5.86977863
Si      15.20166028       8.70583285      -2.96988713        0        0        1       0.00001666      -0.00001911      -0.00001455      -5.84796549
Si      13.33250119       7.62667126      -3.84138455        0        0        1       0.00002689      -0.00000680      -0.00003904      -5.82267554
Si      13.33077243       5.46748444      -2.97570180        0        0        1       0.00001236      -0.00001769       0.00003157      -5.84980008
Si      11.42232756       4.33553245      -3.73560685        0        0        1       0.00000249       0.00001560      -0.00001046      -5.86704050
Si      11.39256991       2.11443389      -2.99974562        0        0        1       0.00002308       0.00001069       0.00002776      -5.84643572
Si       9.52024767       0.99755004      -3.80850003        0        0        1      -0.00000590      -0.00000884      -0.00000672      -5.82371513
Si      11.43754211      10.92442897      -3.73417839        0        0        1       0.00003349      -0.00000498      -0.00001567      -5.86732860
Si      11.46171501       8.70475882      -2.97571465        0        0        1       0.00001975      -0.00001634       0.00003951      -5.84979912
Si       9.52720097       7.61795593      -3.73561750        0        0        1       0.00004478      -0.00001097      -0.00000486      -5.86704099
Si       9.52052900       5.42581311      -2.91364782        0        0        1      -0.00002489      -0.00002207       0.00003011      -5.84048190
Si       7.62948098       4.33399968      -3.75356651        0        0        1       0.00000230       0.00000060       0.00000803      -5.86408020
Si       7.64523122       2.11473749      -3.01028472        0        0        1       0.00001265       0.00000045       0.00001105      -5.84850360
Si       5.71439207       1.05586601      -3.81555290        0        0        1      -0.00002003       0.00004497       0.00000141      -5.86175338
Si       7.64391474      10.90907144      -3.79378209        0        0        1       0.00001409       0.00001438      -0.00000481      -5.86481609
Si       7.58878910       8.70272820      -2.99976906        0        0        1       0.00001903       0.00000424       0.00002176      -5.84643443
Si       5.68538895       7.63966927      -3.80851930        0        0        1       0.00001653      -0.00000956      -0.00000603      -5.82371487
Si       5.71540948       5.45726291      -3.01030290        0        0        1       0.00001476       0.00001458       0.00002669      -5.84850369
Si       3.83299381       4.31452148      -3.81556646        0        0        1       0.00000829      -0.00001559       0.00001100      -5.86175105
Si       3.77793632       2.11029288      -3.02627906        0        0        1       0.00001773       0.00000483       0.00002308      -5.84384253
Si       1.87060044       1.00908378      -3.76406477        0        0        1       0.00001194       0.00001192       0.00000457      -5.83300512
Si      -5.67390349       3.20502285       4.65683003        1        0        0      -0.00002253      -0.00000322       0.00004896      -4.57532147
Si      -0.00000989       6.48439174       4.60254800        1        0        0      -0.00000165       0.00006618       0.00005212      -4.58851988
Si       6.06497447      10.40552203       2.51827998        1        0        0      -0.00001290       0.00003581      -0.00001886      -5.66479195
Si       3.42214123       5.82979715       2.50727101        1        0        0       0.00001839       0.00000467       0.00003580      -5.71001488
Si       3.88964860      11.07790340       3.24354983        1        0        0       0.00000403      -0.00000192       0.00000516      -5.49311580
Si       1.95018432       9.75100512       2.67939854        1        0        0       0.00002583       0.00001874       0.00000190      -5.61369531
Si       1.81164082       7.41447313       3.23877854        1        0        0      -0.00002442      -0.00002481       0.00000543      -5.43652578
Si      -0.00000695       6.52354854       2.04363559        1        0        0       0.00001602       0.00003789       0.00007019      -5.45944368
Si      -0.00001075       4.46690572       3.22418214        1        0        0      -0.00000875      -0.00000215       0.00002017      -5.31115620
Si      -2.20028948       3.72157512       2.49258088        1        0        0       0.00003599       0.00001123       0.00003241      -5.58818736
Si       0.00000397      10.79816145       3.47204096        1        0        0       0.00002011      -0.00000037       0.00003540      -4.92419495
Si      -1.95018425       9.75102593       2.67939862        1        0        0      -0.00002031      -0.00001660       0.00000343      -5.61369442
Si      -1.81164936       7.41449075       3.23877097        1        0        0       0.00003855      -0.00001834       0.00003275      -5.43653576
Si      -3.42216098       5.82982931       2.50726847        1        0        0      -0.00000266       0.00001832       0.00003062      -5.71002061
Si      -3.93352757       2.20018974       3.26688890        1        0        0      -0.00004925      -0.00000400       0.00001331      -5.29109480
Si      -5.73031664       3.23755247       2.10471026        1        0        0       0.00000365       0.00000237       0.00006808      -5.41030225
Si      -6.82119648      -0.05750528       2.50733415        1        0        0       0.00001631       0.00000256      -0.00001449      -5.70999660
Si      -3.88963914      11.07793231       3.24356110        1        0        0       0.00001934      -0.00003390      -0.00001933      -5.49311353
Si      -6.06496912      10.40556185       2.51829048        1        0        0       0.00002708       0.00001145      -0.00002381      -5.66479141
Si      -5.57839769       5.24786231       3.30594249        1        0        0       0.00003019      -0.00002872       0.00001727      -5.38562621
Si      -7.50598451       6.54403517       2.69339229        1        0        0      -0.00002738      -0.00004120       0.00002329      -5.57419438
Si      -7.39531634       2.10085399       3.30598936        1        0        0       0.00003221      -0.00004252      -0.00002687      -5.38560502
Si      -9.48161767       3.12212993       2.69342509        1        0        0       0.00000055       0.00003984      -0.00001734      -5.57419435
Si      -7.72240558       8.87091819       3.28995743        1        0        0       0.00004844      -0.00003210      -0.00003693      -5.46406580
Si      -9.40773718       5.36075042       3.37874930        1        0        0       0.00003605      -0.00004445       0.00001292      -4.94352020
Si     -11.60497475       2.14613738       3.28999233        1        0        0      -0.00001105      -0.00001725      -0.00004862      -5.46407040
Si       5.74702427       9.86742146       0.22276738        1        0        0       0.00004189       0.00000532       0.00000855      -5.82597832
Si       3.83342061       8.68973617      -0.48434165        1        0        1       0.00001085       0.00000443       0.00000063      -5.79916258
Si       3.77052628       6.44131143       0.22530053        1        0        0       0.00001964      -0.00001140       0.00001665      -5.81341553
Si       1.94953036       5.38475686      -0.78256627        1        0        1      -0.00000850       0.00001892       0.00001235      -5.84634924
Si       1.91013419       3.25566873       0.18352777        1        0        0       0.00003879      -0.00000720       0.00004033      -5.83166394
Si      -0.00000411       2.07687664      -0.50559135        1        0        1       0.00000694       0.00002001       0.00000736      -5.78064798
Si       1.92110574       9.79509218       0.28333768        1        0        0       0.00000294       0.00002403       0.00000263      -5.87028159
Si      -0.00000032       8.79211831      -0.63419154        1        0        1      -0.00000863       0.00003134       0.00003959      -5.81966962
Si      -0.00000565       6.50942360      -0.22613517        1        0        0      -0.00001344       0.00001591      -0.00002347      -5.64186769
Si      -1.94954949       5.38476908      -0.78256775        1        0        1       0.00003699       0.00001176       0.00003254      -5.84635612
Si      -1.91014280       3.25567935       0.18352825        1        0        0      -0.00002166       0.00003204       0.00003118      -5.83166420
Si      -3.74577566       2.09174225      -0.69228099        1        0        1      -0.00002243       0.00000097       0.00008342      -5.85479725
Si      -3.83594165      -0.07992698       0.18356148        1        0        0      -0.00001871       0.00002581      -0.00000050      -5.83166479
Si      -1.92110129       9.79510676       0.28333733        1        0        0       0.00001214       0.00000800       0.00000706      -5.87028301
Si      -3.83342484       8.68976365      -0.48433974        1        0        1       0.00000244      -0.00001238       0.00000965      -5.79916298
Si      -3.77054142       6.44133898       0.22530000        1        0        0       0.00002046      -0.00002165       0.00000449      -5.81341852
Si      -5.70733174       5.48594289      -0.67342768        1        0        1      -0.00000478      -0.00002588       0.00001154      -5.84395320
Si      -5.70626940       3.22365943      -0.17414427        1        0        0      -0.00002066       0.00002280      -0.00002958      -5.64203795
Si      -7.66599653       2.09343710      -0.67339804        1        0        1       0.00002112      -0.00001677       0.00000798      -5.84394967
Si      -7.52498163      -0.06156597       0.22536164        1        0        0      -0.00000076       0.00000537      -0.00003260      -5.81341486
Si      -5.74702352       9.86745142       0.22277888        1        0        0      -0.00001585      -0.00000706      -0.00000695      -5.82597743
Si      -7.56352150       8.68346345      -0.66222112        1        0        1      -0.00000403       0.00002831      -0.00000737      -5.85116233
Si      -7.59213870       6.52338193       0.26979137        1        0        0       0.00001108       0.00000258       0.00001333      -5.84222247
Si      -9.50178991       5.41502343      -0.54448336        1        0        1      -0.00003215       0.00000918       0.00000179      -5.85329957
Si      -9.50682892       3.20704571       0.26981832        1        0        0      -0.00001978      -0.00004634       0.00000748      -5.84222350
Si     -11.36322022       2.10222927      -0.66218617        1        0        1      -0.00000367      -0.00001616      -0.00001336      -5.85116539
Si     -11.48032214      -0.06289757       0.22282337        1        0        0      -0.00000234       0.00002191      -0.00002373      -5.82598309
Si       3.79390347      10.89740916      -3.74230086        1        0        1       0.00000100       0.00003215      -0.00000665      -5.86282609
Si       3.81984451       8.71362096      -2.87882119        1        0        1       0.00000743       0.00001373       0.00001341      -5.87093687
Si       1.91538861       7.65601914      -3.75161999        1        0        1      -0.00000835      -0.00000670      -0.00003085      -5.86138955
Si       1.92581664       5.41973349      -3.08817665        1        0        1       0.00003081       0.00002540       0.00002424      -5.80264308
Si      -0.00000728       4.30592608      -3.79042764        1        0        1      -0.00000452       0.00001224       0.00001093      -5.85532401
Si      -0.00000417       2.12880332      -2.90575255        1        0        1       0.00001704       0.00001572       0.00004386      -5.87440868
Si      -1.87061124       1.00909257      -3.76405606        1        0        1       0.00000901       0.00001296      -0.00002615      -5.83300401
Si       0.00000712      10.92668627      -3.84539803        1        0        1       0.00001581      -0.00000130       0.00000512      -5.81849852
Si      -0.00000134       8.76816910      -2.98227300        1        0        1      -0.00000314      -0.00001593       0.00001745      -5.85188551
Si      -1.91539823       7.65602838      -3.75162098        1        0        1       0.00002391      -0.00002371      -0.00001276      -5.86139180
Si      -1.92583040       5.41974067      -3.08817823        1        0        1      -0.00001415       0.00004738       0.00003438      -5.80264208
Si      -3.83301155       4.31453430      -3.81555999        1        0        1       0.00000982       0.00000121       0.00001223      -5.86174917
Si      -3.77794483       2.11030912      -3.02626840        1        0        1       0.00000660       0.00000972       0.00001560      -5.84384089
Si      -5.71439648       1.05588883      -3.81554000        1        0        1       0.00001331      -0.00000631      -0.00000122      -5.86174895
Si      -3.79388653      10.89742530      -3.74230333        1        0        1       0.00001046       0.00001944       0.00000369      -5.86282653
Si      -3.81984800       8.71364044      -2.87881848        1        0        1       0.00000453      -0.00000666      -0.00000010      -5.87093650
Si      -5.68539725       7.63968905      -3.80851103        1        0        1       0.00000885      -0.00001611      -0.00001563      -5.82371789
Si      -5.71542357       5.45728296      -3.01029052        1        0        1       0.00000311       0.00002943       0.00002131      -5.84850472
Si      -7.62949608       4.33402308      -3.75354995        1        0        1       0.00000633      -0.00000503       0.00001282      -5.86407953
Si      -7.64523194       2.11476275      -3.01026377        1        0        1      -0.00002896      -0.00001289       0.00001438      -5.84850280
Si      -9.52024407       0.99756877      -3.80847766        1        0        1       0.00000719      -0.00000485      -0.00002674      -5.82371771
Si      -7.58879033       8.70275607      -2.99975624        1        0        1      -0.00000680      -0.00002897       0.00002333      -5.84643549
Si      -9.52054125       5.42584112      -2.91362714        1        0        1       0.00004341      -0.00003913       0.00002583      -5.84048100
Si     -11.39256995       2.11445440      -2.99972510        1        0        1       0.00001647       0.00000856       0.00002326      -5.84643757
Si      -5.67696711      -3.34848925       4.60260709        1        1        0      -0.00003227      -0.00001287      -0.00001124      -4.58851337
Si     -13.30837335      -3.37487470       4.62687025        1        1        0      -0.00002826      -0.00002094      -0.00004377      -4.56670027
Si      -9.51557415      -9.94425033       4.62685287        1        1        0       0.00002677      -0.00002426      -0.00004195      -4.56670222
Si     -17.14213393      -9.96787872       4.63633943        1        1        0      -0.00003211       0.00000777      -0.00005173      -4.54416360
Si      -2.18414696      -3.87259941       2.49262544        1        1        0      -0.00002727       0.00001154       0.00001289      -5.58816142
Si      -3.39900531      -5.98490249       2.50732480        1        1        0      -0.00005343       0.00000578       0.00003326      -5.71000088
Si      -3.92976966      -2.33974253       3.22422783        1        1        0      -0.00003799      -0.00002580       0.00001906      -5.31112841
Si      -5.71087727      -3.36806563       2.04368888        1        1        0      -0.00003272      -0.00001499       0.00004121      -5.45944018
Si      -5.57662320      -5.38246406       3.23882614        1        1        0       0.00000453       0.00000302       0.00000233      -5.43653467
Si      -7.53085804      -6.67070636       2.67944883        1        1        0       0.00003268       0.00001408      -0.00001815      -5.61369628
Si      -7.71024001      -9.01378382       3.24359562        1        1        0      -0.00004222      -0.00000552       0.00000967      -5.49310570
Si      -9.53465314      -9.94226910       2.06828797        1        1        0       0.00001719      -0.00000600       0.00000403      -5.42434783
Si      -4.38445522      -0.06156346       2.49262471        1        1        0      -0.00001817      -0.00001342       0.00001513      -5.58815836
Si      -7.38826806      -2.24459470       3.23882672        1        1        0       0.00000435      -0.00000582       0.00001894      -5.43654490
Si      -9.48104852      -3.29285721       2.67945758        1        1        0       0.00000401      -0.00000583      -0.00001564      -5.61368745
Si      -9.41280234      -5.50534810       3.47208314        1        1        0      -0.00002122      -0.00004595       0.00003065      -4.92418695
Si     -11.30968492      -6.60050979       2.67693321        1        1        0      -0.00002522      -0.00002377       0.00002345      -5.66416701
Si     -11.27936543      -8.91697858       3.23381589        1        1        0      -0.00003245       0.00004302       0.00001872      -5.58588232
Si     -13.31295018     -10.03395030       2.68182066        1        1        0      -0.00001611      -0.00002687       0.00000797      -5.65931827
Si     -11.59990124      -2.27665539       3.24361197        1        1        0      -0.00001363      -0.00001116      -0.00001543      -5.49310040
Si     -13.31620538      -3.39239706       2.06830631        1        1        0       0.00000712       0.00000494      -0.00001529      -5.42435050
Si     -13.30063623      -5.41600918       3.23383329        1        1        0       0.00001418      -0.00003234       0.00001261      -5.58587691
Si     -15.28476019      -6.61865051       2.68183569        1        1        0      -0.00000853      -0.00002224      -0.00000590      -5.65931337
Si     -15.37336608      -8.94666765       3.23744068        1        1        0      -0.00002245      -0.00003874       0.00005744      -5.61471477
Si     -17.14213808      -9.96786843       2.07890840        1        1        0      -0.00001978      -0.00001340      -0.00002354      -5.37889250
Si     -12.10529115      -0.05657451       2.51834187        1        1        0       0.00000540      -0.00004607      -0.00005641      -5.66478082
Si      -1.92578154      -3.38841552       0.18356007        1        1        0       0.00001057       0.00000860       0.00002095      -5.83166747
Si      -3.74993410      -4.48707624      -0.78252027        1        1        1      -0.00000905       0.00003333      -0.00000916      -5.84635061
Si      -3.75441684      -6.59237992       0.22535585        1        1        0       0.00001297       0.00000661       0.00000026      -5.81340924
Si      -5.67016886      -7.77104247      -0.48429418        1        1        1      -0.00003060       0.00001300      -0.00001583      -5.79916422
Si      -5.73326535     -10.01711620       0.22280625        1        1        0       0.00001534      -0.00001172       0.00000399      -5.82598438
Si      -7.56431743     -11.08877600      -0.76306324        1        1        1      -0.00002440      -0.00000316      -0.00002248      -5.84933836
Si      -1.86001834      -1.14478820      -0.50557266        1        1        1      -0.00001163       0.00001545       0.00000063      -5.78064994
Si      -5.69867783      -3.36103245      -0.22608490        1        1        0      -0.00003655       0.00001650      -0.00001604      -5.64186730
Si      -7.67555598      -4.50236557      -0.63413786        1        1        1      -0.00001397      -0.00000638       0.00001139      -5.81967378
Si      -7.58358706      -6.66758425       0.28338463        1        1        0      -0.00001754       0.00000671       0.00001279      -5.87028141
Si      -9.50207513      -7.68346479      -0.63095864        1        1        1       0.00000729      -0.00000712       0.00000370      -5.82313540
Si      -9.51309966      -9.96430061      -0.19696432        1        1        0      -0.00002449      -0.00000492      -0.00002600      -5.64345113
Si     -11.48493883     -11.11408547      -0.62443003        1        1        1       0.00000092      -0.00000868      -0.00002760      -5.82439482
Si      -5.69949426      -1.11034789      -0.78251697        1        1        1       0.00001296      -0.00000559      -0.00001496      -5.84635598
Si      -9.50470304      -3.34010449       0.28339606        1        1        0      -0.00001289       0.00000999      -0.00003133      -5.87028069
Si     -11.34373446      -4.49360694      -0.63094915        1        1        1       0.00000004       0.00000925      -0.00003018      -5.82313518
Si     -11.40800968      -6.65728451       0.28027599        1        1        0      -0.00002369      -0.00002658       0.00002039      -5.88474016
Si     -13.32112290      -7.76182319      -0.52043529        1        1        1      -0.00002853       0.00001909       0.00000401      -5.80597850
Si     -13.32349704      -9.96683839       0.28466279        1        1        0      -0.00000974       0.00000529       0.00001514      -5.88204241
Si     -15.16650516     -11.10852579      -0.62531812        1        1        1      -0.00001754      -0.00003179      -0.00000796      -5.82703919
Si      -9.50361988      -1.13130739      -0.48428546        1        1        1      -0.00001565      -0.00001613      -0.00000963      -5.79916591