1468
Lattice="34.62887586033849 1.2038171698848378e-19 3.585950174586832e-20 17.314437930169245 29.989486202364347 -4.393458731221036e-20 -2.1192905123831187e-19 3.698364103673513e-19 34.89380574451685" Properties=species:S:1:pos:R:3:travel:I:3:forces:R:3 cutoff_factor=1.2 nneightol=1.2 energy=-239353.6193074159 free_energy=-239353.6193074159 stress="0.0003792614700944813 -5.5610884532064934e-08 -3.1421559498189994e-07 -5.5610884532064934e-08 0.00034655900277454917 -3.9528303114738695e-08 -3.1421559498189994e-07 -3.9528303114738695e-08 -0.0007266594439414616" pbc="T T T"
Si      13.41802664       3.14949024       4.71088389        0        0        0       0.00023984      -0.00004100      -0.00002670
Si       9.49956165       9.93581247       4.71235062        0        0        0       0.00015950       0.00016289      -0.00002268
Si       5.57458977       3.13823996       4.63666085        0        0        0       0.00029648       0.00018788       0.00012305
Si      17.31440969       9.92425375       4.82468968        0        0        0      -0.00014498       0.00007823       0.00003248
Si       7.71018188       8.95350240       3.29106091        0        0        0       0.00027892       0.00000364       0.00005241
Si       5.55380568       5.26833143       3.34201597        0        0        0       0.00030476      -0.00019359      -0.00001012
Si       3.88923603       2.15895174       3.19666017        0        0        0       0.00026397       0.00008479      -0.00001648
Si       2.20164189       3.75612538       2.47071335        0        0        0       0.00010267      -0.00000346       0.00008423
Si      17.31432435       9.92421867       2.12645380        0        0        0       0.00017086       0.00004745      -0.00043346
Si      15.34142978       6.56304680       2.67587742        0        0        0       0.00016316      -0.00005792       0.00003624
Si      13.42951276       3.23470471       2.15204359        0        0        0       0.00012682      -0.00011815       0.00031750
Si      12.21415955      -0.07103487       2.49251009        0        0        0      -0.00007922      -0.00020797       0.00000964
Si      15.51833470       8.88738367       3.32800929        0        0        0      -0.00029266      -0.00009033       0.00033426
Si      13.41676231       9.89634367       2.67644866        0        0        0       0.00029443       0.00033874       0.00006465
Si      13.41030258       5.28217355       3.35869339        0        0        0       0.00016760       0.00013625       0.00014359
Si      11.47694206       6.55366542       2.66528200        0        0        0       0.00014503       0.00011442       0.00016469
Si      11.67238064       2.09220145       3.28990496        0        0        0       0.00025547       0.00002201       0.00005134
Si       9.52915340       3.08635349       2.62733676        0        0        0       0.00003685       0.00017461       0.00008740
Si       6.85905281      -0.06908879       2.47835454        0        0        0      -0.00006598      -0.00040167       0.00012735
Si      11.34250670       8.86338451       3.35970561        0        0        0       0.00023011       0.00011716       0.00013146
Si       9.57855690       9.90374316       2.15342518        0        0        0      -0.00009862       0.00024133       0.00038297
Si       9.47096769       5.39612197       3.04498185        0        0        0      -0.00009021      -0.00007454       0.00006297
Si       7.49774131       6.59888741       2.62806702        0        0        0       0.00015499      -0.00010767       0.00010866
Si       7.41137982       2.06088742       3.34311100        0        0        0      -0.00001308       0.00016515       0.00008653
Si       5.73750940       3.23337094       2.15095869        0        0        0       0.00003601       0.00019736       0.00052387
Si       4.43189241      -0.10299796       2.47397696        0        0        0       0.00001168      -0.00007167       0.00004001
Si       0.00004767      -0.07441824      -0.21346957        0        0        0      -0.00003532      -0.00031488       0.00016023
Si      17.31436179       9.92451472      -0.19933529        0        0        0       0.00005370       0.00009282      -0.00002092
Si      15.32915721       8.77869154      -0.65939899        0        0        1      -0.00018673      -0.00013675       0.00002730
Si      15.37840443       6.58267480       0.22592903        0        0        0       0.00014370       0.00004852      -0.00013994
Si      13.45338653       5.53670760      -0.66064886        0        0        1       0.00004008       0.00002667       0.00014341
Si      13.45507962       3.25331824      -0.16686984        0        0        0      -0.00001127       0.00009335      -0.00010259
Si      11.48743513       2.11140376      -0.69129879        0        0        1      -0.00003721      -0.00008497       0.00011650
Si      11.58371811      -0.08492390       0.16445890        0        0        0       0.00001777       0.00014205      -0.00003867
Si      13.45176870       9.91895951       0.22636959        0        0        0       0.00002038       0.00027080      -0.00026695
Si      11.58294872       8.77524886      -0.65997009        0        0        1       0.00017288      -0.00009596       0.00000176
Si      11.51990586       6.57928861       0.21600690        0        0        0       0.00016149       0.00014251      -0.00003344
Si       9.58452452       5.46230185      -0.54946499        0        0        1       0.00008437       0.00003080      -0.00004351
Si       9.58500118       3.21225803       0.19287952        0        0        0       0.00005113       0.00000372       0.00011306
Si       7.70724168       2.10273660      -0.70807991        0        0        1      -0.00005157       0.00020784       0.00018335
Si       7.59051452      -0.08382478       0.16470488        0        0        0      -0.00015327       0.00016082       0.00029338
Si       9.60598005       9.91797520      -0.16543461        0        0        0       0.00012204       0.00022603      -0.00013667
Si       7.63220266       8.78526275      -0.68821728        0        0        1      -0.00018151      -0.00022855       0.00002882
Si       7.63548285       6.58631405       0.19436667        0        0        0      -0.00000258      -0.00001435       0.00011238
Si       5.73491788       5.51408535      -0.70365725        0        0        1       0.00004469      -0.00017890       0.00019465
Si       5.75041180       3.24608726      -0.15612587        0        0        0       0.00015045       0.00013474      -0.00011262
Si       3.78955586       2.11090132      -0.72271973        0        0        1       0.00023482       0.00004627       0.00022389
Si       3.88406178      -0.08455496       0.13165174        0        0        0      -0.00006205      -0.00008167       0.00016748
Si      19.24904602      11.04162840      -3.77000277        0        0        1       0.00003292       0.00009589       0.00010245
Si      17.31441446       7.69125089      -3.76998181        0        0        1       0.00001134      -0.00009922       0.00007523
Si      15.40011196       4.38095592      -3.78170684        0        0        1      -0.00004401      -0.00008146      -0.00008968
Si      13.46179128       1.06406036      -3.85735327        0        0        1      -0.00006883       0.00017405      -0.00012124
Si      15.37976294      11.04162755      -3.76996439        0        0        1       0.00003384       0.00007090       0.00012026
Si      15.35548695       8.79390948      -3.02967429        0        0        1      -0.00008298       0.00009579      -0.00003853
Si      13.46064422       7.70023407      -3.88787056        0        0        1       0.00008302      -0.00000598       0.00016484
Si      13.46112098       5.51159953      -3.03100551        0        0        1       0.00007496      -0.00012978       0.00001848
Si      11.52670801       4.37937735      -3.78878396        0        0        1       0.00012489       0.00017493       0.00017814
Si      11.50828724       2.13300626      -3.05634223        0        0        1       0.00002627       0.00000293       0.00001944
Si       9.60995561       1.01960488      -3.87100116        0        0        1       0.00003694      -0.00001277       0.00010033
Si      11.55556496      11.03906696      -3.78114108        0        0        1      -0.00012558       0.00019544      -0.00002106
Si      11.56536542       8.79460132      -3.03039941        0        0        1      -0.00007819       0.00021485       0.00001555
Si       9.61712454       7.68608624      -3.78777128        0        0        1       0.00016926       0.00004917       0.00013779
Si       9.61004569       5.47709723      -2.94392869        0        0        1      -0.00015170      -0.00006828       0.00031084
Si       7.70480588       4.37763135      -3.80684752        0        0        1       0.00001596      -0.00000932       0.00013992
Si       7.70505683       2.13284886      -3.07081386        0        0        1      -0.00003627      -0.00009712       0.00013690
Si       5.76476147       1.05881791      -3.88690585        0        0        1      -0.00003022      -0.00001327       0.00012548
Si       7.71303646      11.01907738      -3.85488766        0        0        1       0.00003451       0.00004736       0.00014100
Si       7.66243253       8.79276550      -3.05354539        0        0        1       0.00012155      -0.00002607      -0.00013312
Si       5.74909859       7.70480169      -3.86751069        0        0        1      -0.00009898       0.00000043      -0.00001292
Si       5.76063231       5.49831621      -3.06698658        0        0        1      -0.00006133      -0.00004988       0.00021535
Si       3.86070510       4.35450172      -3.88299865        0        0        1       0.00000630       0.00000194      -0.00003038
Si       3.81611161       2.12957366      -3.08423038        0        0        1      -0.00003543       0.00001169      -0.00005593
Si       1.89577468       1.02171955      -3.84404114        0        0        1       0.00012749      -0.00005027       0.00003412
Si      -5.57471140       3.13850013       4.63699896        1        0        0      -0.00007600      -0.00005020       0.00034715
Si       0.00000462       6.43325991       4.62891345        1        0        0      -0.00001140      -0.00004708       0.00024416
Si       6.10664645      10.50689129       2.49733215        1        0        0      -0.00018418       0.00042426      -0.00015694
Si       3.42646312       5.85417477       2.48486376        1        0        0      -0.00072640       0.00040122       0.00004090
Si       3.96705041      11.10169891       3.32423751        1        0        0       0.00022449      -0.00034327       0.00004632
Si       2.02537360       9.75207522       2.64575300        1        0        0      -0.00004575      -0.00016301      -0.00018173
Si       1.85728126       7.40759892       3.30644095        1        0        0       0.00001836      -0.00029323      -0.00023799
Si      -0.00006785       6.48658606       2.15435860        1        0        0       0.00005268       0.00004976       0.00002124
Si      -0.00005225       4.39774792       3.29667805        1        0        0       0.00016670       0.00002584       0.00013102
Si      -2.20178585       3.75624561       2.47088143        1        0        0      -0.00010933      -0.00002610      -0.00008921
Si      -0.00009827      10.80593140       3.16438875        1        0        0       0.00009008       0.00005753      -0.00007377
Si      -2.02563690       9.75223865       2.64579441        1        0        0       0.00009916      -0.00028793      -0.00039479
Si      -1.85733248       7.40771566       3.30647910        1        0        0       0.00009526      -0.00006413      -0.00008484
Si      -3.42659277       5.85432537       2.48506861        1        0        0       0.00031745      -0.00002140      -0.00025630
Si      -3.88936496       2.15918260       3.19698201        1        0        0      -0.00001455      -0.00006129       0.00002123
Si      -5.73765175       3.23352765       2.15133076        1        0        0      -0.00024349       0.00018874       0.00009441
Si      -6.85902008      -0.06900130       2.47886118        1        0        0       0.00012688      -0.00023277      -0.00013014
Si      -3.96732039      11.10187792       3.32423027        1        0        0      -0.00015536      -0.00007232       0.00010489
Si      -6.10686945      10.50702879       2.49723457        1        0        0       0.00008192       0.00009457      -0.00002878
Si      -5.55400379       5.26854974       3.34229971        1        0        0       0.00009942       0.00000889      -0.00026549
Si      -7.49798772       6.59909099       2.62823804        1        0        0       0.00017330      -0.00024261       0.00007713
Si      -7.41149507       2.06102880       3.34356074        1        0        0       0.00010311      -0.00004134      -0.00018362
Si      -9.52932689       3.08647495       2.62775316        1        0        0       0.00017565       0.00003315      -0.00005959
Si      -7.71049798       8.95372363       3.29106517        1        0        0       0.00015795       0.00015340      -0.00002091
Si      -9.47118406       5.39629125       3.04515506        1        0        0      -0.00010490      -0.00000744       0.00005832
Si     -11.67256094       2.09224805       3.29023791        1        0        0      -0.00012093      -0.00011685       0.00008621
Si       5.77719615       9.96608252       0.16819688        1        0        0       0.00016360       0.00014810      -0.00000673
Si       3.85725040       8.77112804      -0.56478269        1        0        1      -0.00011675      -0.00031593       0.00007828
Si       3.78217755       6.50605216       0.17032851        1        0        0       0.00015476      -0.00036542       0.00011597
Si       1.95462522       5.43281765      -0.83537851        1        0        1       0.00013070       0.00006680       0.00014022
Si       1.93514092       3.29077032       0.12754283        1        0        0      -0.00002260      -0.00001004       0.00022058
Si      -0.00001750       2.18796532      -0.63717454        1        0        1      -0.00004137       0.00004656       0.00004605
Si       1.93646293       9.87567158       0.22906467        1        0        0       0.00009802      -0.00005132       0.00002059
Si      -0.00004701       8.83987143      -0.66868696        1        0        1      -0.00004650       0.00003982      -0.00002779
Si      -0.00002126       6.54250908      -0.16481628        1        0        0      -0.00000364      -0.00009637      -0.00015118
Si      -1.95469818       5.43282786      -0.83525385        1        0        1      -0.00015040       0.00015595       0.00009473
Si      -1.93512462       3.29081374       0.12772125        1        0        0      -0.00008763      -0.00008846       0.00014600
Si      -3.78957665       2.11096296      -0.72245340        1        0        1      -0.00026840       0.00007437       0.00006633
Si      -3.88398440      -0.08446980       0.13201924        1        0        0       0.00005386       0.00001756       0.00006915
Si      -1.93657357       9.87570237       0.22906846        1        0        0      -0.00007438      -0.00017737       0.00012906
Si      -3.85733647       8.77113536      -0.56479057        1        0        1       0.00003988      -0.00027357      -0.00003659
Si      -3.78225280       6.50609896       0.17046555        1        0        0      -0.00000970      -0.00032698       0.00009719
Si      -5.73500360       5.51413541      -0.70345128        1        0        1      -0.00002164      -0.00027356       0.00018797
Si      -5.75044772       3.24615895      -0.15576924        1        0        0      -0.00007716       0.00002721      -0.00038137
Si      -7.70729154       2.10278946      -0.70768163        1        0        1       0.00020453       0.00021699       0.00011093
Si      -7.59047430      -0.08375697       0.16518557        1        0        0       0.00016254       0.00003807       0.00009277
Si      -5.77731846       9.96610784       0.16814316        1        0        0       0.00000733       0.00002737      -0.00013801
Si      -7.63230920       8.78525741      -0.68823332        1        0        1       0.00008867       0.00010940       0.00003233
Si      -7.63558414       6.58640591       0.19453607        1        0        0       0.00003266      -0.00022374      -0.00000000
Si      -9.58460821       5.46235803      -0.54924571        1        0        1      -0.00013704      -0.00005816      -0.00010744
Si      -9.58506703       3.21233775       0.19326542        1        0        0       0.00004488       0.00000328      -0.00017840
Si     -11.48742406       2.11142107      -0.69098975        1        0        1      -0.00009320      -0.00008407      -0.00004133
Si     -11.58370109      -0.08492094       0.16479811        1        0        0      -0.00000778       0.00010017      -0.00020222
Si       3.82877178      11.00851573      -3.81588987        1        0        1      -0.00000495      -0.00009419       0.00010277
Si       3.86259489       8.79612692      -2.96583172        1        0        1       0.00000673       0.00003094      -0.00014451
Si       1.93469356       7.73331781      -3.83609871        1        0        1      -0.00013224      -0.00019078       0.00002875
Si       1.93152752       5.48093014      -3.16757805        1        0        1      -0.00011691      -0.00009601       0.00004714
Si      -0.00000267       4.36494960      -3.91114230        1        0        1      -0.00003244      -0.00000193       0.00007881
Si       0.00000227       2.17512843      -3.02995476        1        0        1       0.00004063      -0.00011182      -0.00015099
Si      -1.89579065       1.02172005      -3.84392562        1        0        1      -0.00012987      -0.00002207      -0.00001218
Si       0.00001900      11.02902289      -3.89062507        1        0        1      -0.00003678      -0.00001473       0.00007798
Si      -0.00000695       8.83447585      -3.04224060        1        0        1      -0.00000381      -0.00012144      -0.00025997
Si      -1.93467503       7.73326490      -3.83609260        1        0        1       0.00010816      -0.00008346       0.00008828
Si      -1.93152069       5.48090701      -3.16746639        1        0        1       0.00016161      -0.00005623      -0.00000410
Si      -3.86070335       4.35449375      -3.88284074        1        0        1      -0.00000587      -0.00003880      -0.00007608
Si      -3.81608489       2.12959192      -3.08399916        1        0        1       0.00001534       0.00004446       0.00003568
Si      -5.76474069       1.05883083      -3.88659117        1        0        1       0.00003028      -0.00009029      -0.00005882
Si      -3.82874124      11.00843852      -3.81598172        1        0        1      -0.00001868       0.00004919       0.00006496
Si      -3.86259590       8.79608896      -2.96587987        1        0        1       0.00004363      -0.00004426       0.00025639
Si      -5.74909941       7.70473819      -3.86747191        1        0        1      -0.00001589       0.00002342       0.00006081
Si      -5.76062765       5.49830393      -3.06679658        1        0        1       0.00000017      -0.00006314       0.00013053
Si      -7.70479252       4.37760514      -3.80663895        1        0        1      -0.00000318      -0.00001591       0.00009532
Si      -7.70502041       2.13285820      -3.07045130        1        0        1      -0.00007078      -0.00006082       0.00004754
Si      -9.60987768       1.01956538      -3.87066427        1        0        1      -0.00007448       0.00004282      -0.00003150
Si      -7.66245300       8.79272555      -3.05356963        1        0        1      -0.00011168       0.00006305      -0.00000033
Si      -9.61002667       5.47709432      -2.94373378        1        0        1      -0.00000582      -0.00003715       0.00023963
Si     -11.50820596       2.13302399      -3.05606394        1        0        1      -0.00014709      -0.00003678      -0.00000531
Si      -5.71890236      -3.37579625       4.58455460        1        1        0      -0.00008525       0.00005426       0.00068811
Si     -13.39680822      -3.33283608       4.69470536        1        1        0      -0.00024494      -0.00012114       0.00037605
Si      -9.51807050     -10.03588463       4.69709301        1        1        0      -0.00002581       0.00000330      -0.00015825
Si     -17.31492100     -10.05588972       4.81380255        1        1        0       0.00008067      -0.00004040       0.00029086
Si      -2.23568704      -3.89509995       2.47610122        1        1        0       0.00004079      -0.00008494      -0.00024855
Si      -3.42161983      -6.01340814       2.47978790        1        1        0      -0.00039292       0.00024307       0.00008323
Si      -3.91497831      -2.33440367       3.30729309        1        1        0       0.00024129      -0.00005002      -0.00000290
Si      -5.71378266      -3.37261664       2.12463153        1        1        0      -0.00002892      -0.00010252      -0.00085085
Si      -5.56577218      -5.45050384       3.26213072        1        1        0       0.00006240      -0.00019092      -0.00019489
Si      -7.50628724      -6.73828785       2.62538768        1        1        0       0.00006237       0.00016710      -0.00015134
Si      -7.68379379      -9.08645525       3.31139975        1        1        0       0.00015730       0.00003510       0.00002943
Si      -9.53784383     -10.05340272       2.15603023        1        1        0      -0.00003416      -0.00005581      -0.00023154
Si      -4.43183536      -0.10279447       2.47436479        1        1        0      -0.00004399      -0.00005239      -0.00020593
Si      -7.44139596      -2.20749330       3.26166148        1        1        0      -0.00017423       0.00004322       0.00012472
Si      -9.52932329      -3.24080520       2.62516607        1        1        0       0.00002563      -0.00005969      -0.00007695
Si      -9.35798846      -5.47518480       3.31371293        1        1        0       0.00003688      -0.00010436      -0.00006220
Si     -11.33753721      -6.61492415       2.69461186        1        1        0      -0.00026605       0.00011163      -0.00001900
Si     -11.32053705      -8.96347601       3.29457943        1        1        0      -0.00007354      -0.00015597      -0.00003997
Si     -13.39798882     -10.05055676       2.69170423        1        1        0       0.00011250      -0.00003958       0.00001535
Si     -11.65263696      -2.22067680       3.31234758        1        1        0      -0.00019040       0.00000420       0.00006968
Si     -13.41730958      -3.34054393       2.15469495        1        1        0       0.00010446      -0.00006744      -0.00023172
Si     -13.36619689      -5.42874258       3.29392606        1        1        0       0.00006216      -0.00012369      -0.00009616
Si     -15.35305354      -6.67548868       2.69249708        1        1        0      -0.00002564       0.00000405      -0.00009986
Si     -15.50689785      -9.01816530       3.30747570        1        1        0      -0.00001462       0.00016224      -0.00018432
Si     -17.31471473     -10.05900463       2.10569377        1        1        0       0.00013240      -0.00006537      -0.00003431
Si     -12.21417633      -0.07104782       2.49283301        1        1        0      -0.00007811       0.00000122      -0.00009909
Si      -1.95007987      -3.43108890       0.13274125        1        1        0      -0.00006468      -0.00005871       0.00006524
Si      -3.78897906      -4.52082467      -0.83938631        1        1        1      -0.00003677      -0.00007511      -0.00003588
Si      -3.80398801      -6.64001471       0.16627030        1        1        0       0.00015352       0.00005199       0.00012393
Si      -5.72623464      -7.83784799      -0.56790499        1        1        1      -0.00005931       0.00024584       0.00005318
Si      -5.80266222     -10.09683588       0.16516942        1        1        0      -0.00014218      -0.00012161      -0.00009655
Si      -7.64235290     -11.19237980      -0.80967795        1        1        1       0.00007024      -0.00017335       0.00027252
Si      -1.96015163      -1.20511840      -0.63486026        1        1        1       0.00001615       0.00002329      -0.00012202
Si      -5.73154774      -3.38211087      -0.18942371        1        1        0       0.00001397      -0.00003144       0.00011968
Si      -7.72004525      -4.52912459      -0.68338810        1        1        1      -0.00018541      -0.00003174      -0.00016244
Si      -7.64662722      -6.72500969       0.20910627        1        1        0       0.00004739      -0.00013926       0.00004308
Si      -9.59555547      -7.76895252      -0.66226261        1        1        1      -0.00000096       0.00007806      -0.00000998
Si      -9.58992444     -10.06544332      -0.16521205        1        1        0       0.00008491      -0.00017945      -0.00031227
Si     -11.58483969     -11.21283271      -0.64833664        1        1        1       0.00004409       0.00005447       0.00002658
Si      -5.74751414      -1.13075040      -0.84005793        1        1        1      -0.00016636       0.00001628      -0.00000463
Si      -9.58556653      -3.36760636       0.20871693        1        1        0       0.00003189       0.00018710       0.00018929
Si     -11.46395213      -4.53251217      -0.66341068        1        1        1      -0.00005819      -0.00007060       0.00002722
Si     -11.51040352      -6.71629124       0.25331756        1        1        0      -0.00005817      -0.00003393      -0.00010392
Si     -13.44572427      -7.83197031      -0.55404465        1        1        1      -0.00006321      -0.00002499       0.00021976
Si     -13.44854027     -10.05538504       0.25552239        1        1        0      -0.00009109       0.00002743      -0.00032032
Si     -15.31864959     -11.21716599      -0.64218535        1        1        1      -0.00022651       0.00008220       0.00004802
Si      -9.58926062      -1.14837257      -0.56874921        1        1        1       0.00000427       0.00008449      -0.00002382
Si     -13.45041998      -3.37971843      -0.16680974        1        1        0       0.00000044       0.00013380      -0.00010035
Si     -15.44223807      -4.53213289      -0.65094846        1        1        1      -0.00012043      -0.00000713       0.00003265
Si     -15.37381602      -6.72337985       0.25571684        1        1        0       0.00004502      -0.00005409      -0.00000078
Si     -17.31443859      -7.76212542      -0.64321309        1        1        1      -0.00014780      -0.00019032       0.00018379
Si     -17.31455526     -10.06555841      -0.20721565        1        1        0       0.00024503      -0.00021109       0.00009306
Si     -19.31035142     -11.21722581      -0.64242126        1        1        1       0.00019630       0.00008512       0.00008697
Si     -13.45225110      -1.12961890      -0.81065094        1        1        1       0.00004158       0.00008458      -0.00007010
Si      -3.84214069      -4.52242784      -3.17106381        1        1        1      -0.00009805       0.00015782      -0.00003954
Si      -5.79145850      -5.65102367      -3.84029312        1        1        1       0.00003141       0.00020424      -0.00006287
Si      -5.74796048      -7.85171128      -2.96893961        1        1        1      -0.00010704       0.00004566      -0.00014072
Si      -7.68034828      -8.92852756      -3.81894532        1        1        1      -0.00003989       0.00012555      -0.00017013
Si      -7.68387743     -11.18132791      -3.13914159        1        1        1       0.00002187       0.00003923      -0.00050025
Si      -1.94669484      -1.19646533      -3.02854174        1        1        1       0.00007521      -0.00000844      -0.00022789
Si      -3.84234120      -2.29069288      -3.91226778        1        1        1      -0.00002604      -0.00002949       0.00001823
Si      -7.71490683      -4.52608289      -3.05385305        1        1        1      -0.00007245       0.00002553      -0.00018810
Si      -9.61545501      -5.62325408      -3.89888569        1        1        1      -0.00014335       0.00005311      -0.00000991
Si      -9.60967428      -7.81033561      -3.03382210        1        1        1       0.00009235      -0.00002192      -0.00003422
Si     -11.54226092      -8.95320359      -3.77639378        1        1        1      -0.00004725       0.00005404      -0.00006169
Si     -11.56565029     -11.19573720      -3.02143480        1        1        1      -0.00004070      -0.00018573      -0.00011976
Si      -5.77516287      -1.17472265      -3.17159649        1        1        1       0.00009064      -0.00008751      -0.00009164
Si      -7.72739140      -2.29804646      -3.84069638        1        1        1       0.00000373      -0.00007613       0.00001927
Si     -11.50663749      -4.52402041      -3.03477796        1        1        1      -0.00007870       0.00009725       0.00004241
Si     -13.46299452      -5.62513302      -3.77776840        1        1        1      -0.00007063       0.00004088      -0.00019313
Si     -13.45411373      -7.83761081      -2.94098969        1        1        1      -0.00019527       0.00001237       0.00017448
Si     -15.38025306      -8.94994458      -3.75762918        1        1        1       0.00000352       0.00000508      -0.00001234