 vasp.6.3.2 27Jun22 (build May 24 2023 13:00:37) complex                         
 executed on             LinuxGNU date 2025.09.17  13:35:02
 running  128 mpi-ranks, with    1 threads/rank
 distrk:  each k-point on  128 cores,    1 groups
 distr:  one band on NCORE=  32 cores,    4 groups


--------------------------------------------------------------------------------------------------------


 INCAR:
   SYSTEM = Energy-Volume Curve with SCAN
   NCORE = 32
   ISTART = 0
   ISPIN = 1
   ISYM = 1
   PREC = Accurate
   ENCUT = 600
   METAGGA = SCAN
   LASPH = .TRUE.
   LDIAG = .FALSE.
   LMIXTAU = .TRUE.
   EDIFF = 1E-6
   EDIFFG = -0.01
   NSW = 100
   ISIF = 3
   IBRION = 2
   POTIM = 0.5
   ISMEAR = 0
   SIGMA = 0.1
   LORBIT = 0
   ALGO = Normal
   IALGO = 38
   LWAVE = .FALSE.
   LCHARG = .FALSE.

 POTCAR:    PAW_PBE Si_GW 04May2012               
 POTCAR:    PAW_PBE H 15Jun2001                   
 POTCAR:    PAW_PBE Si_GW 04May2012               
   SHA256 =  9ee269d4247e69d62ab9db642b0c3f6e4981ddd1f39659ad08dec53e20e43eb1 Si_GW/POTCAR          
   COPYR  = (c) Copyright 04May2012 Georg Kresse                                                    
   COPYR  = This file is part of the software VASP. Any use, copying, and all other rights are regul
   COPYR  = If you do not have a valid VASP license, you may not use, copy or distribute this file. 
   VRHFIN =Si: s2p2                                                                                 
   LEXCH  = PE                                                                                      
   EATOM  =   103.0669 eV,    7.5752 Ry                                                             
                                                                                                    
   TITEL  = PAW_PBE Si_GW 04May2012                                                                 
   LULTRA =        F    use ultrasoft PP ?                                                          
   IUNSCR =        1    unscreen: 0-lin 1-nonlin 2-no                                               
   RPACOR =    1.500    partial core radius                                                         
   POMASS =   28.085; ZVAL   =    4.000    mass and valenz                                          
   RCORE  =    1.900    outmost cutoff radius                                                       
   RWIGS  =    2.480; RWIGS  =    1.312    wigner-seitz radius (au A)                               
   ENMAX  =  245.345; ENMIN  =  184.009 eV                                                          
   ICORE  =        3    local potential                                                             
   LCOR   =        T    correct aug charges                                                         
   LPAW   =        T    paw PP                                                                      
   EAUG   =  412.952                                                                                
   DEXC   =    0.000                                                                                
   RMAX   =    1.950    core radius for proj-oper                                                   
   RAUG   =    1.300    factor for augmentation sphere                                              
   RDEP   =    1.993    radius for radial grids                                                     
   RDEPT  =    2.000    core radius for aug-charge                                                  
                                                                                                    
   Atomic configuration                                                                             
    7 entries                                                                                       
     n  l   j            E        occ.                                                              
     1  0  0.50     -1785.8828   2.0000                                                             
     2  0  0.50      -139.4969   2.0000                                                             
     2  1  1.50       -95.5546   6.0000                                                             
     3  0  0.50       -10.8127   2.0000                                                             
     3  1  0.50        -4.0811   2.0000                                                             
     3  2  1.50        -4.0817   0.0000                                                             
     4  3  2.50        -4.0817   0.0000                                                             
   Description                                                                                      
     l       E           TYP  RCUT    TYP  RCUT                                                     
     0    -10.8127223     23  1.900                                                                 
     0     95.2407820     23  1.900                                                                 
     1     -4.0811372     23  1.900                                                                 
     1     54.4233040     23  1.900                                                                 
     2     -8.1634956     23  1.900                                                                 
     2     81.6349560     23  1.900                                                                 
     3     27.2116520     23  1.900                                                                 
  local pseudopotential read in
  partial core-charges read in
  partial kinetic energy density read in
  kinetic energy density of atom read in
  atomic valenz-charges read in
  non local Contribution for L=           0  read in
    real space projection operators read in
  non local Contribution for L=           0  read in
    real space projection operators read in
  non local Contribution for L=           1  read in
    real space projection operators read in
  non local Contribution for L=           1  read in
    real space projection operators read in
  non local Contribution for L=           2  read in
    real space projection operators read in
  non local Contribution for L=           2  read in
    real space projection operators read in
    PAW grid and wavefunctions read in

   number of l-projection  operators is LMAX  =           6
   number of lm-projection operators is LMMAX =          18

 POTCAR:    PAW_PBE H 15Jun2001                   
   SHA256 =  030f79b5d3ab3cf0e668861823c8fb652ff669f3e15e46930bd03bfd63a607b6 H/POTCAR              
   COPYR  = (c) Copyright 15Jun2001 Georg Kresse                                                    
   COPYR  = This file is part of the software VASP. Any use, copying, and all other rights are regul
   COPYR  = If you do not have a valid VASP license, you may not use, copy or distribute this file. 
   VRHFIN =H: ultrasoft test                                                                        
   LEXCH  = PE                                                                                      
   EATOM  =    12.4884 eV,    0.9179 Ry                                                             
                                                                                                    
   TITEL  = PAW_PBE H 15Jun2001                                                                     
   LULTRA =        F    use ultrasoft PP ?                                                          
   IUNSCR =        0    unscreen: 0-lin 1-nonlin 2-no                                               
   RPACOR =    0.000    partial core radius                                                         
   POMASS =    1.000; ZVAL   =    1.000    mass and valenz                                          
   RCORE  =    1.100    outmost cutoff radius                                                       
   RWIGS  =    0.700; RWIGS  =    0.370    wigner-seitz radius (au A)                               
   ENMAX  =  250.000; ENMIN  =  200.000 eV                                                          
   RCLOC  =    0.701    cutoff for local pot                                                        
   LCOR   =        T    correct aug charges                                                         
   LPAW   =        T    paw PP                                                                      
   EAUG   =  400.000                                                                                
   RMAX   =    1.123    core radius for proj-oper                                                   
   RAUG   =    1.200    factor for augmentation sphere                                              
   RDEP   =    1.112    radius for radial grids                                                     
   RDEPT  =    0.926    core radius for aug-charge                                                  
                                                                                                    
   Atomic configuration                                                                             
    2 entries                                                                                       
     n  l   j            E        occ.                                                              
     1  0  0.50        -6.4927   1.0000                                                             
     2  1  0.50        -3.4015   0.0000                                                             
   Description                                                                                      
     l       E           TYP  RCUT    TYP  RCUT                                                     
     0     -6.4927494     23  1.100                                                                 
     0      6.8029130     23  1.100                                                                 
     1     -4.0817478     23  1.100                                                                 
  local pseudopotential read in
  atomic valenz-charges read in
  non local Contribution for L=           0  read in
    real space projection operators read in
  non local Contribution for L=           0  read in
    real space projection operators read in
  non local Contribution for L=           1  read in
    real space projection operators read in
    PAW grid and wavefunctions read in

   number of l-projection  operators is LMAX  =           3
   number of lm-projection operators is LMMAX =           5

  PAW_PBE Si_GW 04May2012               :
 energy of atom  1       EATOM= -103.0669
 kinetic energy error for atom=    0.0003 (will be added to EATOM!!)
  PAW_PBE H 15Jun2001                   :
 energy of atom  2       EATOM=  -12.4884
 kinetic energy error for atom=    0.0004 (will be added to EATOM!!)


 POSCAR: Si H
  positions in cartesian coordinates
  No initial velocities read in

 METAGGA = SCAN     LMAXTAU =  6    LMIXTAU =  T

 exchange correlation table for  LEXCH =        8
   RHO(1)=    0.500       N(1)  =     2000
   RHO(2)=  100.500       N(2)  =     4000



--------------------------------------------------------------------------------------------------------


 ion  position               nearest neighbor table
   1  0.500  0.500  0.500-   2 1.48   3 1.48   4 1.48   5 1.48
   2  0.543  0.543  0.543-   1 1.48
   3  0.457  0.457  0.543-   1 1.48
   4  0.457  0.543  0.457-   1 1.48
   5  0.543  0.457  0.457-   1 1.48

  LATTYP: Found a simple cubic cell.
 ALAT       =    20.0000000000
  
  Lattice vectors:
  
 A1 = (  20.0000000000,   0.0000000000,   0.0000000000)
 A2 = (   0.0000000000,  20.0000000000,   0.0000000000)
 A3 = (   0.0000000000,   0.0000000000,  20.0000000000)


Analysis of symmetry for initial positions (statically):
=====================================================================
 Subroutine PRICEL returns:
 Original cell was already a primitive cell.
 

 Routine SETGRP: Setting up the symmetry group for a 
 simple cubic supercell.


 Subroutine GETGRP returns: Found 24 space group operations
 (whereof 24 operations were pure point group operations)
 out of a pool of 48 trial point group operations.


The static configuration has the point symmetry T_d .


Analysis of symmetry for dynamics (positions and initial velocities):
=====================================================================
 Subroutine PRICEL returns:
 Original cell was already a primitive cell.
 

 Routine SETGRP: Setting up the symmetry group for a 
 simple cubic supercell.


 Subroutine GETGRP returns: Found 24 space group operations
 (whereof 24 operations were pure point group operations)
 out of a pool of 48 trial point group operations.


The dynamic configuration has the point symmetry T_d .


 Subroutine INISYM returns: Found 24 space group operations
 (whereof 24 operations are pure point group operations),
 and found     1 'primitive' translations


----------------------------------------------------------------------------------------

                                     Primitive cell                                     

  volume of cell :    8000.0000

  direct lattice vectors                    reciprocal lattice vectors
    20.000000000  0.000000000  0.000000000     0.050000000  0.000000000  0.000000000
     0.000000000 20.000000000  0.000000000     0.000000000  0.050000000  0.000000000
     0.000000000  0.000000000 20.000000000     0.000000000  0.000000000  0.050000000

  length of vectors
    20.000000000 20.000000000 20.000000000     0.050000000  0.050000000  0.050000000

  position of ions in fractional coordinates (direct lattice)
     0.500000000  0.500000000  0.500000000
     0.542806750  0.542806750  0.542806750
     0.457193250  0.457193250  0.542806750
     0.457193250  0.542806750  0.457193250
     0.542806750  0.457193250  0.457193250

  ion indices of the primitive-cell ions
   primitive index   ion index
                 1           1
                 2           2
                 3           3
                 4           4
                 5           5

----------------------------------------------------------------------------------------



 KPOINTS: Regular 2 x 2 x 2 mesh centered at Gamma

Automatic generation of k-mesh.
 Grid dimensions read from file:
 generate k-points for:    4    4    4

 Generating k-lattice:

  Cartesian coordinates                     Fractional coordinates (reciprocal lattice)
     0.012500000  0.000000000  0.000000000     0.250000000  0.000000000  0.000000000
     0.000000000  0.012500000  0.000000000     0.000000000  0.250000000  0.000000000
     0.000000000  0.000000000  0.012500000     0.000000000  0.000000000  0.250000000

  Length of vectors
     0.012500000  0.012500000  0.012500000

  Shift w.r.t. Gamma in fractional coordinates (k-lattice)
     0.000000000  0.000000000  0.000000000

 
 Subroutine IBZKPT returns following result:
 ===========================================
 
 Found     10 irreducible k-points:
 
 Following reciprocal coordinates:
            Coordinates               Weight
  0.000000  0.000000  0.000000      1.000000
  0.250000  0.000000  0.000000      6.000000
  0.500000  0.000000  0.000000      3.000000
  0.250000  0.250000  0.000000     12.000000
  0.500000  0.250000  0.000000     12.000000
  0.500000  0.500000  0.000000      3.000000
  0.250000  0.250000  0.250000      8.000000
  0.500000  0.250000  0.250000     12.000000
  0.500000  0.500000  0.250000      6.000000
  0.500000  0.500000  0.500000      1.000000
 
 Following cartesian coordinates:
            Coordinates               Weight
  0.000000  0.000000  0.000000      1.000000
  0.012500  0.000000  0.000000      6.000000
  0.025000  0.000000  0.000000      3.000000
  0.012500  0.012500  0.000000     12.000000
  0.025000  0.012500  0.000000     12.000000
  0.025000  0.025000  0.000000      3.000000
  0.012500  0.012500  0.012500      8.000000
  0.025000  0.012500  0.012500     12.000000
  0.025000  0.025000  0.012500      6.000000
  0.025000  0.025000  0.025000      1.000000
 


--------------------------------------------------------------------------------------------------------




 Dimension of arrays:
   k-points           NKPTS =     10   k-points in BZ     NKDIM =     10   number of bands    NBANDS=      8
   number of dos      NEDOS =    301   number of ions     NIONS =      5
   non local maximal  LDIM  =      6   non local SUM 2l+1 LMDIM =     18
   total plane-waves  NPLWV = ******
   max r-space proj   IRMAX =      1   max aug-charges    IRDMAX=  25329
   dimension x,y,z NGX =   160 NGY =  160 NGZ =  160
   dimension x,y,z NGXF=   320 NGYF=  320 NGZF=  320
   support grid    NGXF=   320 NGYF=  320 NGZF=  320
   ions per type =               1   4
   NGX,Y,Z   is equivalent  to a cutoff of  13.30, 13.30, 13.30 a.u.
   NGXF,Y,Z  is equivalent  to a cutoff of  26.60, 26.60, 26.60 a.u.

 SYSTEM =  Energy-Volume Curve with SCAN           
 POSCAR =  Si H                                    

 Startparameter for this run:
   NWRITE =      2    write-flag & timer
   PREC   = accura    normal or accurate (medium, high low for compatibility)
   ISTART =      0    job   : 0-new  1-cont  2-samecut
   ICHARG =      2    charge: 1-file 2-atom 10-const
   ISPIN  =      1    spin polarized calculation?
   LNONCOLLINEAR =      F non collinear calculations
   LSORBIT =      F    spin-orbit coupling
   INIWAV =      1    electr: 0-lowe 1-rand  2-diag
   LASPH  =      T    aspherical Exc in radial PAW
 Electronic Relaxation 1
   ENCUT  =  600.0 eV  44.10 Ry    6.64 a.u.  39.94 39.94 39.94*2*pi/ulx,y,z
   ENINI  =  600.0     initial cutoff
   ENAUG  =  413.0 eV  augmentation charge cutoff
   NELM   =     60;   NELMIN=  2; NELMDL= -5     # of ELM steps 
   EDIFF  = 0.1E-05   stopping-criterion for ELM
   LREAL  =      F    real-space projection
   NLSPLINE    = F    spline interpolate recip. space projectors
   LCOMPAT=      F    compatible to vasp.4.4
   GGA_COMPAT  = T    GGA compatible to vasp.4.4-vasp.4.6
   LMAXPAW     = -100 max onsite density
   LMAXMIX     =    2 max onsite mixed and CHGCAR
   VOSKOWN=      0    Vosko Wilk Nusair interpolation
   ROPT   =    0.00000   0.00000
 Ionic relaxation
   EDIFFG = -.1E-01   stopping-criterion for IOM
   NSW    =    100    number of steps for IOM
   NBLOCK =      1;   KBLOCK =    100    inner block; outer block 
   IBRION =      2    ionic relax: 0-MD 1-quasi-New 2-CG
   NFREE  =      1    steps in history (QN), initial steepest desc. (CG)
   ISIF   =      3    stress and relaxation
   IWAVPR =     11    prediction:  0-non 1-charg 2-wave 3-comb
   ISYM   =      1    0-nonsym 1-usesym 2-fastsym
   LCORR  =      T    Harris-Foulkes like correction to forces

   POTIM  = 0.5000    time-step for ionic-motion
   TEIN   =    0.0    initial temperature
   TEBEG  =    0.0;   TEEND  =   0.0 temperature during run
   SMASS  =  -3.00    Nose mass-parameter (am)
   estimated Nose-frequenzy (Omega)   =  0.10E-29 period in steps = 0.13E+47 mass=  -0.914E-26a.u.
   SCALEE = 1.0000    scale energy and forces
   NPACO  =    256;   APACO  = 10.0  distance and # of slots for P.C.
   PSTRESS=    0.0 pullay stress

  Mass of Ions in am
   POMASS =  28.09  1.00
  Ionic Valenz
   ZVAL   =   4.00  1.00
  Atomic Wigner-Seitz radii
   RWIGS  =  -1.00 -1.00
  virtual crystal weights 
   VCA    =   1.00  1.00
   NELECT =       8.0000    total number of electrons
   NUPDOWN=      -1.0000    fix difference up-down

 DOS related values:
   EMIN   =  10.00;   EMAX   =-10.00  energy-range for DOS
   EFERMI =   0.00
   ISMEAR =     0;   SIGMA  =   0.10  broadening in eV -4-tet -1-fermi 0-gaus

 Electronic relaxation 2 (details)
   IALGO  =     38    algorithm
   LDIAG  =      F    sub-space diagonalisation (order eigenvalues)
   LSUBROT=      F    optimize rotation matrix (better conditioning)
   TURBO    =      0    0=normal 1=particle mesh
   IRESTART =      0    0=no restart 2=restart with 2 vectors
   NREBOOT  =      0    no. of reboots
   NMIN     =      0    reboot dimension
   EREF     =   0.00    reference energy to select bands
   IMIX   =      4    mixing-type and parameters
     AMIX     =   0.40;   BMIX     =  1.00
     AMIX_MAG =   1.60;   BMIX_MAG =  1.00
     AMIN     =   0.10
     WC   =   100.;   INIMIX=   1;  MIXPRE=   1;  MAXMIX= -45

 Intra band minimization:
   WEIMIN = 0.0010     energy-eigenvalue tresh-hold
   EBREAK =  0.31E-07  absolut break condition
   DEPER  =   0.30     relativ break condition  

   TIME   =   0.40     timestep for ELM

  volume/ion in A,a.u.               =    1600.00     10797.33
  Fermi-wavevector in a.u.,A,eV,Ry     =   0.163710  0.309367  0.364649  0.026801
  Thomas-Fermi vector in A             =   0.862763

 Write flags
   LWAVE        =      F    write WAVECAR
   LDOWNSAMPLE  =      F    k-point downsampling of WAVECAR
   LCHARG       =      F    write CHGCAR
   LVTOT        =      F    write LOCPOT, total local potential
   LVHAR        =      F    write LOCPOT, Hartree potential only
   LELF         =      F    write electronic localiz. function (ELF)
   LORBIT       =      0    0 simple, 1 ext, 2 COOP (PROOUT), +10 PAW based schemes


 Dipole corrections
   LMONO  =      F    monopole corrections only (constant potential shift)
   LDIPOL =      F    correct potential (dipole corrections)
   IDIPOL =      0    1-x, 2-y, 3-z, 4-all directions 
   EPSILON=  1.0000000 bulk dielectric constant

 Exchange correlation treatment:
   GGA     =    --    GGA type
   LEXCH   =     8    internal setting for exchange type
   LIBXC   =     F    Libxc                    
   VOSKOWN =     0    Vosko Wilk Nusair interpolation
   LHFCALC =     F    Hartree Fock is set to
   LHFONE  =     F    Hartree Fock one center treatment
   AEXX    =    0.0000 exact exchange contribution

 Linear response parameters
   LEPSILON=     F    determine dielectric tensor
   LRPA    =     F    only Hartree local field effects (RPA)
   LNABLA  =     F    use nabla operator in PAW spheres
   LVEL    =     F    velocity operator in full k-point grid
   CSHIFT  =0.1000    complex shift for real part using Kramers Kronig
   OMEGAMAX=  -1.0    maximum frequency
   DEG_THRESHOLD= 0.2000000E-02 threshold for treating states as degnerate
   RTIME   =   -0.100 relaxation time in fs
  (WPLASMAI=    0.000 imaginary part of plasma frequency in eV, 0.658/RTIME)
   DFIELD  = 0.0000000 0.0000000 0.0000000 field for delta impulse in time

  Optional k-point grid parameters
   LKPOINTS_OPT  =     F    use optional k-point grid
   KPOINTS_OPT_MODE=     1    mode for optional k-point grid

 Orbital magnetization related:
   ORBITALMAG=     F  switch on orbital magnetization
   LCHIMAG   =     F  perturbation theory with respect to B field
   DQ        =  0.001000  dq finite difference perturbation B field
   LLRAUG    =     F  two centre corrections for induced B field



--------------------------------------------------------------------------------------------------------


 conjugate gradient relaxation of ions
 charge density and potential will be updated during run
 non-spin polarized calculation
 Variant of blocked Davidson
 perform Loewdin sub-space diagonalisation
    ordering is kept fixed
    before iterative eigenvector-optimisation
 modified Broyden-mixing scheme, WC =      100.0
 initial mixing is a Kerker type mixing with AMIX =  0.4000 and BMIX =      1.0000
 Hartree-type preconditioning will be used
 using additional bands            4
 reciprocal scheme for non local part
 use partial core corrections
 calculate Harris-corrections to forces   (improved forces if not selfconsistent)
 use gradient corrections 
 use of overlap-Matrix (Vanderbilt PP)
 Gauss-broadening in eV      SIGMA  =   0.10


--------------------------------------------------------------------------------------------------------


  energy-cutoff  :      600.00
  volume of cell :     8000.00
      direct lattice vectors                 reciprocal lattice vectors
    20.000000000  0.000000000  0.000000000     0.050000000  0.000000000  0.000000000
     0.000000000 20.000000000  0.000000000     0.000000000  0.050000000  0.000000000
     0.000000000  0.000000000 20.000000000     0.000000000  0.000000000  0.050000000

  length of vectors
    20.000000000 20.000000000 20.000000000     0.050000000  0.050000000  0.050000000



 k-points in units of 2pi/SCALE and weight: Regular 2 x 2 x 2 mesh centered at Gamma
   0.00000000  0.00000000  0.00000000       0.016
   0.01250000  0.00000000  0.00000000       0.094
   0.02500000  0.00000000  0.00000000       0.047
   0.01250000  0.01250000  0.00000000       0.188
   0.02500000  0.01250000  0.00000000       0.188
   0.02500000  0.02500000  0.00000000       0.047
   0.01250000  0.01250000  0.01250000       0.125
   0.02500000  0.01250000  0.01250000       0.188
   0.02500000  0.02500000  0.01250000       0.094
   0.02500000  0.02500000  0.02500000       0.016

 k-points in reciprocal lattice and weights: Regular 2 x 2 x 2 mesh centered at Gamma
   0.00000000  0.00000000  0.00000000       0.016
   0.25000000  0.00000000  0.00000000       0.094
   0.50000000  0.00000000  0.00000000       0.047
   0.25000000  0.25000000  0.00000000       0.188
   0.50000000  0.25000000  0.00000000       0.188
   0.50000000  0.50000000  0.00000000       0.047
   0.25000000  0.25000000  0.25000000       0.125
   0.50000000  0.25000000  0.25000000       0.188
   0.50000000  0.50000000  0.25000000       0.094
   0.50000000  0.50000000  0.50000000       0.016

 position of ions in fractional coordinates (direct lattice) 
   0.50000000  0.50000000  0.50000000
   0.54280675  0.54280675  0.54280675
   0.45719325  0.45719325  0.54280675
   0.45719325  0.54280675  0.45719325
   0.54280675  0.45719325  0.45719325

 position of ions in cartesian coordinates  (Angst):
  10.00000000 10.00000000 10.00000000
  10.85613500 10.85613500 10.85613500
   9.14386500  9.14386500 10.85613500
   9.14386500 10.85613500  9.14386500
  10.85613500  9.14386500  9.14386500



--------------------------------------------------------------------------------------------------------


 k-point   1 :   0.0000 0.0000 0.0000  plane waves:  267179
 k-point   2 :   0.2500 0.0000 0.0000  plane waves:  267112
 k-point   3 :   0.5000 0.0000 0.0000  plane waves:  266904
 k-point   4 :   0.2500 0.2500 0.0000  plane waves:  266962
 k-point   5 :   0.5000 0.2500 0.0000  plane waves:  266880
 k-point   6 :   0.5000 0.5000 0.0000  plane waves:  266880
 k-point   7 :   0.2500 0.2500 0.2500  plane waves:  266917
 k-point   8 :   0.5000 0.2500 0.2500  plane waves:  266994
 k-point   9 :   0.5000 0.5000 0.2500  plane waves:  267192
 k-point  10 :   0.5000 0.5000 0.5000  plane waves:  267280

 maximum and minimum number of plane-waves per node :      8409     8266

 maximum number of plane-waves:    267280
 maximum index in each direction: 
   IXMAX=   39   IYMAX=   39   IZMAX=   39
   IXMIN=  -40   IYMIN=  -40   IZMIN=  -40


 parallel 3D FFT for wavefunctions:
    minimum data exchange during FFTs selected (reduces bandwidth)
 parallel 3D FFT for charge:
    minimum data exchange during FFTs selected (reduces bandwidth)


 total amount of memory used by VASP MPI-rank0   100234. kBytes
=======================================================================

   base      :      30000. kBytes
   nonl-proj :      24686. kBytes
   fftplans  :      13878. kBytes
   grid      :      28980. kBytes
   one-center:         15. kBytes
   wavefun   :       2675. kBytes

     INWAV:  cpu time      0.0000: real time      0.0000
 Broyden mixing: mesh for mixing (old mesh)
   NGX = 79   NGY = 79   NGZ = 79
  (NGX  =320   NGY  =320   NGZ  =320)
  gives a total of 493039 points

 initial charge density was supplied:
 charge density of overlapping atoms calculated
 number of electron       8.0000000 magnetization 
 keeping initial charge density in first step


--------------------------------------------------------------------------------------------------------


 Maximum index for augmentation-charges            0 (set IRDMAX)


--------------------------------------------------------------------------------------------------------


 First call to EWALD:  gamma=   0.089
 Maximum number of real-space cells 3x 3x 3
 Maximum number of reciprocal cells 3x 3x 3

    FEWALD:  cpu time      0.0015: real time      0.0015


--------------------------------------- Iteration      1(   1)  ---------------------------------------


    POTLOK:  cpu time      1.1997: real time      1.2499
    SETDIJ:  cpu time      0.6180: real time      0.6209
    EDDIAG:  cpu time      1.0043: real time      1.0855
     EDDAV:  cpu time      5.6684: real time      6.1260
       DOS:  cpu time      0.0006: real time      0.0006
    --------------------------------------------
      LOOP:  cpu time      8.4910: real time      9.0829

 eigenvalue-minimisations  :   264
 total energy-change (2. order) : 0.1671867E+02  (-0.1027961E+03)
 number of electron       8.0000000 magnetization 
 augmentation part        8.0000000 magnetization 

 Free energy of the ion-electron system (eV)
  ---------------------------------------------------
  alpha Z        PSCENC =         0.02497650
  Ewald energy   TEWEN  =       125.94520208
  -Hartree energ DENC   =      -216.10873731
  -exchange      EXHF   =         0.00000000
  -V(xc)+E(xc)   XCENC  =         4.62362967
  PAW double counting   =        91.34639025      -81.05425688
  entropy T*S    EENTRO =        -0.00841392
  eigenvalues    EBANDS =       -61.06863214
  atomic energy  EATOM  =       153.01851328
  Solvation  Ediel_sol  =         0.00000000
  ---------------------------------------------------
  free energy    TOTEN  =        16.71867152 eV

  energy without entropy =       16.72708544  energy(sigma->0) =       16.72287848


--------------------------------------------------------------------------------------------------------




--------------------------------------- Iteration      1(   2)  ---------------------------------------


    EDDIAG:  cpu time      0.9902: real time      1.0722
     EDDAV:  cpu time      4.6431: real time      5.0142
       DOS:  cpu time      0.0003: real time      0.0003
    --------------------------------------------
      LOOP:  cpu time      5.6336: real time      6.0867

 eigenvalue-minimisations  :   192
 total energy-change (2. order) :-0.3615994E+02  (-0.3061835E+02)
 number of electron       8.0000000 magnetization 
 augmentation part        8.0000000 magnetization 

 Free energy of the ion-electron system (eV)
  ---------------------------------------------------
  alpha Z        PSCENC =         0.02497650
  Ewald energy   TEWEN  =       125.94520208
  -Hartree energ DENC   =      -216.10873731
  -exchange      EXHF   =         0.00000000
  -V(xc)+E(xc)   XCENC  =         4.62362967
  PAW double counting   =        91.34639025      -81.05425688
  entropy T*S    EENTRO =        -0.00000000
  eigenvalues    EBANDS =       -97.23698807
  atomic energy  EATOM  =       153.01851328
  Solvation  Ediel_sol  =         0.00000000
  ---------------------------------------------------
  free energy    TOTEN  =       -19.44127049 eV

  energy without entropy =      -19.44127049  energy(sigma->0) =      -19.44127049


--------------------------------------------------------------------------------------------------------




--------------------------------------- Iteration      1(   3)  ---------------------------------------


    EDDIAG:  cpu time      0.9982: real time      1.0828
     EDDAV:  cpu time      5.5461: real time      5.9976
       DOS:  cpu time      0.0003: real time      0.0003
    --------------------------------------------
      LOOP:  cpu time      6.5446: real time      7.0806

 eigenvalue-minimisations  :   256
 total energy-change (2. order) :-0.6304154E+01  (-0.6304154E+01)
 number of electron       8.0000000 magnetization 
 augmentation part        8.0000000 magnetization 

 Free energy of the ion-electron system (eV)
  ---------------------------------------------------
  alpha Z        PSCENC =         0.02497650
  Ewald energy   TEWEN  =       125.94520208
  -Hartree energ DENC   =      -216.10873731
  -exchange      EXHF   =         0.00000000
  -V(xc)+E(xc)   XCENC  =         4.62362967
  PAW double counting   =        91.34639025      -81.05425688
  entropy T*S    EENTRO =        -0.00000000
  eigenvalues    EBANDS =      -103.54114233
  atomic energy  EATOM  =       153.01851328
  Solvation  Ediel_sol  =         0.00000000
  ---------------------------------------------------
  free energy    TOTEN  =       -25.74542475 eV

  energy without entropy =      -25.74542475  energy(sigma->0) =      -25.74542475


--------------------------------------------------------------------------------------------------------




--------------------------------------- Iteration      1(   4)  ---------------------------------------


    EDDIAG:  cpu time      1.0179: real time      1.1259
     EDDAV:  cpu time      6.1157: real time      6.6064
       DOS:  cpu time      0.0003: real time      0.0003
    --------------------------------------------
      LOOP:  cpu time      7.1339: real time      7.7326

 eigenvalue-minimisations  :   296
 total energy-change (2. order) :-0.2275914E+00  (-0.2275914E+00)
 number of electron       8.0000000 magnetization 
 augmentation part        8.0000000 magnetization 

 Free energy of the ion-electron system (eV)
  ---------------------------------------------------
  alpha Z        PSCENC =         0.02497650
  Ewald energy   TEWEN  =       125.94520208
  -Hartree energ DENC   =      -216.10873731
  -exchange      EXHF   =         0.00000000
  -V(xc)+E(xc)   XCENC  =         4.62362967
  PAW double counting   =        91.34639025      -81.05425688
  entropy T*S    EENTRO =        -0.00000000
  eigenvalues    EBANDS =      -103.76873372
  atomic energy  EATOM  =       153.01851328
  Solvation  Ediel_sol  =         0.00000000
  ---------------------------------------------------
  free energy    TOTEN  =       -25.97301614 eV

  energy without entropy =      -25.97301614  energy(sigma->0) =      -25.97301614


--------------------------------------------------------------------------------------------------------




--------------------------------------- Iteration      1(   5)  ---------------------------------------


    EDDIAG:  cpu time      0.9788: real time      1.0619
     EDDAV:  cpu time      4.8668: real time      5.2620
       DOS:  cpu time      0.0003: real time      0.0002
    CHARGE:  cpu time     20.7189: real time     20.9659
    MIXING:  cpu time      0.0202: real time      0.0206
    --------------------------------------------
      LOOP:  cpu time     26.5850: real time     27.3106

 eigenvalue-minimisations  :   208
 total energy-change (2. order) :-0.6554527E-03  (-0.6554527E-03)
 number of electron       7.9999998 magnetization 
 augmentation part       -0.1477968 magnetization 

 Broyden mixing:
  rms(total) = 0.66374E+00    rms(broyden)= 0.66371E+00
  rms(prec ) = 0.71908E+00
  weight for this iteration     100.00

 Free energy of the ion-electron system (eV)
  ---------------------------------------------------
  alpha Z        PSCENC =         0.02497650
  Ewald energy   TEWEN  =       125.94520208
  -Hartree energ DENC   =      -216.10873731
  -exchange      EXHF   =         0.00000000
  -V(xc)+E(xc)   XCENC  =         4.62362967
  PAW double counting   =        91.34639025      -81.05425688
  entropy T*S    EENTRO =        -0.00000000
  eigenvalues    EBANDS =      -103.76938917
  atomic energy  EATOM  =       153.01851328
  Solvation  Ediel_sol  =         0.00000000
  ---------------------------------------------------
  free energy    TOTEN  =       -25.97367159 eV

  energy without entropy =      -25.97367159  energy(sigma->0) =      -25.97367159


--------------------------------------------------------------------------------------------------------




--------------------------------------- Iteration      1(   6)  ---------------------------------------


    POTLOK:  cpu time      1.3198: real time      1.3797
    SETDIJ:  cpu time      0.6138: real time      0.6171
    EDDIAG:  cpu time      0.9892: real time      1.0728
     EDDAV:  cpu time      5.3012: real time      5.7335
       DOS:  cpu time      0.0004: real time      0.0004
    CHARGE:  cpu time     20.6736: real time     20.9249
    MIXING:  cpu time      0.0170: real time      0.0175
    --------------------------------------------
      LOOP:  cpu time     28.9150: real time     29.7458

 eigenvalue-minimisations  :   240
 total energy-change (2. order) : 0.1787916E+01  (-0.4222026E-01)
 number of electron       7.9999998 magnetization 
 augmentation part       -0.1464855 magnetization 

 Broyden mixing:
  rms(total) = 0.37364E+00    rms(broyden)= 0.37364E+00
  rms(prec ) = 0.40752E+00
  weight for this iteration     100.00

 eigenvalues of (default mixing * dielectric matrix)
  average eigenvalue GAMMA=   2.2584
  2.2584

 Free energy of the ion-electron system (eV)
  ---------------------------------------------------
  alpha Z        PSCENC =         0.02497650
  Ewald energy   TEWEN  =       125.94520208
  -Hartree energ DENC   =      -223.15311576
  -exchange      EXHF   =         0.00000000
  -V(xc)+E(xc)   XCENC  =         5.83854136
  PAW double counting   =       124.74150440     -114.53138538
  entropy T*S    EENTRO =        -0.00000000
  eigenvalues    EBANDS =       -96.06999249
  atomic energy  EATOM  =       153.01851328
  Solvation  Ediel_sol  =         0.00000000
  ---------------------------------------------------
  free energy    TOTEN  =       -24.18575602 eV

  energy without entropy =      -24.18575602  energy(sigma->0) =      -24.18575602


--------------------------------------------------------------------------------------------------------




--------------------------------------- Iteration      1(   7)  ---------------------------------------


    POTLOK:  cpu time      1.3143: real time      1.4122
    SETDIJ:  cpu time      0.6144: real time      0.6183
    EDDIAG:  cpu time      0.9930: real time      1.0772
     EDDAV:  cpu time      6.4503: real time      6.9795
       DOS:  cpu time      0.0004: real time      0.0004
    CHARGE:  cpu time     20.4369: real time     20.6861
    MIXING:  cpu time      0.0195: real time      0.0200
    --------------------------------------------
      LOOP:  cpu time     29.8289: real time     30.7937

 eigenvalue-minimisations  :   320
 total energy-change (2. order) : 0.4116947E+00  (-0.4774786E-01)
 number of electron       7.9999998 magnetization 
 augmentation part       -0.1493792 magnetization 

 Broyden mixing:
  rms(total) = 0.41859E-01    rms(broyden)= 0.41852E-01
  rms(prec ) = 0.54144E-01
  weight for this iteration     100.00

 eigenvalues of (default mixing * dielectric matrix)
  average eigenvalue GAMMA=   2.0754
  1.6672  2.4835

 Free energy of the ion-electron system (eV)
  ---------------------------------------------------
  alpha Z        PSCENC =         0.02497650
  Ewald energy   TEWEN  =       125.94520208
  -Hartree energ DENC   =      -234.53257878
  -exchange      EXHF   =         0.00000000
  -V(xc)+E(xc)   XCENC  =         7.23250517
  PAW double counting   =       181.72080176     -171.63716012
  entropy T*S    EENTRO =        -0.00000000
  eigenvalues    EBANDS =       -85.54632117
  atomic energy  EATOM  =       153.01851328
  Solvation  Ediel_sol  =         0.00000000
  ---------------------------------------------------
  free energy    TOTEN  =       -23.77406129 eV

  energy without entropy =      -23.77406129  energy(sigma->0) =      -23.77406129


--------------------------------------------------------------------------------------------------------




--------------------------------------- Iteration      1(   8)  ---------------------------------------


    POTLOK:  cpu time      1.3358: real time      1.3961
    SETDIJ:  cpu time      0.6156: real time      0.6191
    EDDIAG:  cpu time      0.9884: real time      1.0685
     EDDAV:  cpu time      6.4465: real time      6.9797
       DOS:  cpu time      0.0004: real time      0.0004
    CHARGE:  cpu time     19.7125: real time     19.9591
    MIXING:  cpu time      0.0200: real time      0.0204
    --------------------------------------------
      LOOP:  cpu time     29.1192: real time     30.0433

 eigenvalue-minimisations  :   320
 total energy-change (2. order) :-0.6432833E-03  (-0.3577526E-02)
 number of electron       7.9999998 magnetization 
 augmentation part       -0.1482386 magnetization 

 Broyden mixing:
  rms(total) = 0.23100E-01    rms(broyden)= 0.23099E-01
  rms(prec ) = 0.29735E-01
  weight for this iteration     100.00

 eigenvalues of (default mixing * dielectric matrix)
  average eigenvalue GAMMA=   2.0325
  1.0322  2.5327  2.5327

 Free energy of the ion-electron system (eV)
  ---------------------------------------------------
  alpha Z        PSCENC =         0.02497650
  Ewald energy   TEWEN  =       125.94520208
  -Hartree energ DENC   =      -237.24305661
  -exchange      EXHF   =         0.00000000
  -V(xc)+E(xc)   XCENC  =         7.47664073
  PAW double counting   =       186.04376988     -175.96446361
  entropy T*S    EENTRO =        -0.00000000
  eigenvalues    EBANDS =       -83.07628682
  atomic energy  EATOM  =       153.01851328
  Solvation  Ediel_sol  =         0.00000000
  ---------------------------------------------------
  free energy    TOTEN  =       -23.77470457 eV

  energy without entropy =      -23.77470457  energy(sigma->0) =      -23.77470457


--------------------------------------------------------------------------------------------------------




--------------------------------------- Iteration      1(   9)  ---------------------------------------


    POTLOK:  cpu time      1.3276: real time      1.4196
    SETDIJ:  cpu time      0.6143: real time      0.6175
    EDDIAG:  cpu time      0.9858: real time      1.0701
     EDDAV:  cpu time      6.4665: real time      6.9933
       DOS:  cpu time      0.0006: real time      0.0006
    CHARGE:  cpu time     20.8872: real time     21.1531
    MIXING:  cpu time      0.0182: real time      0.0186
    --------------------------------------------
      LOOP:  cpu time     30.3002: real time     31.2729

 eigenvalue-minimisations  :   320
 total energy-change (2. order) :-0.1245235E-01  (-0.8744446E-03)
 number of electron       7.9999998 magnetization 
 augmentation part       -0.1476036 magnetization 

 Broyden mixing:
  rms(total) = 0.83987E-02    rms(broyden)= 0.83986E-02
  rms(prec ) = 0.14242E-01
  weight for this iteration     100.00

 eigenvalues of (default mixing * dielectric matrix)
  average eigenvalue GAMMA=   2.1991
  1.0169  3.2826  2.3773  2.1195

 Free energy of the ion-electron system (eV)
  ---------------------------------------------------
  alpha Z        PSCENC =         0.02497650
  Ewald energy   TEWEN  =       125.94520208
  -Hartree energ DENC   =      -238.08986128
  -exchange      EXHF   =         0.00000000
  -V(xc)+E(xc)   XCENC  =         7.50855565
  PAW double counting   =       182.51312412     -172.42423368
  entropy T*S    EENTRO =        -0.00000735
  eigenvalues    EBANDS =       -82.28342625
  atomic energy  EATOM  =       153.01851328
  Solvation  Ediel_sol  =         0.00000000
  ---------------------------------------------------
  free energy    TOTEN  =       -23.78715693 eV

  energy without entropy =      -23.78714958  energy(sigma->0) =      -23.78715325


--------------------------------------------------------------------------------------------------------




--------------------------------------- Iteration      1(  10)  ---------------------------------------


    POTLOK:  cpu time      1.3253: real time      1.3843
    SETDIJ:  cpu time      0.6155: real time      0.6191
    EDDIAG:  cpu time      0.9998: real time      1.0865
     EDDAV:  cpu time      4.1855: real time      4.5305
       DOS:  cpu time      0.0004: real time      0.0004
    CHARGE:  cpu time     20.9940: real time     21.2599
    MIXING:  cpu time      0.0179: real time      0.0183
    --------------------------------------------
      LOOP:  cpu time     28.1384: real time     28.8990

 eigenvalue-minimisations  :   160
 total energy-change (2. order) :-0.9598958E-02  (-0.1298460E-02)
 number of electron       7.9999998 magnetization 
 augmentation part       -0.1477848 magnetization 

 Broyden mixing:
  rms(total) = 0.44654E-02    rms(broyden)= 0.44661E-02
  rms(prec ) = 0.74659E-02
  weight for this iteration     100.00

 eigenvalues of (default mixing * dielectric matrix)
  average eigenvalue GAMMA=   2.1460
  3.1735  2.9945  0.9706  2.0995  1.4916

 Free energy of the ion-electron system (eV)
  ---------------------------------------------------
  alpha Z        PSCENC =         0.02497650
  Ewald energy   TEWEN  =       125.94520208
  -Hartree energ DENC   =      -238.98494809
  -exchange      EXHF   =         0.00000000
  -V(xc)+E(xc)   XCENC  =         7.57678074
  PAW double counting   =       181.17468094     -171.08283820
  entropy T*S    EENTRO =        -0.00000000
  eigenvalues    EBANDS =       -81.46912312
  atomic energy  EATOM  =       153.01851328
  Solvation  Ediel_sol  =         0.00000000
  ---------------------------------------------------
  free energy    TOTEN  =       -23.79675588 eV

  energy without entropy =      -23.79675588  energy(sigma->0) =      -23.79675588


--------------------------------------------------------------------------------------------------------




--------------------------------------- Iteration      1(  11)  ---------------------------------------


    POTLOK:  cpu time      1.8643: real time      1.9399
    SETDIJ:  cpu time      0.6150: real time      0.6181
    EDDIAG:  cpu time      0.9968: real time      1.0812
     EDDAV:  cpu time      4.3993: real time      4.7431
       DOS:  cpu time      0.0004: real time      0.0004
    CHARGE:  cpu time     21.0774: real time     21.3351
    MIXING:  cpu time      0.0204: real time      0.0208
    --------------------------------------------
      LOOP:  cpu time     28.9736: real time     29.7386

 eigenvalue-minimisations  :   176
 total energy-change (2. order) :-0.1345339E-02  (-0.3022923E-03)
 number of electron       7.9999998 magnetization 
 augmentation part       -0.1478359 magnetization 

 Broyden mixing:
  rms(total) = 0.21791E-02    rms(broyden)= 0.21911E-02
  rms(prec ) = 0.40367E-02
  weight for this iteration     100.00

 eigenvalues of (default mixing * dielectric matrix)
  average eigenvalue GAMMA=   2.3257
  4.3962  3.2234  2.2049  2.2049  0.9956  0.9289

 Free energy of the ion-electron system (eV)
  ---------------------------------------------------
  alpha Z        PSCENC =         0.02497650
  Ewald energy   TEWEN  =       125.94520208
  -Hartree energ DENC   =      -239.15829183
  -exchange      EXHF   =         0.00000000
  -V(xc)+E(xc)   XCENC  =         7.56887923
  PAW double counting   =       180.72011188     -170.62775368
  entropy T*S    EENTRO =        -0.00000000
  eigenvalues    EBANDS =       -81.28973868
  atomic energy  EATOM  =       153.01851328
  Solvation  Ediel_sol  =         0.00000000
  ---------------------------------------------------
  free energy    TOTEN  =       -23.79810122 eV

  energy without entropy =      -23.79810122  energy(sigma->0) =      -23.79810122


--------------------------------------------------------------------------------------------------------




--------------------------------------- Iteration      1(  12)  ---------------------------------------


    POTLOK:  cpu time      1.3246: real time      1.3880
    SETDIJ:  cpu time      0.6141: real time      0.6170
    EDDIAG:  cpu time      0.9782: real time      1.0590
     EDDAV:  cpu time      5.1267: real time      5.5262
       DOS:  cpu time      0.0003: real time      0.0003
    CHARGE:  cpu time     20.9996: real time     21.2495
    MIXING:  cpu time      0.0191: real time      0.0194
    --------------------------------------------
      LOOP:  cpu time     29.0626: real time     29.8594

 eigenvalue-minimisations  :   224
 total energy-change (2. order) :-0.6577506E-03  (-0.3158125E-03)
 number of electron       7.9999998 magnetization 
 augmentation part       -0.1477592 magnetization 

 Broyden mixing:
  rms(total) = 0.12941E-02    rms(broyden)= 0.13218E-02
  rms(prec ) = 0.21650E-02
  weight for this iteration     100.00

 eigenvalues of (default mixing * dielectric matrix)
  average eigenvalue GAMMA=   2.2263
  5.0605  3.2489  2.3505  2.1208  1.0566  0.9454  0.8016

 Free energy of the ion-electron system (eV)
  ---------------------------------------------------
  alpha Z        PSCENC =         0.02497650
  Ewald energy   TEWEN  =       125.94520208
  -Hartree energ DENC   =      -239.37773374
  -exchange      EXHF   =         0.00000000
  -V(xc)+E(xc)   XCENC  =         7.57268675
  PAW double counting   =       181.07976582     -170.98837978
  entropy T*S    EENTRO =        -0.00000000
  eigenvalues    EBANDS =       -81.07378987
  atomic energy  EATOM  =       153.01851328
  Solvation  Ediel_sol  =         0.00000000
  ---------------------------------------------------
  free energy    TOTEN  =       -23.79875897 eV

  energy without entropy =      -23.79875897  energy(sigma->0) =      -23.79875897


--------------------------------------------------------------------------------------------------------




--------------------------------------- Iteration      1(  13)  ---------------------------------------


    POTLOK:  cpu time      1.3325: real time      1.3960
    SETDIJ:  cpu time      0.6153: real time      0.6183
    EDDIAG:  cpu time      0.9951: real time      1.0765
     EDDAV:  cpu time      4.4164: real time      4.7590
       DOS:  cpu time      0.0003: real time      0.0003
    CHARGE:  cpu time     20.8856: real time     21.1389
    MIXING:  cpu time      0.0240: real time      0.0245
    --------------------------------------------
      LOOP:  cpu time     28.2692: real time     29.0136

 eigenvalue-minimisations  :   176
 total energy-change (2. order) :-0.6457817E-03  (-0.2664822E-03)
 number of electron       7.9999998 magnetization 
 augmentation part       -0.1479370 magnetization 

 Broyden mixing:
  rms(total) = 0.13994E-02    rms(broyden)= 0.19078E-02
  rms(prec ) = 0.16861E-02
  weight for this iteration     100.00
  WARNING: grid for Broyden might be to small

 eigenvalues of (default mixing * dielectric matrix)
  average eigenvalue GAMMA=   2.4676
  5.7912  4.0409  2.8030  2.2195  2.2195  1.0050  0.9702  0.6916

 Free energy of the ion-electron system (eV)
  ---------------------------------------------------
  alpha Z        PSCENC =         0.02497650
  Ewald energy   TEWEN  =       125.94520208
  -Hartree energ DENC   =      -239.42282899
  -exchange      EXHF   =         0.00000000
  -V(xc)+E(xc)   XCENC  =         7.56839057
  PAW double counting   =       180.81732153     -170.72511934
  entropy T*S    EENTRO =        -0.00000000
  eigenvalues    EBANDS =       -81.02586039
  atomic energy  EATOM  =       153.01851328
  Solvation  Ediel_sol  =         0.00000000
  ---------------------------------------------------
  free energy    TOTEN  =       -23.79940475 eV

  energy without entropy =      -23.79940475  energy(sigma->0) =      -23.79940475


--------------------------------------------------------------------------------------------------------




--------------------------------------- Iteration      1(  14)  ---------------------------------------


    POTLOK:  cpu time      1.3497: real time      1.4255
    SETDIJ:  cpu time      0.6182: real time      0.6212
    EDDIAG:  cpu time      0.9981: real time      1.0823
     EDDAV:  cpu time      5.5549: real time      5.9944
       DOS:  cpu time      0.0004: real time      0.0004
    CHARGE:  cpu time     21.1312: real time     21.3755
    MIXING:  cpu time      0.0195: real time      0.0200
    --------------------------------------------
      LOOP:  cpu time     29.6718: real time     30.5194

 eigenvalue-minimisations  :   256
 total energy-change (2. order) :-0.9547566E-04  (-0.9322590E-05)
 number of electron       7.9999998 magnetization 
 augmentation part       -0.1478655 magnetization 

 Broyden mixing:
  rms(total) = 0.35545E-03    rms(broyden)= 0.74496E-03
  rms(prec ) = 0.65529E-03
  weight for this iteration     100.00
  WARNING: grid for Broyden might be to small

 eigenvalues of (default mixing * dielectric matrix)
  average eigenvalue GAMMA=   2.3367
  5.9774  4.1802  2.8739  2.3823  1.9510  0.9743  1.0035  1.0035  0.6846

 Free energy of the ion-electron system (eV)
  ---------------------------------------------------
  alpha Z        PSCENC =         0.02497650
  Ewald energy   TEWEN  =       125.94520208
  -Hartree energ DENC   =      -239.44489111
  -exchange      EXHF   =         0.00000000
  -V(xc)+E(xc)   XCENC  =         7.56628917
  PAW double counting   =       180.92388525     -170.83188210
  entropy T*S    EENTRO =        -0.00000000
  eigenvalues    EBANDS =       -81.00159329
  atomic energy  EATOM  =       153.01851328
  Solvation  Ediel_sol  =         0.00000000
  ---------------------------------------------------
  free energy    TOTEN  =       -23.79950023 eV

  energy without entropy =      -23.79950023  energy(sigma->0) =      -23.79950023


--------------------------------------------------------------------------------------------------------




--------------------------------------- Iteration      1(  15)  ---------------------------------------


    POTLOK:  cpu time      1.3350: real time      1.3928
    SETDIJ:  cpu time      0.6151: real time      0.6181
    EDDIAG:  cpu time      0.9813: real time      1.0654
     EDDAV:  cpu time      4.1706: real time      4.5145
       DOS:  cpu time      0.0004: real time      0.0004
    CHARGE:  cpu time     21.1385: real time     21.3893
    MIXING:  cpu time      0.0211: real time      0.0216
    --------------------------------------------
      LOOP:  cpu time     28.2619: real time     29.0021

 eigenvalue-minimisations  :   160
 total energy-change (2. order) :-0.1204874E-03  (-0.1365733E-04)
 number of electron       7.9999998 magnetization 
 augmentation part       -0.1478265 magnetization 

 Broyden mixing:
  rms(total) = 0.42851E-03    rms(broyden)= 0.24745E-02
  rms(prec ) = 0.51488E-03
  weight for this iteration     100.00
  WARNING: grid for Broyden might be to small

 eigenvalues of (default mixing * dielectric matrix)
  average eigenvalue GAMMA=   2.4610
  6.7954  4.2422  3.2170  2.6497  2.1420  2.1420  1.0141  0.9694  0.7582  0.6797

 Free energy of the ion-electron system (eV)
  ---------------------------------------------------
  alpha Z        PSCENC =         0.02497650
  Ewald energy   TEWEN  =       125.94520208
  -Hartree energ DENC   =      -239.47690821
  -exchange      EXHF   =         0.00000000
  -V(xc)+E(xc)   XCENC  =         7.56574674
  PAW double counting   =       180.96715267     -170.87526708
  entropy T*S    EENTRO =        -0.00000000
  eigenvalues    EBANDS =       -80.96903669
  atomic energy  EATOM  =       153.01851328
  Solvation  Ediel_sol  =         0.00000000
  ---------------------------------------------------
  free energy    TOTEN  =       -23.79962072 eV

  energy without entropy =      -23.79962072  energy(sigma->0) =      -23.79962072


--------------------------------------------------------------------------------------------------------




--------------------------------------- Iteration      1(  16)  ---------------------------------------


    POTLOK:  cpu time      1.3374: real time      1.3965
    SETDIJ:  cpu time      0.6139: real time      0.6170
    EDDIAG:  cpu time      0.9853: real time      1.0700
     EDDAV:  cpu time      5.7260: real time      6.1896
       DOS:  cpu time      0.0004: real time      0.0004
    CHARGE:  cpu time     20.9869: real time     21.2270
    MIXING:  cpu time      0.0219: real time      0.0224
    --------------------------------------------
      LOOP:  cpu time     29.6717: real time     30.5229

 eigenvalue-minimisations  :   272
 total energy-change (2. order) :-0.4719731E-04  (-0.4188314E-05)
 number of electron       7.9999998 magnetization 
 augmentation part       -0.1478523 magnetization 

 Broyden mixing:
  rms(total) = 0.18322E-03    rms(broyden)= 0.27890E-02
  rms(prec ) = 0.24159E-03
  weight for this iteration     100.00
  WARNING: grid for Broyden might be to small

 eigenvalues of (default mixing * dielectric matrix)
  average eigenvalue GAMMA=   2.4838
  7.7326  4.0619  4.0619  2.7495  2.3826  1.8668  0.9727  1.0546  1.0546  0.7087
  0.6755

 Free energy of the ion-electron system (eV)
  ---------------------------------------------------
  alpha Z        PSCENC =         0.02497650
  Ewald energy   TEWEN  =       125.94520208
  -Hartree energ DENC   =      -239.49699845
  -exchange      EXHF   =         0.00000000
  -V(xc)+E(xc)   XCENC  =         7.56791786
  PAW double counting   =       180.95992327     -170.86803545
  entropy T*S    EENTRO =        -0.00000000
  eigenvalues    EBANDS =       -80.95116701
  atomic energy  EATOM  =       153.01851328
  Solvation  Ediel_sol  =         0.00000000
  ---------------------------------------------------
  free energy    TOTEN  =       -23.79966791 eV

  energy without entropy =      -23.79966791  energy(sigma->0) =      -23.79966791


--------------------------------------------------------------------------------------------------------




--------------------------------------- Iteration      1(  17)  ---------------------------------------


    POTLOK:  cpu time      1.3322: real time      1.4508
    SETDIJ:  cpu time      0.6171: real time      0.6203
    EDDIAG:  cpu time      0.9829: real time      1.0663
     EDDAV:  cpu time      4.6488: real time      5.0186
       DOS:  cpu time      0.0007: real time      0.0007
    CHARGE:  cpu time     20.4755: real time     20.7236
    MIXING:  cpu time      0.0239: real time      0.0244
    --------------------------------------------
      LOOP:  cpu time     28.0812: real time     28.9048

 eigenvalue-minimisations  :   192
 total energy-change (2. order) :-0.2654581E+02  (-0.2639552E+02)
 number of electron       7.9999999 magnetization 
 augmentation part       -0.1532512 magnetization 

 Broyden mixing:
  rms(total) = 0.77337E+00    rms(broyden)= 0.26504E+02
  rms(prec ) = 0.10078E+01
  weight for this iteration     100.00
  WARNING: grid for Broyden might be to small

 eigenvalues of (default mixing * dielectric matrix)
  average eigenvalue GAMMA=   2.2768
  7.7326  4.0619  4.0619  2.7495  2.3826  1.8668  0.9727  1.0546  1.0546  0.7087
  0.6755  0.0000

 Free energy of the ion-electron system (eV)
  ---------------------------------------------------
  alpha Z        PSCENC =         0.02497650
  Ewald energy   TEWEN  =       125.94520208
  -Hartree energ DENC   =      -239.49879253
  -exchange      EXHF   =         0.00000000
  -V(xc)+E(xc)   XCENC  =         7.56783550
  PAW double counting   =       180.95615799     -170.86425889
  entropy T*S    EENTRO =        -0.15019220
  eigenvalues    EBANDS =      -107.34492105
  atomic energy  EATOM  =       153.01851328
  Solvation  Ediel_sol  =         0.00000000
  ---------------------------------------------------
  free energy    TOTEN  =       -50.34547933 eV

  energy without entropy =      -50.19528713  energy(sigma->0) =      -50.27038323


--------------------------------------------------------------------------------------------------------




--------------------------------------- Iteration      1(  18)  ---------------------------------------


    POTLOK:  cpu time      1.3512: real time      1.4078
    SETDIJ:  cpu time      0.6144: real time      0.6175
    EDDIAG:  cpu time      0.9907: real time      1.0761
     EDDAV:  cpu time      4.4407: real time      4.7981
       DOS:  cpu time      0.0003: real time      0.0003
    CHARGE:  cpu time     20.6065: real time     20.8640
    MIXING:  cpu time      0.0281: real time      0.0287
    --------------------------------------------
      LOOP:  cpu time     28.0319: real time     28.7926

 eigenvalue-minimisations  :   176
 total energy-change (2. order) : 0.2666897E+02  (-0.2681259E+03)
 number of electron       7.9999998 magnetization 
 augmentation part       -0.1487324 magnetization 

 Broyden mixing:
  rms(total) = 0.68777E-01    rms(broyden)= 0.90748E-02
  rms(prec ) = 0.35480E-02
  weight for this iteration     100.00
  WARNING: grid for Broyden might be to small

 eigenvalues of (default mixing * dielectric matrix)
  average eigenvalue GAMMA=   2.1043
  7.7262  4.1359  3.9864  2.7728  2.3781  1.8667  1.0582  1.0582  0.9733  0.7087
  0.6755  0.0159  0.0002

 Free energy of the ion-electron system (eV)
  ---------------------------------------------------
  alpha Z        PSCENC =         0.02497650
  Ewald energy   TEWEN  =       125.94520208
  -Hartree energ DENC   =      -239.48657008
  -exchange      EXHF   =         0.00000000
  -V(xc)+E(xc)   XCENC  =         7.68909714
  PAW double counting   =       180.87004958     -170.76473371
  entropy T*S    EENTRO =        -0.00000000
  eigenvalues    EBANDS =       -80.97304370
  atomic energy  EATOM  =       153.01851328
  Solvation  Ediel_sol  =         0.00000000
  ---------------------------------------------------
  free energy    TOTEN  =       -23.67650892 eV

  energy without entropy =      -23.67650892  energy(sigma->0) =      -23.67650892


--------------------------------------------------------------------------------------------------------




--------------------------------------- Iteration      1(  19)  ---------------------------------------


    POTLOK:  cpu time      1.3404: real time      1.4025
    SETDIJ:  cpu time      0.6145: real time      0.6177
    EDDIAG:  cpu time      0.9909: real time      1.0773
     EDDAV:  cpu time      5.2516: real time      5.6775
       DOS:  cpu time      0.0004: real time      0.0004
    CHARGE:  cpu time     20.9521: real time     21.2084
    MIXING:  cpu time      0.0239: real time      0.0242
    --------------------------------------------
      LOOP:  cpu time     29.1738: real time     30.0080

 eigenvalue-minimisations  :   232
 total energy-change (2. order) :-0.1001000E+00  (-0.7145391E-02)
 number of electron       7.9999998 magnetization 
 augmentation part       -0.1480334 magnetization 

 Broyden mixing:
  rms(total) = 0.13879E-01    rms(broyden)= 0.42486E-02
  rms(prec ) = 0.21616E-02
  weight for this iteration     100.00
  WARNING: grid for Broyden might be to small

 eigenvalues of (default mixing * dielectric matrix)
  average eigenvalue GAMMA=   1.9904
  7.7484  4.0579  4.0579  2.7708  2.3804  1.8651  1.0565  1.0565  0.9722  0.7096
  0.6755  0.2833  0.0002  0.2307

 Free energy of the ion-electron system (eV)
  ---------------------------------------------------
  alpha Z        PSCENC =         0.02497650
  Ewald energy   TEWEN  =       125.94520208
  -Hartree energ DENC   =      -239.42575714
  -exchange      EXHF   =         0.00000000
  -V(xc)+E(xc)   XCENC  =         7.55335409
  PAW double counting   =       180.94007897     -170.84842059
  entropy T*S    EENTRO =        -0.00000000
  eigenvalues    EBANDS =       -80.98455610
  atomic energy  EATOM  =       153.01851328
  Solvation  Ediel_sol  =         0.00000000
  ---------------------------------------------------
  free energy    TOTEN  =       -23.77660893 eV

  energy without entropy =      -23.77660893  energy(sigma->0) =      -23.77660893


--------------------------------------------------------------------------------------------------------




--------------------------------------- Iteration      1(  20)  ---------------------------------------


    POTLOK:  cpu time      1.3586: real time      1.4576
    SETDIJ:  cpu time      0.6158: real time      0.6189
    EDDIAG:  cpu time      0.9990: real time      1.0839
     EDDAV:  cpu time      5.4286: real time      5.8669
       DOS:  cpu time      0.0005: real time      0.0005
    CHARGE:  cpu time     20.9913: real time     21.2516
    MIXING:  cpu time      0.0273: real time      0.0277
    --------------------------------------------
      LOOP:  cpu time     29.4210: real time     30.3069

 eigenvalue-minimisations  :   248
 total energy-change (2. order) :-0.1920643E-01  (-0.5035211E-03)
 number of electron       7.9999998 magnetization 
 augmentation part       -0.1478410 magnetization 

 Broyden mixing:
  rms(total) = 0.29157E-02    rms(broyden)= 0.55564E-02
  rms(prec ) = 0.10657E-02
  weight for this iteration     100.00
  WARNING: grid for Broyden might be to small

 eigenvalues of (default mixing * dielectric matrix)
  average eigenvalue GAMMA=   2.0433
  7.8632  4.2503  4.2503  2.7497  2.4631  1.6202  1.6202  0.8285  0.8285  1.0238
  0.9375  0.8480  0.7020  0.6640  0.0002

 Free energy of the ion-electron system (eV)
  ---------------------------------------------------
  alpha Z        PSCENC =         0.02497650
  Ewald energy   TEWEN  =       125.94520208
  -Hartree energ DENC   =      -239.48462935
  -exchange      EXHF   =         0.00000000
  -V(xc)+E(xc)   XCENC  =         7.56340161
  PAW double counting   =       181.07217887     -170.98060451
  entropy T*S    EENTRO =        -0.00000000
  eigenvalues    EBANDS =       -80.95485384
  atomic energy  EATOM  =       153.01851328
  Solvation  Ediel_sol  =         0.00000000
  ---------------------------------------------------
  free energy    TOTEN  =       -23.79581536 eV

  energy without entropy =      -23.79581536  energy(sigma->0) =      -23.79581536


--------------------------------------------------------------------------------------------------------




--------------------------------------- Iteration      1(  21)  ---------------------------------------


    POTLOK:  cpu time      1.3361: real time      1.3960
    SETDIJ:  cpu time      0.6148: real time      0.6183
    EDDIAG:  cpu time      0.9839: real time      1.0656
     EDDAV:  cpu time      5.6036: real time      6.0354
       DOS:  cpu time      0.0004: real time      0.0004
    CHARGE:  cpu time     21.1439: real time     21.4086
    MIXING:  cpu time      0.0241: real time      0.0246
    --------------------------------------------
      LOOP:  cpu time     29.7068: real time     30.5489

 eigenvalue-minimisations  :   248
 total energy-change (2. order) :-0.3292972E-02  (-0.4339336E-04)
 number of electron       7.9999998 magnetization 
 augmentation part       -0.1477785 magnetization 

 Broyden mixing:
  rms(total) = 0.11168E-02    rms(broyden)= 0.28051E-02
  rms(prec ) = 0.10777E-02
  weight for this iteration     100.00
  WARNING: grid for Broyden might be to small

 eigenvalues of (default mixing * dielectric matrix)
  average eigenvalue GAMMA=   2.1221
  8.0029  5.0520  3.9035  3.0865  2.7845  2.2428  2.2428  1.0667  1.0667  1.0140
  0.6492  0.6492  0.8235  0.7080  0.6620  0.0002

 Free energy of the ion-electron system (eV)
  ---------------------------------------------------
  alpha Z        PSCENC =         0.02497650
  Ewald energy   TEWEN  =       125.94520208
  -Hartree energ DENC   =      -239.49304422
  -exchange      EXHF   =         0.00000000
  -V(xc)+E(xc)   XCENC  =         7.56517883
  PAW double counting   =       181.04009781     -170.94842171
  entropy T*S    EENTRO =        -0.00000000
  eigenvalues    EBANDS =       -80.95161090
  atomic energy  EATOM  =       153.01851328
  Solvation  Ediel_sol  =         0.00000000
  ---------------------------------------------------
  free energy    TOTEN  =       -23.79910833 eV

  energy without entropy =      -23.79910833  energy(sigma->0) =      -23.79910833


--------------------------------------------------------------------------------------------------------




--------------------------------------- Iteration      1(  22)  ---------------------------------------


    POTLOK:  cpu time      1.3371: real time      1.4258
    SETDIJ:  cpu time      0.6141: real time      0.6179
    EDDIAG:  cpu time      0.9789: real time      1.0525
     EDDAV:  cpu time      5.2225: real time      5.6353
       DOS:  cpu time      0.0003: real time      0.0003
    CHARGE:  cpu time     21.2194: real time     21.4784
    MIXING:  cpu time      0.0260: real time      0.0265
    --------------------------------------------
      LOOP:  cpu time     29.3983: real time     30.2367

 eigenvalue-minimisations  :   232
 total energy-change (2. order) :-0.5198164E-03  (-0.6638700E-05)
 number of electron       7.9999998 magnetization 
 augmentation part       -0.1477855 magnetization 

 Broyden mixing:
  rms(total) = 0.81047E-03    rms(broyden)= 0.28209E-02
  rms(prec ) = 0.88917E-03
  weight for this iteration     100.00
  WARNING: grid for Broyden might be to small

 eigenvalues of (default mixing * dielectric matrix)
  average eigenvalue GAMMA=   2.0882
  8.3187  5.3825  3.6750  3.6750  2.7127  2.2419  2.2419  1.1458  0.7179  0.7179
  0.9846  0.9248  0.7983  0.6775  0.6775  0.6074  0.0002

 Free energy of the ion-electron system (eV)
  ---------------------------------------------------
  alpha Z        PSCENC =         0.02497650
  Ewald energy   TEWEN  =       125.94520208
  -Hartree energ DENC   =      -239.49085206
  -exchange      EXHF   =         0.00000000
  -V(xc)+E(xc)   XCENC  =         7.56533256
  PAW double counting   =       181.00979795     -170.91804561
  entropy T*S    EENTRO =        -0.00000000
  eigenvalues    EBANDS =       -80.95455284
  atomic energy  EATOM  =       153.01851328
  Solvation  Ediel_sol  =         0.00000000
  ---------------------------------------------------
  free energy    TOTEN  =       -23.79962815 eV

  energy without entropy =      -23.79962815  energy(sigma->0) =      -23.79962815


--------------------------------------------------------------------------------------------------------




--------------------------------------- Iteration      1(  23)  ---------------------------------------


    POTLOK:  cpu time      1.3332: real time      1.3938
    SETDIJ:  cpu time      0.6147: real time      0.6177
    EDDIAG:  cpu time      0.9824: real time      1.0578
     EDDAV:  cpu time      5.1048: real time      5.5063
       DOS:  cpu time      0.0003: real time      0.0003
    CHARGE:  cpu time     19.9500: real time     20.1962
    MIXING:  cpu time      0.0262: real time      0.0267
    --------------------------------------------
      LOOP:  cpu time     28.0117: real time     28.7989

 eigenvalue-minimisations  :   224
 total energy-change (2. order) :-0.8155481E-04  (-0.4246856E-05)
 number of electron       7.9999998 magnetization 
 augmentation part       -0.1478056 magnetization 

 Broyden mixing:
  rms(total) = 0.56142E-03    rms(broyden)= 0.20419E-02
  rms(prec ) = 0.61674E-03
  weight for this iteration     100.00
  WARNING: grid for Broyden might be to small

 eigenvalues of (default mixing * dielectric matrix)
  average eigenvalue GAMMA=   2.0424
  8.3623  5.4171  3.5198  3.5198  2.6610  2.3140  2.0027  1.2592  1.2592  1.1184
  0.9957  0.9504  0.6457  0.6457  0.7451  0.6905  0.6561  0.0002

 Free energy of the ion-electron system (eV)
  ---------------------------------------------------
  alpha Z        PSCENC =         0.02497650
  Ewald energy   TEWEN  =       125.94520208
  -Hartree energ DENC   =      -239.48829892
  -exchange      EXHF   =         0.00000000
  -V(xc)+E(xc)   XCENC  =         7.56563344
  PAW double counting   =       180.99037127     -170.89855859
  entropy T*S    EENTRO =        -0.00000000
  eigenvalues    EBANDS =       -80.95754875
  atomic energy  EATOM  =       153.01851328
  Solvation  Ediel_sol  =         0.00000000
  ---------------------------------------------------
  free energy    TOTEN  =       -23.79970970 eV

  energy without entropy =      -23.79970970  energy(sigma->0) =      -23.79970970


--------------------------------------------------------------------------------------------------------




--------------------------------------- Iteration      1(  24)  ---------------------------------------


    POTLOK:  cpu time      1.3327: real time      1.3991
    SETDIJ:  cpu time      0.6125: real time      0.6155
    EDDIAG:  cpu time      0.9773: real time      1.0556
     EDDAV:  cpu time      4.7451: real time      5.1002
       DOS:  cpu time      0.0003: real time      0.0003
    CHARGE:  cpu time     21.1763: real time     21.4352
    MIXING:  cpu time      0.0273: real time      0.0278
    --------------------------------------------
      LOOP:  cpu time     28.8715: real time     29.6336

 eigenvalue-minimisations  :   200
 total energy-change (2. order) :-0.1104669E-03  (-0.1004636E-04)
 number of electron       7.9999998 magnetization 
 augmentation part       -0.1478295 magnetization 

 Broyden mixing:
  rms(total) = 0.25531E-03    rms(broyden)= 0.23516E-02
  rms(prec ) = 0.27871E-03
  weight for this iteration     100.00
  WARNING: grid for Broyden might be to small

 eigenvalues of (default mixing * dielectric matrix)
  average eigenvalue GAMMA=   2.0969
  8.5697  5.9985  3.7138  3.7138  2.5921  2.5117  1.8209  1.8209  1.6272  1.2319
  1.0324  0.9750  0.6617  0.6617  0.8627  0.7236  0.6746  0.6496  0.0002

 Free energy of the ion-electron system (eV)
  ---------------------------------------------------
  alpha Z        PSCENC =         0.02497650
  Ewald energy   TEWEN  =       125.94520208
  -Hartree energ DENC   =      -239.48755940
  -exchange      EXHF   =         0.00000000
  -V(xc)+E(xc)   XCENC  =         7.56638002
  PAW double counting   =       180.96211162     -170.87021564
  entropy T*S    EENTRO =        -0.00000000
  eigenvalues    EBANDS =       -80.95922863
  atomic energy  EATOM  =       153.01851328
  Solvation  Ediel_sol  =         0.00000000
  ---------------------------------------------------
  free energy    TOTEN  =       -23.79982017 eV

  energy without entropy =      -23.79982017  energy(sigma->0) =      -23.79982017


--------------------------------------------------------------------------------------------------------




--------------------------------------- Iteration      1(  25)  ---------------------------------------


    POTLOK:  cpu time      1.4023: real time      1.4910
    SETDIJ:  cpu time      0.6167: real time      0.6201
    EDDIAG:  cpu time      0.9984: real time      1.0810
     EDDAV:  cpu time      5.8836: real time      6.3390
       DOS:  cpu time      0.0003: real time      0.0003
    CHARGE:  cpu time     21.3048: real time     21.5609
    MIXING:  cpu time      0.0300: real time      0.0306
    --------------------------------------------
      LOOP:  cpu time     30.2361: real time     31.1231

 eigenvalue-minimisations  :   280
 total energy-change (2. order) : 0.2943026E-05  (-0.1172160E-05)
 number of electron       7.9999998 magnetization 
 augmentation part       -0.1478369 magnetization 

 Broyden mixing:
  rms(total) = 0.18925E-03    rms(broyden)= 0.20650E-02
  rms(prec ) = 0.20821E-03
  weight for this iteration     100.00
  WARNING: grid for Broyden might be to small

 eigenvalues of (default mixing * dielectric matrix)
  average eigenvalue GAMMA=   2.1211
  8.7574  6.1608  3.8751  3.8751  2.6808  2.4936  2.1133  2.1133  1.8314  1.3572
  1.0834  0.9994  0.9386  0.6782  0.6782  0.7701  0.7016  0.6717  0.6429  0.0002

 Free energy of the ion-electron system (eV)
  ---------------------------------------------------
  alpha Z        PSCENC =         0.02497650
  Ewald energy   TEWEN  =       125.94520208
  -Hartree energ DENC   =      -239.48805171
  -exchange      EXHF   =         0.00000000
  -V(xc)+E(xc)   XCENC  =         7.56644069
  PAW double counting   =       180.95574537     -170.86383369
  entropy T*S    EENTRO =        -0.00000000
  eigenvalues    EBANDS =       -80.95880974
  atomic energy  EATOM  =       153.01851328
  Solvation  Ediel_sol  =         0.00000000
  ---------------------------------------------------
  free energy    TOTEN  =       -23.79981723 eV

  energy without entropy =      -23.79981723  energy(sigma->0) =      -23.79981723


--------------------------------------------------------------------------------------------------------




--------------------------------------- Iteration      1(  26)  ---------------------------------------


    POTLOK:  cpu time      1.3568: real time      1.4175
    SETDIJ:  cpu time      0.6142: real time      0.6175
    EDDIAG:  cpu time      0.9854: real time      1.0718
     EDDAV:  cpu time      4.6468: real time      5.0060
       DOS:  cpu time      0.0004: real time      0.0004
    CHARGE:  cpu time     21.1771: real time     21.4226
    MIXING:  cpu time      0.0292: real time      0.0297
    --------------------------------------------
      LOOP:  cpu time     28.8099: real time     29.5655

 eigenvalue-minimisations  :   192
 total energy-change (2. order) :-0.1430883E-04  (-0.2219415E-05)
 number of electron       7.9999998 magnetization 
 augmentation part       -0.1478374 magnetization 

 Broyden mixing:
  rms(total) = 0.10886E-03    rms(broyden)= 0.19513E-02
  rms(prec ) = 0.12351E-03
  weight for this iteration     100.00
  WARNING: grid for Broyden might be to small

 eigenvalues of (default mixing * dielectric matrix)
  average eigenvalue GAMMA=   2.1522
  9.0219  6.1674  4.4544  2.5914  2.5914  3.3059  2.9158  2.4258  2.2032  1.2757
  1.2757  0.6728  0.6728  1.0019  0.9367  0.9367  0.0002  0.7393  0.7036  0.6644
  0.6385

 Free energy of the ion-electron system (eV)
  ---------------------------------------------------
  alpha Z        PSCENC =         0.02497650
  Ewald energy   TEWEN  =       125.94520208
  -Hartree energ DENC   =      -239.49050382
  -exchange      EXHF   =         0.00000000
  -V(xc)+E(xc)   XCENC  =         7.56691507
  PAW double counting   =       180.95437826     -170.86246653
  entropy T*S    EENTRO =        -0.00000000
  eigenvalues    EBANDS =       -80.95684636
  atomic energy  EATOM  =       153.01851328
  Solvation  Ediel_sol  =         0.00000000
  ---------------------------------------------------
  free energy    TOTEN  =       -23.79983153 eV

  energy without entropy =      -23.79983153  energy(sigma->0) =      -23.79983153


--------------------------------------------------------------------------------------------------------




--------------------------------------- Iteration      1(  27)  ---------------------------------------


    POTLOK:  cpu time      1.3435: real time      1.4638
    SETDIJ:  cpu time      0.6148: real time      0.6179
    EDDIAG:  cpu time      0.9980: real time      1.0829
     EDDAV:  cpu time      4.4161: real time      4.7709
       DOS:  cpu time      0.0004: real time      0.0004
    CHARGE:  cpu time     21.2029: real time     21.4625
    MIXING:  cpu time      0.0290: real time      0.0296
    --------------------------------------------
      LOOP:  cpu time     28.6048: real time     29.4281

 eigenvalue-minimisations  :   176
 total energy-change (2. order) :-0.3688885E-05  (-0.1182798E-05)
 number of electron       7.9999998 magnetization 
 augmentation part       -0.1478426 magnetization 

 Broyden mixing:
  rms(total) = 0.59159E-04    rms(broyden)= 0.19437E-02
  rms(prec ) = 0.74751E-04
  weight for this iteration     100.00
  WARNING: grid for Broyden might be to small

 eigenvalues of (default mixing * dielectric matrix)
  average eigenvalue GAMMA=   2.1302
  9.0849  6.5151  4.1942  3.5520  2.4726  2.4726  2.7073  2.5293  2.3735  1.3499
  1.3499  1.2973  1.0401  0.9919  0.6746  0.6746  0.0002  0.8458  0.7468  0.6903
  0.6657  0.6361

 Free energy of the ion-electron system (eV)
[...]

 Broyden mixing:
  rms(total) = 0.12743E-04    rms(broyden)= 0.17748E-03
  rms(prec ) = 0.20495E-04
  weight for this iteration     100.00
  WARNING: grid for Broyden might be to small

 eigenvalues of (default mixing * dielectric matrix)
  average eigenvalue GAMMA=   1.6690
  2.7021  2.0245  2.0245  0.9660  0.6282

 Free energy of the ion-electron system (eV)
  ---------------------------------------------------
  alpha Z        PSCENC =         0.02506077
  Ewald energy   TEWEN  =       126.42025659
  -Hartree energ DENC   =      -239.91638114
  -exchange      EXHF   =         0.00000000
  -V(xc)+E(xc)   XCENC  =         7.59999944
  PAW double counting   =       182.42959284     -172.34071058
  entropy T*S    EENTRO =        -0.00000000
  eigenvalues    EBANDS =       -81.03683644
  atomic energy  EATOM  =       153.01851328
  Solvation  Ediel_sol  =         0.00000000
  ---------------------------------------------------
  free energy    TOTEN  =       -23.80050525 eV

  energy without entropy =      -23.80050525  energy(sigma->0) =      -23.80050525


--------------------------------------------------------------------------------------------------------




--------------------------------------- Iteration      3(   7)  ---------------------------------------


    POTLOK:  cpu time      1.3399: real time      1.4028
    SETDIJ:  cpu time      0.6182: real time      0.6214
    EDDIAG:  cpu time      1.0020: real time      1.0844
     EDDAV:  cpu time      4.2080: real time      4.5328
       DOS:  cpu time      0.0004: real time      0.0004
    CHARGE:  cpu time     20.9907: real time     21.2280
    MIXING:  cpu time      0.0197: real time      0.0202
    --------------------------------------------
      LOOP:  cpu time     28.1789: real time     28.8900

 eigenvalue-minimisations  :   160
 total energy-change (2. order) :-0.2801312E-05  (-0.5585153E-06)
 number of electron       7.9999998 magnetization 
 augmentation part       -0.1480006 magnetization 

 Broyden mixing:
  rms(total) = 0.12083E-04    rms(broyden)= 0.47185E-03
  rms(prec ) = 0.16216E-04
  weight for this iteration     100.00
  WARNING: grid for Broyden might be to small

 eigenvalues of (default mixing * dielectric matrix)
  average eigenvalue GAMMA=   1.7880
  2.9491  2.9491  2.4505  0.9853  0.7659  0.6281

 Free energy of the ion-electron system (eV)
  ---------------------------------------------------
  alpha Z        PSCENC =         0.02506077
  Ewald energy   TEWEN  =       126.42025659
  -Hartree energ DENC   =      -239.91760852
  -exchange      EXHF   =         0.00000000
  -V(xc)+E(xc)   XCENC  =         7.60005351
  PAW double counting   =       182.43258353     -172.34370819
  entropy T*S    EENTRO =        -0.00000000
  eigenvalues    EBANDS =       -81.03565902
  atomic energy  EATOM  =       153.01851328
  Solvation  Ediel_sol  =         0.00000000
  ---------------------------------------------------
  free energy    TOTEN  =       -23.80050805 eV

  energy without entropy =      -23.80050805  energy(sigma->0) =      -23.80050805


--------------------------------------------------------------------------------------------------------




--------------------------------------- Iteration      3(   8)  ---------------------------------------


    POTLOK:  cpu time      1.3356: real time      1.4118
    SETDIJ:  cpu time      0.6178: real time      0.6211
    EDDIAG:  cpu time      0.9961: real time      1.0802
     EDDAV:  cpu time      4.5627: real time      4.9179
       DOS:  cpu time      0.0004: real time      0.0004
    CHARGE:  cpu time     21.8535: real time     22.0953
    MIXING:  cpu time      0.0205: real time      0.0210
    --------------------------------------------
      LOOP:  cpu time     29.3867: real time     30.1476

 eigenvalue-minimisations  :   184
 total energy-change (2. order) :-0.1318495E-05  (-0.1327118E-06)
 number of electron       7.9999998 magnetization 
 augmentation part       -0.1480009 magnetization 

 Broyden mixing:
  rms(total) = 0.63939E-05    rms(broyden)= 0.15735E-04
  rms(prec ) = 0.87384E-05
  weight for this iteration     100.00
  WARNING: grid for Broyden might be to small

 eigenvalues of (default mixing * dielectric matrix)
  average eigenvalue GAMMA=   1.7174
  3.9814  2.7304  1.5225  1.5225  0.9627  0.6741  0.6281

 Free energy of the ion-electron system (eV)
  ---------------------------------------------------
  alpha Z        PSCENC =         0.02506077
  Ewald energy   TEWEN  =       126.42025659
  -Hartree energ DENC   =      -239.91813269
  -exchange      EXHF   =         0.00000000
  -V(xc)+E(xc)   XCENC  =         7.60009598
  PAW double counting   =       182.43396277     -172.34508919
  entropy T*S    EENTRO =        -0.00000000
  eigenvalues    EBANDS =       -81.03517687
  atomic energy  EATOM  =       153.01851328
  Solvation  Ediel_sol  =         0.00000000
  ---------------------------------------------------
  free energy    TOTEN  =       -23.80050937 eV

  energy without entropy =      -23.80050937  energy(sigma->0) =      -23.80050937


--------------------------------------------------------------------------------------------------------




--------------------------------------- Iteration      3(   9)  ---------------------------------------


    POTLOK:  cpu time      1.3307: real time      1.3932
    SETDIJ:  cpu time      0.6179: real time      0.6211
    EDDIAG:  cpu time      0.9946: real time      1.0773
     EDDAV:  cpu time      4.8666: real time      5.2554
       DOS:  cpu time      0.0002: real time      0.0002
    --------------------------------------------
      LOOP:  cpu time      7.8099: real time      8.3472

 eigenvalue-minimisations  :   208
 total energy-change (2. order) :-0.4813841E-06  (-0.4091615E-07)
 number of electron       7.9999998 magnetization 
 augmentation part       -0.1480009 magnetization 

 Free energy of the ion-electron system (eV)
  ---------------------------------------------------
  alpha Z        PSCENC =         0.02506077
  Ewald energy   TEWEN  =       126.42025659
  -Hartree energ DENC   =      -239.91809303
  -exchange      EXHF   =         0.00000000
  -V(xc)+E(xc)   XCENC  =         7.60010449
  PAW double counting   =       182.43256988     -172.34369308
  entropy T*S    EENTRO =        -0.00000000
  eigenvalues    EBANDS =       -81.03522875
  atomic energy  EATOM  =       153.01851328
  Solvation  Ediel_sol  =         0.00000000
  ---------------------------------------------------
  free energy    TOTEN  =       -23.80050985 eV

  energy without entropy =      -23.80050985  energy(sigma->0) =      -23.80050985


--------------------------------------------------------------------------------------------------------




 average (electrostatic) potential at core
  the test charge radii are     1.1243  0.5201
  (the norm of the test charge is              1.0000)
       1 -79.1442       2 -42.8330       3 -42.8330       4 -42.8330       5 -42.8330



 E-fermi :  -8.3706     XC(G=0):  -0.0577     alpha+bet : -0.0430

 Fermi energy:        -8.3705585603

 k-point     1 :       0.0000    0.0000    0.0000
  band No.  band energies     occupation 
      1     -13.9850      2.00000
      2      -8.8451      2.00000
      3      -8.8441      2.00000
      4      -8.8433      2.00000
      5       0.0120      0.00000
      6       0.3304      0.00000
      7       0.3794      0.00000
      8       0.3795      0.00000

 k-point     2 :       0.2500    0.0000    0.0000
  band No.  band energies     occupation 
      1     -13.9850      2.00000
      2      -8.8451      2.00000
      3      -8.8441      2.00000
      4      -8.8433      2.00000
      5       0.0351      0.00000
      6       0.2211      0.00000
      7       0.3733      0.00000
      8       0.3934      0.00000

 k-point     3 :       0.5000    0.0000    0.0000
  band No.  band energies     occupation 
      1     -13.9850      2.00000
      2      -8.8451      2.00000
      3      -8.8441      2.00000
      4      -8.8433      2.00000
      5       0.0920      0.00000
      6       0.1199      0.00000
      7       0.4121      0.00000
      8       0.4124      0.00000

 k-point     4 :       0.2500    0.2500    0.0000
  band No.  band energies     occupation 
      1     -13.9850      2.00000
      2      -8.8451      2.00000
      3      -8.8441      2.00000
      4      -8.8433      2.00000
      5       0.0580      0.00000
      6       0.2322      0.00000
      7       0.2571      0.00000
      8       0.3921      0.00000

 k-point     5 :       0.5000    0.2500    0.0000
  band No.  band energies     occupation 
      1     -13.9850      2.00000
      2      -8.8451      2.00000
      3      -8.8441      2.00000
      4      -8.8433      2.00000
      5       0.1141      0.00000
      6       0.1430      0.00000
      7       0.2999      0.00000
      8       0.3233      0.00000

 k-point     6 :       0.5000    0.5000    0.0000
  band No.  band energies     occupation 
      1     -13.9850      2.00000
      2      -8.8451      2.00000
      3      -8.8441      2.00000
      4      -8.8433      2.00000
      5       0.1615      0.00000
      6       0.2113      0.00000
      7       0.2113      0.00000
      8       0.2126      0.00000

 k-point     7 :       0.2500    0.2500    0.2500
  band No.  band energies     occupation 
      1     -13.9850      2.00000
      2      -8.8451      2.00000
      3      -8.8441      2.00000
      4      -8.8433      2.00000
      5       0.0807      0.00000
      6       0.2445      0.00000
      7       0.2788      0.00000
      8       0.2788      0.00000

 k-point     8 :       0.5000    0.2500    0.2500
  band No.  band energies     occupation 
      1     -13.9850      2.00000
      2      -8.8451      2.00000
      3      -8.8441      2.00000
      4      -8.8433      2.00000
      5       0.1357      0.00000
      6       0.1661      0.00000
      7       0.3047      0.00000
      8       0.3288      0.00000

 k-point     9 :       0.5000    0.5000    0.2500
  band No.  band energies     occupation 
      1     -13.9850      2.00000
      2      -8.8451      2.00000
      3      -8.8441      2.00000
      4      -8.8433      2.00000
      5       0.1816      0.00000
      6       0.2334      0.00000
      7       0.2334      0.00000
      8       0.2358      0.00000

 k-point    10 :       0.5000    0.5000    0.5000
  band No.  band energies     occupation 
      1     -13.9850      2.00000
      2      -8.8451      2.00000
      3      -8.8441      2.00000
      4      -8.8433      2.00000
      5       0.2181      0.00000
      6       0.2867      0.00000
      7       0.2868      0.00000
      8       0.2868      0.00000


--------------------------------------------------------------------------------------------------------


 soft charge-density along one line, spin component           1
         0         1         2         3         4         5         6         7         8         9
 total charge-density along one line

 pseudopotential strength for first ion, spin component:           1
 17.997 -18.550  -0.000  -0.000  -0.000   0.000   0.000   0.000
-18.550  50.253   0.000   0.000  -0.000  -0.000  -0.000   0.006
 -0.000   0.000   3.995   0.001   0.000 -11.779  -0.000  -0.000
 -0.000   0.000   0.001   3.993   0.000  -0.000 -11.778  -0.000
 -0.000  -0.000   0.000   0.000   3.994  -0.000  -0.000 -11.779
  0.000  -0.000 -11.779  -0.000  -0.000  37.843  -0.011   0.000
  0.000  -0.000  -0.000 -11.778  -0.000  -0.011  37.858   0.000
  0.000   0.006  -0.000  -0.000 -11.779   0.000   0.000  37.848
  0.000   0.000  -0.001   0.014  -0.000   0.004  -0.030   0.000
  0.003  -0.001  -0.000  -0.000   0.014   0.000   0.000  -0.030
 -0.001   0.002   0.000  -0.000   0.002  -0.000   0.000  -0.004
  0.000   0.000   0.014   0.002   0.000  -0.030  -0.001  -0.000
 -0.001  -0.000  -0.000   0.000   0.000  -0.000  -0.000   0.001
 -0.000   0.000  -0.000  -0.026   0.000   0.010   0.010  -0.000
  0.001  -0.006   0.000   0.000  -0.026  -0.000  -0.000   0.010
 -0.000   0.009  -0.000   0.000   0.001   0.000  -0.000  -0.009
 -0.000   0.000  -0.026   0.002  -0.000   0.010  -0.003   0.000
 -0.000   0.001  -0.000  -0.000   0.000   0.000   0.000   0.002
 total augmentation occupancy for first ion, spin component:           1
  1.482   0.032  -0.000   0.000  -0.000  -0.000   0.000   0.000   0.000  -0.000  -0.000   0.000   0.000  -0.000  -0.000   0.000
  0.032   0.001   0.000   0.000   0.000  -0.000   0.000  -0.000   0.000  -0.000  -0.000   0.000  -0.000   0.000   0.000   0.000
 -0.000   0.000   1.348   0.000   0.000   0.043   0.000   0.000   0.000   0.000  -0.000   0.275   0.000   0.000  -0.000  -0.000
  0.000   0.000   0.000   1.348   0.000   0.000   0.043  -0.000   0.275   0.000   0.000  -0.000   0.000   0.002   0.000  -0.000
 -0.000   0.000   0.000   0.000   1.348  -0.000   0.000   0.043  -0.000   0.275   0.000   0.000   0.000   0.000   0.002  -0.000
 -0.000   0.000   0.043   0.000  -0.000   0.001  -0.000   0.000   0.000  -0.000  -0.000   0.009   0.000  -0.000   0.000   0.000
  0.000   0.000   0.000   0.043   0.000  -0.000   0.001   0.000   0.009   0.000   0.000  -0.000  -0.000   0.000  -0.000   0.000
  0.000  -0.000   0.000  -0.000   0.043   0.000   0.000   0.001   0.000   0.009   0.000   0.000   0.000   0.000   0.000  -0.000
  0.000   0.000   0.000   0.275  -0.000   0.000   0.009   0.000   0.056  -0.000   0.000   0.000   0.000   0.000   0.000   0.000
 -0.000  -0.000   0.000   0.000   0.275  -0.000   0.000   0.009   0.000   0.056   0.000   0.000  -0.000   0.000   0.000   0.000
 -0.000  -0.000  -0.000   0.000   0.000  -0.000   0.000  -0.000   0.000   0.000   0.000  -0.000   0.000   0.000  -0.000   0.000
  0.000   0.000   0.275  -0.000   0.000   0.009  -0.000   0.000   0.000   0.000  -0.000   0.056   0.000  -0.000  -0.000   0.000
  0.000   0.000   0.000   0.000   0.000   0.000  -0.000   0.000   0.000  -0.000   0.000   0.000   0.000   0.000   0.000  -0.000
 -0.000   0.000   0.000   0.002   0.000  -0.000   0.000   0.000   0.000   0.000   0.000  -0.000   0.000   0.000  -0.000   0.000
 -0.000   0.000  -0.000   0.000   0.002   0.000  -0.000   0.000   0.000   0.000  -0.000  -0.000   0.000  -0.000   0.000  -0.000
  0.000   0.000  -0.000  -0.000  -0.000   0.000   0.000  -0.000   0.000   0.000   0.000   0.000  -0.000   0.000  -0.000   0.000
  0.000  -0.000   0.002  -0.000  -0.000   0.000   0.000   0.000   0.000  -0.000   0.000   0.000  -0.000  -0.000   0.000   0.000
  0.000   0.000   0.000   0.000  -0.000   0.000   0.000   0.000   0.000  -0.000  -0.000   0.000   0.000   0.000  -0.000   0.000


------------------------ aborting loop because EDIFF is reached ----------------------------------------


    CHARGE:  cpu time     10.3836: real time     10.4889
    FORLOC:  cpu time      0.0912: real time      0.0920
    FORNL :  cpu time      0.0599: real time      0.0603
    STRESS:  cpu time     15.9780: real time     16.6913
    FORCOR:  cpu time      1.2250: real time      1.2691
    FORHAR:  cpu time      0.0937: real time      0.1027
    MIXING:  cpu time      0.0178: real time      0.0192
    OFIELD:  cpu time      0.0001: real time      0.0001

  FORCE on cell =-STRESS in cart. coord.  units (eV):
  Direction    XX          YY          ZZ          XY          YZ          ZX
  --------------------------------------------------------------------------------------
  Alpha Z     0.02506     0.02506     0.02506
  Ewald      42.14008    42.14008    42.14008    -0.00000     0.00000     0.00000
  Hartree    79.97296    79.97296    79.97296     0.00000    -0.00000    -0.00000
  E(xc)     -24.47783   -24.47789   -24.47776    -0.00000    -0.00000    -0.00000
  Local    -183.11474  -183.11474  -183.11474    -0.00000     0.00000    -0.00000
  n-local    24.21245    24.20971    24.21607    -0.00001    -0.00123    -0.00000
  augment    -4.54643    -4.54643    -4.54643     0.00000    -0.00000     0.00000
  Kinetic    65.77714    65.77537    65.77984    -0.00000    -0.00152    -0.00000
  Fock        0.00000     0.00000     0.00000     0.00000     0.00000     0.00000
  -------------------------------------------------------------------------------------
  Total      -0.01070    -0.01070    -0.01070     0.00000    -0.00000    -0.00000
  in kB      -0.00215    -0.00215    -0.00215     0.00000    -0.00000    -0.00000
  external pressure =       -0.00 kB  Pullay stress =        0.00 kB


 VOLUME and BASIS-vectors are now :
 -----------------------------------------------------------------------------
  energy-cutoff  :      600.00
  volume of cell :     7973.10
      direct lattice vectors                 reciprocal lattice vectors
    19.977558712  0.000000000 -0.000000000     0.050056166  0.000000000  0.000000000
    -0.000000000 19.977558712 -0.000000000    -0.000000000  0.050056166 -0.000000000
    -0.000000000  0.000000000 19.977558712     0.000000000  0.000000000  0.050056166

  length of vectors
    19.977558712 19.977558712 19.977558712     0.050056166  0.050056166  0.050056166


 FORCES acting on ions
    electron-ion (+dipol)            ewald-force                    non-local-force                 convergence-correction
 -----------------------------------------------------------------------------------------------
   -.125E-10 0.302E-09 -.189E-09   0.711E-14 0.355E-14 -.178E-14   0.243E-18 -.236E-18 0.200E-19   -.145E-14 -.142E-13 -.324E-13
   -.168E+02 -.168E+02 -.168E+02   0.187E+02 0.187E+02 0.187E+02   -.188E+01 -.188E+01 -.188E+01   0.251E-04 0.251E-04 0.251E-04
   0.168E+02 0.168E+02 -.168E+02   -.187E+02 -.187E+02 0.187E+02   0.188E+01 0.188E+01 -.188E+01   -.251E-04 -.251E-04 0.251E-04
   0.168E+02 -.168E+02 0.168E+02   -.187E+02 0.187E+02 -.187E+02   0.188E+01 -.188E+01 0.188E+01   -.251E-04 0.251E-04 -.251E-04
   -.168E+02 0.168E+02 0.168E+02   0.187E+02 -.187E+02 -.187E+02   -.188E+01 0.188E+01 0.188E+01   0.251E-04 -.251E-04 -.251E-04
 -----------------------------------------------------------------------------------------------
   0.213E-10 0.308E-09 -.139E-09   0.000E+00 0.000E+00 0.355E-14   -.888E-15 0.222E-15 -.222E-15   -.327E-14 -.273E-13 -.630E-13


 POSITION                                       TOTAL-FORCE (eV/Angst)
 -----------------------------------------------------------------------------------
      9.98878      9.98878      9.98878        -0.000000      0.000000      0.000000
     10.84246     10.84246     10.84246         0.001437      0.001437      0.001437
      9.13510      9.13510     10.84246        -0.001437     -0.001437      0.001437
      9.13510     10.84246      9.13510        -0.001437      0.001437     -0.001437
     10.84246      9.13510      9.13510         0.001437     -0.001437     -0.001437
 -----------------------------------------------------------------------------------
    total drift:                                0.000000      0.000000     -0.000000


--------------------------------------------------------------------------------------------------------



  FREE ENERGIE OF THE ION-ELECTRON SYSTEM (eV)
  ---------------------------------------------------
  free  energy   TOTEN  =       -23.80050985 eV

  energy  without entropy=      -23.80050985  energy(sigma->0) =      -23.80050985

 d Force = 0.8351143E-04[ 0.108E-04, 0.156E-03]  d Energy = 0.1201499E-03-0.366E-04
 d Force = 0.1405477E+00[ 0.140E+00, 0.141E+00]  d Ewald  = 0.2000980E+00-0.596E-01


--------------------------------------------------------------------------------------------------------


    POTLOK:  cpu time      1.9410: real time      2.0056


--------------------------------------------------------------------------------------------------------




--------------------------------------------------------------------------------------------------------


  
 reached required accuracy - stopping structural energy minimisation
     LOOP+:  cpu time    267.5078: real time    275.1586
