5
Lattice="20.0 0.0 0.0 0.0 20.0 0.0 0.0 0.0 20.0" Properties=species:S:1:pos:R:3:forces:R:3:energies:R:1 energy=-19.805841353063734 free_energy=-19.805841353063734 stress="-1.640568786515931e-08 2.4727862973911415e-18 1.9366515888152617e-18 2.4727862973911415e-18 -1.6405687865087462e-08 2.0098443190319747e-18 1.9366515888152617e-18 2.0098443190319747e-18 -1.640568786640339e-08" pbc="T T T"
Si      10.00000000      10.00000000      10.00000000       0.00000000       0.00000000       0.00000000      -4.39430101
H       10.85487866      10.85487866      10.85487866       0.00003838       0.00003838       0.00003838      -3.85288509
H        9.14512134       9.14512134      10.85487866      -0.00003838      -0.00003838       0.00003838      -3.85288509
H        9.14512134      10.85487866       9.14512134      -0.00003838       0.00003838      -0.00003838      -3.85288509
H       10.85487866       9.14512134       9.14512134       0.00003838      -0.00003838      -0.00003838      -3.85288509
