5
Lattice="20.0 0.0 0.0 0.0 20.0 0.0 0.0 0.0 20.0" Properties=species:S:1:pos:R:3:forces:R:3 energy=-161.424772188557 free_energy=-161.424772188557 pbc="T T T"
Si      10.00000000      10.00000000      10.00000000      -0.00000000       0.00000000      -0.00000000
H       10.82702035      10.82702035      10.82702035      -0.00000015      -0.00000015      -0.00000015
H        9.17297965       9.17297965      10.82702035       0.00000015       0.00000015      -0.00000015
H        9.17297965      10.82702035       9.17297965       0.00000015      -0.00000015       0.00000015
H       10.82702035       9.17297965       9.17297965      -0.00000015       0.00000015       0.00000015
