/u/vld/spet5633/Silicon/a-Si_potential/DFT_1200eV/Testing/Paper/surfaces/amorphous/anneals/7/cleaved_surface.data (written by ASE) 

2491 	 atoms 
2  atom types
0.0      42.803955704057834  xlo xhi
0.0      42.803955704057834  ylo yhi
0.0      41.387148849408618  zlo zhi


Atoms 

     1   2      3.5020614341704679      1.7972972543246544      13.628023908590931
     2   2      1.6081760366848779      2.9416281308169228      12.928643223739721
     3   2     0.45304959801887562       1.140398434950481      11.891160538692953
     4   2      2.3402993039513746      3.6448524540476837      10.863278828326266
     5   1      6.1148112415081526     0.72888826246290317      12.847116341280735
     6   1      6.6893798584301054      2.9030814193826435      12.277009123324529
     7   2      5.8999997469722603      4.1956694333882574      12.167564508292751
     8   2      4.4748749110034005      4.2800682116902182      10.325681509246094
     9   2       4.815431022044117     0.68734925091704002      12.105141247044999
    10   2      4.8397044620628575      3.5535176376061397      14.129419743201373
    11   1       11.60259931106393     0.16063650866877743      10.397451777316565
    12   2      9.1192119866380104      1.6858631099786363      11.608805931063127
    13   2      12.326069986166173     0.77079098125256273      13.474201227557026
    14   2      12.441205129635376      3.1447421929935166      10.694947778921291
    15   2      11.372889190198515      1.2280677645280751      11.408308682755548
    16   2      9.2711334053463847      2.9575379642136252      13.540957653119266
    17   1       13.42979054390068      4.3242958166947298      13.635098394171878
    18   2      14.611793823197415      1.2271690834026872      13.405256106813825
    19   2      15.665174022286241      1.1346353720439739      10.079808119113199
    20   2      15.692887846860589       3.199869713501942      12.828752098896333
    21   1      18.856404005147215      3.7400750451738665        13.7281928165932
    22   2      18.733696950697379       1.141995502533496       12.57412703072095
    23   2      20.390485522922532      2.7716361837223809      12.845495088205247
    24   2      17.165153012519262      2.2803626769021834      11.340279200267339
    25   2      4.6882977661385352    0.065997016296226646      30.634295413561247
    26   1     0.99331018571913099      6.5477357357617993      10.625842340692657
    27   1      2.7336353920210668      8.5710475595204034      12.629012002174965
    28   2      3.7443980432769743       7.522554907534408       12.87686983452396
    29   1      3.3596663913468205      6.3671767384784239      12.012266846207975
    30   1      0.8589082004985239      8.4568660687661179      12.350199369305823
    31   1      3.4616222715381766      8.4533922313875465      10.616916867249367
    32   2     0.75377117074888422      5.1509914162975887      10.154056135689329
    33   2      7.8160963394043828         4.8567556665842       10.79394915696874
    34   2      5.9932974706361453       8.172960261295021       12.44854046518477
    35   2       6.737439124446345      6.0782340566130344      13.245459610218667
    36   1       12.69090978043381     0.19192533533401576      26.807953421136588
    37   1      11.368817844117801      8.3689703393213613      12.287559166214489
    38   2      9.7711686509847482      8.1160263304241003      12.247076068536515
    39   2      9.7556718897240042      5.8858426562540815      11.638832305532386
    40   2      12.763963150820759      8.3164421570185834       13.12588729477611
    41   2      8.8660469157799842      5.2102998780672261      13.686850914536446
    42   2      14.090180101177227      6.7373568677122888      12.078225173295923
    43   2      15.305321901807607      6.5191312094587452      14.047950249857008
    44   2      15.202245359416844      8.3629033133364743      10.763919994518803
    45   2      14.075907931650907      4.4320215408670185      11.743389055371731
    46   2      17.064802778375174      7.8270517753655948      13.283522713545606
    47   2       18.66074561617463      6.4162511254247603      12.424449928742867
    48   2      19.800184155442441      4.6759722566358999      11.437130670009072
    49   2      20.601885970453374      8.4510334660494753      11.092542586103558
    50   2      20.564039281276798      7.5158102212584934      13.254690394168017
    51   2      20.813317759524924      6.2659023862943162      10.074651506985839
    52   1      1.5683662928498356       11.42018099932025      10.814319179965329
    53   1      3.5600866987481217       10.12670481908194      11.460381539080316
    54   1      1.8414339187140765      10.598322106063696      13.167009528387494
    55   2      0.1087462868155018      11.298864201498622      11.104233519334015
    56   2      6.4659119016656001      11.423380148360753      11.001755549181979
    57   2      6.7659210274962991      9.2062935348045354      10.462951001584971
    58   2      7.3445587218578314      12.859611557885279      12.514110172438208
    59   2      4.3379212817886739      11.339936320603945      11.783816559297174
    60   2      4.4183447647272889       12.07631741915154      13.963552363120808
    61   2      9.0539654326958683      9.2180359741990259      10.381222671674193
    62   2      11.469493784428224      12.068252799384702      11.946868678251636
    63   2      13.171325669164023      10.469528718661493       12.11532358010836
    64   2      14.385457189274566      12.320403746547496      11.178209268674138
    65   2       15.90359500722994       9.724844201793271      12.553260920952143
    66   2      17.434073814797884      11.250459470580443      11.810327128271348
    67   2      20.816574770060662      11.311598264625555      13.679654193868489
    68   2      19.336581181050139      10.046659740393535      12.514567495593761
    69   2      3.3267782550747649      13.123426972780289      10.798712430424869
    70   2      2.3943736479877131       16.34412606641855      12.470318392096541
    71   2       1.706723812882678      14.237862132009434      11.992488513569395
    72   2     0.96854914818424809       13.38567943176659      13.976641781787759
    73   2      1.0918123637872477      17.105182868160746      14.212940905067189
    74   2      4.2896598644182662      15.116176833519772      10.171478766661657
    75   1      7.0764515757160451      16.631592427775946      12.537274595365233
    76   2      4.7162938087630764      16.109194499380454      12.417371621763955
    77   2      5.5453385477774644      14.101781659751547      13.404563335894109
    78   2       8.103041220569553      15.884879540354559       13.31585774896427
    79   2      10.122476416725863      13.049746649158198        13.4759631322737
    80   1      10.368214258592934      15.192771627612988      11.490205447856674
    81   2      9.0548304667553126      14.423013653011871      11.831234810724858
    82   1      11.725388693884009      16.519127338739825      12.636589620172341
    83   2      11.678453011680933         16.750282049713      14.105839452304325
    84   2       12.33721680131481      15.433450275887717      10.316657662755819
    85   2      12.947925725673766      13.952251295850832      12.052575175207343
    86   1      15.630233614198353      14.987342499942555      11.579379218622581
    87   2      14.729137597949222      15.292943770786051      12.757579375573304
    88   2       16.64071880762344      15.001830285740152      14.192189137968462
    89   1      20.422948573736846      15.528716204024331       12.08252957041929
    90   2       17.76087004053802      13.338086939159535      12.867380342554105
    91   2      17.911515593258272      16.900577066394082       13.45255983296706
    92   2      18.010332824219944      14.330989066054771      10.674598880924778
    93   1       19.27589089691029      17.008049246951028      14.010338862380422
    94   2      18.227771484390818      16.592007898985013      11.177859866257444
    95   2         2.7267342348454      20.290710829628676      12.652416048348449
    96   2       3.570880954236836      18.952941209767936      10.903490259319444
    97   2      1.7820758571792317      17.545579898330651      10.628234323568053
    98   2      6.5485178733323774      21.126921751453239      12.672738471911019
    99   2      5.6356468328003384      17.685010261361953      10.976151683139456
   100   2      7.1915940676586159       19.39521890125005      11.297590339038141
   101   2      12.774872418212139      17.743595698945896      10.780997847426923
   102   1      9.1456692874817858      20.480340663325705      13.297638329838026
   103   1       10.58725996953399      19.345728902790025      10.110896953012368
   104   2      9.1545945956932648      19.198014891753669      12.521984615111265
   105   2      11.216826664897081      19.322660765127726      11.523604625811871
   106   2      11.901783290850672      19.764399951362698      13.861469412040478
   107   2      9.4726025410909784      17.550701364202595      14.093228482854762
   108   1      14.759965636711268      20.381402267563615      12.464045060130818
   109   2      16.240706351612239      17.737963272488141      10.891222756154342
   110   2      14.461295184384216      17.525924137221359      12.335965921735482
   111   2      17.041963148959272      19.869547758558898      10.893160020565142
   112   1      18.270834020138821       19.86340137556412      11.732347714124698
   113   1      17.256009647316038      18.187888985113901      13.801194411360546
   114   1      19.889501803557483      19.014745189537063      11.056490794648246
   115   1      20.777310771803016      17.799544062052206      12.495305015963348
   116   2      19.192058529841969      21.219726137996872      14.090880001528003
   117   2      19.765591543181248      17.944517597635603      10.022639764359305
   118   1     0.57719253446093854      1.3379883610521111      15.035329467303884
   119   2      2.3245094337834153     0.58279888364568189      17.008754284265404
   120   2      2.9632844832276275      2.8929628110348879      16.888139192027374
   121   2      0.2186128530924677     0.16826535884550567      18.208025326417768
   122   2      1.4863574935892152      3.9055407646518541      18.320971658268491
   123   2      5.1316885297120631      2.2459058936321319       17.26129719268053
   124   2      6.2872237789762551      3.6332813435724445      15.883001983201513
   125   2      8.0736631252295812      2.3165973889136473      15.360059506475782
   126   2      5.9163187473220002     0.20583044359153685      16.639343226193034
   127   2      9.6212667265040928     0.47193558136413455       17.95466647681819
   128   1      9.0290820589497631      3.0985251859114826      16.567335239468015
   129   1      12.240848728820795     0.97113303419642205      17.635331011568972
   130   2      10.438410241443362      2.3688570981731414      16.872610364585469
   131   2       11.23351220605894       2.478720263881486      14.672289648163268
   132   2       12.68824300539112      4.2246861071587452      14.939008255624589
   133   2      16.815457284130495     0.94501971428514231      15.989911353909445
   134   2      14.016501151432021      3.5837767139498271      16.704215020016189
   135   2      14.608417870041372     0.41930909589878929      15.561618923739573
   136   2      16.257574631767483      3.1964566487701673      16.377952950268096
   137   2      13.615574528770093       1.457233472303781      17.350182355877056
   138   1      19.288187791059865      1.0334406224878689      17.766268594647634
   139   1      18.782297288239977      4.1512345789359619      15.748931166060981
   140   2      20.323177453545362    0.090284990200149517      15.565467241417524
   141   2      19.620564618284934      3.5103072154460389      16.968614536675084
   142   2      17.588874038879162      3.9453098519672212      18.069036131915084
   143   2      20.727153734770646      2.3459350425716989      15.192351653636859
   144   1      3.4796154989890411      6.1663922653188772      17.771698679665839
   145   2      2.1064734805803593      7.6043992065039498      16.614610265023742
   146   2     0.89741622393807263      4.6892745959513862      14.473866723254964
   147   2     0.81610064863494947      5.5990711830613176      16.885773885563626
   148   2      3.1058680999265227      4.5707098669754762      15.197040459951609
   149   2      3.6719498692708452       6.804717741409541       15.09225887530917
   150   1     0.71422224550869351      7.8257218052711499      14.823104519710794
   151   2      6.4822630763287954      5.5999500734787429      17.075892284612273
   152   2      5.9665171447893268      6.9555896727629207      15.311384666231845
   153   2      9.4783166966317509      6.4359900671315344       15.55820327882979
   154   1      10.961799615964905      7.1710822975847854      18.239245673479534
   155   2      12.255592681696912      6.7705895571009229      17.619481997918143
   156   2      9.2075369129369573      8.5070655240221758      14.490326242387127
   157   2      11.736950154242969      6.2203171350887976      15.480037398892502
   158   1      12.186256945907596      7.4041676933153502       14.46912392095102
   159   2      8.5711523568967412      6.2364793184299057      17.777347672785805
   160   2      16.450757401181338      4.5599536087298151      14.525595452294027
   161   1       15.66406494621269      5.6849440183024536      17.095890205684299
   162   1      14.547400438344681      7.3301109396298019      18.377162253707539
   163   2      16.514484459257808      6.9002070094674952      16.936292162912274
   164   2      15.007523440223206      8.1316883382422365      15.631731152180242
   165   2      13.815088454888006      8.4972636731186029      17.624944222886072
   166   2      13.217766997776213      4.8604333865683884      18.409196012547895
   167   2       21.28310352250837      5.5253253538643987       14.36315942684524
   168   2      18.758531212271997      5.1638051327175107      14.454931265021694
   169   1      17.639196626561901      5.4623115090390044      17.955663208050439
   170   2      18.699145949822547      6.8146744619596396      16.267588247874919
   171   2      20.308283424127534      5.6589043926324152       17.57015391095063
   172   2      0.2880097057130464      9.7347937377530016      17.840863081121441
   173   1      4.2442898416946724      9.4133993423408242      15.445427136515516
   174   2      3.3437827199479613      10.834901882732629      18.069330592081975
   175   2     0.22131885536948451      11.028883335667942      15.846792214189124
   176   2      2.8727500751261479      9.8382075141807181      15.951303129354706
   177   2      2.1629685420076226      11.423527731494156      14.377179394158764
   178   2      5.5134020898767577      11.568523527907836      17.420731891474386
   179   2      6.8678635127071939      8.9414213405356353      14.511787978280552
   180   2      7.6620686796622435      12.323879250689892      14.717593474229329
   181   2      5.9473973594059313      10.909638779576271      15.268895201016168
   182   1      5.2748102025425787      9.1049221642691016      18.208509297798877
   183   1      8.7684220451476467      9.7788700833354039      17.430922197392142
   184   2      12.039598296893674      9.9861676711920389      17.411230036352897
   185   2      10.965871485208355      9.8793568916981691       15.33795094122123
   186   2      12.799018589550233      12.183390679412183       17.34943639568268
   187   2      9.7539342503188315      11.814216493777664      15.462123899633546
   188   1      15.403045391718841      12.835549946222462      14.710230679490348
   189   2       15.67393739691661      9.7863839058738797      18.375581004810996
   190   2      15.201055023351746      10.268774771606168      14.796378441325224
   191   2      12.941772668138439      10.917661489453295      14.450766636002513
   192   2      16.303301046281252      11.210678720949149       16.68883557214977
   193   2      18.910138828946149      8.6960138884560418      14.395831582480962
   194   2      19.115588041651357      9.1625391741770716      16.643993046772223
   195   2       19.28904246169936      12.790644441021847      14.518631121584106
   196   1      18.371332355357836      12.809765462469342      17.633676907551028
   197   2      18.621208768341653      11.631025289652259      16.483376422664456
   198   2      20.939657143330553      11.441760696574457      17.315572333813112
   199   2      21.394443924646204      8.6287217020659668      16.752213837630897
   200   1      2.9794637229569401       14.61757127728939      14.563346616897711
   201   2      3.7083499459709022       15.41707506465729      15.592827165369842
   202   2      1.9561814773237247      16.005987795486377      16.960407638227121
   203   2      2.4427823068037391      12.944666564128926      17.520673523946499
   204   2     0.32013069144417344      15.128947407046946      15.399042217071285
   205   2     0.23824932958704328      13.169488969537509      16.822054006778917
   206   2      4.8737781306355084      17.087536748177772      14.540716365469745
   207   2      7.2202622449485894      14.690950731080164      15.146747216548526
   208   2      4.6068161986574712      13.690091581005586      16.863056456392009
   209   2      6.6689448766849964      16.825846311351214      15.999462627781615
   210   2      9.3259345821542521      12.915418788209182      17.449607280715806
   211   2      9.9381006888511667      16.471949293848407      17.925828352841155
   212   2      11.053794760243926      14.664405166995339      14.842584333168951
   213   2      9.2838103178905929      14.929544093054984      16.348256039488579
   214   1      12.840539324092862      15.278655837595396      17.080194856358201
   215   2      11.966923060642014       15.31074640840812      18.292348797839509
   216   2      12.723308750066577       13.13779048208861      15.213827451912209
   217   2       14.86924607577552      14.046096788342613       15.45587565886132
   218   2      15.014579267450499      12.988445405479805      17.556926194871274
   219   2      16.101663119417452      16.422001254148537      18.010610052349779
   220   2      21.297474676848946       13.70862603210856        17.3138323724122
   221   2      17.922604410708875      15.429726204898373      16.211575159174913
   222   2      20.092572541223866      14.674307076571909      15.596086427812974
   223   2      18.269862088176552      14.425252969185637      18.301670850409611
   224   1      1.8361121966135863      18.168046670412426      14.938668361067382
   225   2       2.956075142895763        20.5550026014329      14.939879390885148
   226   2      1.6934181771827312      20.034561522333298      16.725424196198087
   227   2      1.5111109799497036      18.077138335322914      17.848957011977561
   228   1      2.1388558026469227      20.992698660105027      17.787072673427922
   229   2       4.706248114997436      19.196572692461103       15.40507136579463
   230   2      5.1823512628209345      18.014436988741199      17.377160093462216
   231   2      8.2009412902870622      18.649612147835683      15.761723023861078
   232   2      6.6623613671156638      20.322483114107101      14.880758408926329
   233   2      6.5476520268174161      19.518363345255487      18.519822884358252
   234   1      19.873646343804197      20.309433691915157      31.011926089719594
   235   2      8.6368244161292402      18.476088147912641      18.164403883937265
   236   2      11.498950556720434      18.069540109341283      17.161184968105729
   237   2      10.488842219851318      19.504578028761415      15.701199346133201
   238   1      12.771192000157491      17.554907067234677      16.561177431186803
   239   2      13.971196700076538      20.140683957806786      17.611391895175011
   240   1      15.033988813122756        20.8019837292969      14.763218935536781
   241   2      13.560395355145397      18.202714288262548      14.341328445322929
   242   2      15.002588553550433      19.551134801352717      15.578849280056689
   243   1      21.181185808334561      17.649180715508272      15.348687740067147
   244   1      18.246049331365999      20.062259080450598      15.045987916892059
   245   1      19.788905289591703      18.086526713442808      15.913204310895178
   246   2      17.228460766620472      19.338954643237521      16.138805636513144
   247   2      18.583622764923248      17.574502377140728      16.639786973693951
   248   2      17.170063819740729      20.399750447057166      18.197189096968685
   249   1      19.863214861108524      19.327654839430579      18.089759663154027
   250   1      3.0715058388866012      1.9942666890981358      19.164177983598876
   251   2      2.9815278490490469      1.2549696748277859      20.452333454659865
   252   2       1.004677978070289      3.2279627369445816      22.226454016931878
   253   1      6.8679765491982394      3.8118529273005408      18.797937567485775
   254   2      7.5339360524255081      1.8733309373862006       20.83670021093943
   255   2      4.4428243084945729      1.6773972021192414      22.202751895723505
   256   2      5.9469380471941866      2.7482235598362905      19.344419607113736
   257   2       8.005686433269096      4.2040559504467954      21.200096436900058
   258   2      11.958081788353288      2.1985379665625935      20.519758780236504
   259   2      9.7449059167479533      1.2281163406760309       20.14848225100792
   260   2      11.351139503691059      3.5558805205794077      18.685355300812162
   261   1      8.7820228171603443      3.4747532968285149      18.672810576025782
   262   2       11.50919026091362       3.275950501255708      22.676490161667715
   263   1      14.713745795025741      2.6668050618149755      22.088666704303105
   264   2      16.701177789530629      3.9960700889000194      20.213296235586888
   265   2      15.310620090230968      0.8825739509657885       18.79028123597768
   266   2      16.833223870854596     0.37655708406271465      21.754470395437668
   267   2      17.108168584164687      1.7769371608090134      19.931419964207766
   268   1      13.454602119874458       2.679216538399789      20.403880823248535
   269   1       14.57669044334564     0.18920969243778013      19.898613520417108
   270   2      20.497700607510222    0.032181038694919437      20.148554884438273
   271   2      20.723267893595803      0.1577030721764929      22.421734146272275
   272   2      21.195858967123137      3.1253409187916974      19.467855584434631
   273   2      19.321384632055153      1.7583405909101801      19.086861200898511
   274   1      3.7124371791344819      6.8433495538491957      21.045887774434796
   275   2      2.1859381802566493      4.2922932275034675      20.512989323705586
   276   2      1.2269937468265215      8.1739879039374053      20.623775346958109
   277   2       2.353920441799529      6.3757817458445372      21.453103366845468
   278   2       4.498682837240966      4.3808609176024165      20.137535329819052
   279   2      6.0253844306934985      7.2397513248175809      22.554313988262095
   280   2      5.9199953835577253      5.0600380485761702      21.829036271885723
   281   2      4.7545250493001854      6.0253939970909469      18.543078186552265
   282   2      8.0859372398256557      7.7697606403404986      21.619574949994487
   283   2      5.4612755836982734       8.096178852656255      19.298439987457886
   284   2      7.8009062785022403      7.8655586161467266      19.290825801090534
   285   2      9.4370537613514198      4.7344067461786574      19.360192723209799
   286   2      9.7482217453386077      6.4889869977969514      22.674383256701248
   287   2      11.441523091466552      8.4254439721515073      21.128774867095387
   288   2      11.064020709279314      6.1453341871785376      20.791814981860234
   289   2       12.82589454042937       5.110233082311054      21.930213062441844
   290   2      14.500466732535816      4.8284078266679549      20.320708018382767
   291   2      15.301853774408507       6.949160943891683       20.68356946853989
   292   2      16.691653893218987      7.8200012656562929      19.022368571590917
   293   2      16.375880595812752      6.7976024315836563      22.751002329269848
   294   1      19.896343705364615      7.8057088004153199      19.238107653747534
   295   2      20.703338015891561      5.3722792377520303      19.795287223489858
   296   1      20.834383068501694       6.593645397812522      20.767196955468307
   297   2      18.663276356614485      4.9130315533015745       21.08367127039218
   298   2      18.553347780262243      7.0343362458633054       21.95717117623812
   299   2      20.723475280461543      7.6181818753225263      22.573090502936783
   300   2      18.694901031050893      8.2358643882837264      19.995836994121639
   301   2      2.2654394906862003      8.7703352296373733      18.609769071421155
   302   2    0.072547908667421279      11.304659313019123      19.539013926740459
   303   2       2.102349482357142      11.640868623591876      20.674286862059208
   304   2       1.027082583162138      12.833263286026158      22.404183282449324
   305   2       2.500491860753487      9.6745185248282901      21.831526819069065
   306   1      5.3147309090043224      11.703990702489694      20.622517673633588
   307   2      4.6950926148942171      8.8521998743808634       21.40549916988175
   308   2      5.8420458252638259      10.843850419910392      21.725230315834523
   309   2      7.4976131883037311      12.030732141033075      18.579669856810597
   310   2      8.0392133302334017      10.134143504154643      21.357376295794673
   311   2      8.6348622090982428      10.022199997443721      18.965114330197473
   312   2      11.776139141770205       11.87180707138031      20.528685680444084
   313   2      10.907287475184837      9.9804464572925404      19.484022081815311
   314   2      11.344615973705421      11.831215225660724      22.801169608746715
   315   1      13.353856466711585       8.676747013530715      19.438370668724879
   316   1      16.986157540074458      12.402014330717476      21.587572396306115
   317   2      14.042404930206065      12.246657562693647      20.892341072532098
   318   2      15.223029442245046      10.354759327941967      20.551442302821698
   319   2      13.744331504676186       8.623882132687994      20.949409752903492
   320   1      19.171170696054578      12.609165498610595      21.553115072818898
   321   1      17.974928009924454      10.969586084892871      18.786371862423209
   322   2      17.160337531195658      10.917227244158369      21.696804328331286
   323   2      20.888816092813698      10.855930177306938      19.673675177431651
   324   2       18.66173492519064      10.517913482094688      20.030309372676555
   325   2      2.1174624214483657      14.853161411184161      18.995409841083731
   326   2      3.4799746750494789      13.519478437009953       20.32006932510788
   327   2      3.9729449465506987      16.512081646133112      18.765142521535807
   328   2     0.28409808350626875      15.866188895418693      19.880103874516713
   329   2      4.2338666757983683      14.389834185901547       22.31281651510281
   330   1      6.1319505897887812      16.702707958012127      19.262455174700193
   331   2      7.2256529118983268      13.904620170933958      19.916824772430552
   332   2        5.15865557496587      14.466800279429334      18.974477897536914
   333   2      6.5936971145331285      14.020767930697026      22.178493336350861
   334   2      4.4574243596885088      16.683051259067575      22.682569214665556
   335   2      7.2397155190325071      17.111970426229863      20.189211501244969
   336   2       6.720546483549521      16.332372990539255      22.345009787809992
   337   2      8.9455827764947209      15.517975777638833      19.837339859154632
   338   2      9.9556576379452153      15.482978256807506      21.935423667244013
   339   2      11.224067751281671      13.192699078354886       18.73531615807963
   340   2      12.308335249607085      15.855705602079686      22.098172933929455
   341   1      14.073072558265487      16.902114540405041      19.737064479453799
   342   2      14.954983599539233      13.962923795817982      19.680672101458121
   343   2      16.972730746796113      14.949194834992605      20.138863524909976
   344   2      13.372618345922813      15.624832787501814      20.044681241669267
   345   2      16.605751028234167      16.951835545051342      21.290444684633279
   346   2      19.196387427799767      16.718708863411457      18.722731944663316
   347   1      19.532642764828456      16.696221995494756      21.378217949259625
   348   2      18.944368947028607      14.079273216922374      21.527423662857579
   349   2      20.378130158270132      14.212920394669046      19.427616568439408
   350   2      20.664929996882446      15.156877502789012      22.772596137345463
   351   2      2.3364579801764611      21.014877967154749      20.217616218648701
   352   2      2.9295725048219201      18.669989879412004      19.664429449738854
   353   2      4.2534240795843985      18.734735213902997      21.644445450363751
   354   2      1.0511781486740834      17.801388686809918      20.869792642920416
   355   1      4.0199224674738314      19.324666949757503      18.709448709179561
   356   2      2.7693611548771617      20.347782622598725      22.420391579298411
   357   1      8.5621947701232592      21.039314261096838      19.653733732911142
   358   2      6.3373023719270822      19.411205272061817      20.842972990157179