ITEM: TIMESTEP
0
ITEM: NUMBER OF ATOMS
1000
ITEM: BOX BOUNDS pp pp pp
0.0000000000000000e+00 2.1158707884739954e+01
0.0000000000000000e+00 2.1158707884739954e+01
0.0000000000000000e+00 2.1158707884739954e+01
ITEM: ATOMS id element x y z fx fy fz c_PEa
1 H 15.9656 12.3266 12.1692 -0.441933 -0.114759 0.0533666 0.29076
2 H 8.6767 4.91999 20.2724 0.5531 0.293034 0.0472149 0.525746
3 H 4.45845 12.5222 7.1153 0.544445 0.502337 0.350775 1.33737
4 H 5.86373 13.4244 12.59 -0.01295 -0.277755 -0.875697 0.0725975
5 H 9.58116 8.45023 13.9999 -1.45624 -0.348613 0.468988 0.194043
6 H 1.81668 3.41522 3.50847 0.000633268 0.333753 0.431973 -0.13568
7 H 13.3786 20.9165 8.95194 0.382473 -0.0377635 -0.00521747 -0.433813
8 H 13.914 20.4418 17.6426 0.687153 0.206386 -0.424822 0.151595
9 H 18.4318 20.3105 12.0225 -1.33691 0.0142595 -0.192838 0.413335
10 H 0.476774 15.2688 10.9136 -0.562044 -0.513894 -0.465124 -0.0454834
11 H 19.7398 18.758 14.0889 0.257064 -0.266638 0.968463 0.108638
12 H 11.896 2.47755 12.3804 0.197134 0.152762 -1.41678 -0.438904
13 H 8.19501 12.3143 18.8201 0.568986 -0.546458 -0.254566 0.0154031
14 H 5.16457 14.1679 9.01325 0.102251 -1.1646 -0.633833 0.923405
15 H 12.3401 0.0251681 3.14951 0.331795 0.614106 0.153462 0.36104
16 H 13.1873 15.5096 3.25989 -1.26038 0.458275 1.40103 -0.147039
17 H 1.60618 6.69846 5.36277 -0.504295 0.905621 -0.271049 -0.328356
18 H 15.5658 11.4812 2.70299 -0.154952 0.423137 -0.888131 0.0591525
19 H 3.37704 13.3469 13.0474 -0.0420069 -0.0380934 0.171554 0.379173
20 H 8.19789 0.765298 1.47493 0.551004 0.152405 -0.580841 0.415688
21 H 2.70096 4.78967 17.4631 -0.735149 0.304002 0.375209 -0.371077
22 H 11.1406 2.25151 0.328588 -0.919047 0.0931412 -0.371323 0.238371
23 H 5.68034 10.3876 3.07168 -0.753263 1.15208 0.0212816 -0.140968
24 H 12.9394 12.0445 3.39318 4.05697 17.3355 5.5928 0.244106
25 H 18.0014 12.2991 7.75123 0.414838 -0.809301 0.682618 -0.280258
26 H 17.551 2.43908 2.82123 0.813655 0.020633 -0.135501 -0.324987
27 H 3.25823 15.0729 9.35859 -0.00356971 0.333987 0.291034 0.651778
28 H 21.0147 11.4972 2.85233 1.76377 0.0752976 2.07765 0.942953
29 H 9.0446 17.1786 6.89641 -0.180139 -0.519155 -0.452009 -0.180932
30 H 12.7791 13.5142 6.49349 -0.531224 -0.807435 0.58663 0.776061
31 H 15.9411 10.495 14.531 0.0777031 0.33285 0.0351484 0.239751
32 H 1.62989 7.18917 15.7854 -0.15091 -0.434808 1.88061 -0.126376
33 H 11.699 4.24841 9.97574 0.0564742 0.669186 1.82149 -0.188361
34 H 18.6714 13.3068 16.6956 0.407886 0.876043 0.0530046 -0.163804
35 H 19.3515 9.29135 5.52619 -0.154149 -0.698251 0.430855 -0.379024
36 H 17.7349 11.4095 3.03189 -0.495681 0.568705 0.96267 0.543233
37 H 5.43155 9.55758 11.9922 -0.453786 0.3355 0.830008 1.04734
38 H 11.8103 16.2407 18.9899 1.99747 -0.137572 2.85623 3.58491
39 H 11.677 7.08324 9.24555 -0.371263 -0.449456 0.175048 0.517382
40 H 13.6284 2.86129 2.70521 0.305536 -0.517232 0.935973 0.587051
41 H 6.45293 19.1643 12.4142 1.10029 -0.312411 0.352532 -0.248692
42 H 5.93968 0.973416 5.65206 -0.0144662 -1.39852 -0.265464 0.919057
43 H 16.9634 3.33467 11.5807 -0.0180284 -1.2849 0.374186 0.294604
44 H 5.87679 4.66252 9.51662 0.60895 0.276613 -0.119535 0.49698
45 H 6.09103 5.86191 6.34852 0.0651862 0.639093 0.706171 -0.139207
46 H 8.04126 20.0131 2.05001 -0.419687 0.189533 0.130695 0.114463
47 H 2.04153 3.00925 19.071 -0.351339 1.04433 0.00102115 -0.00441016
48 H 3.09244 2.64196 6.87779 -1.08225 1.14158 -0.342405 0.115774
49 H 13.5833 11.0818 11.1812 2.60468 0.3967 -0.252713 0.438541
50 H 13.6911 3.36303 17.1562 0.688502 -0.439028 0.846514 -0.23335
51 H 3.75397 4.58484 13.9395 0.762115 -0.742874 0.5234 0.00221149
52 H 13.8228 6.87733 18.9211 0.348576 -0.352014 0.27644 0.425845
53 H 4.51753 17.0939 19.2598 0.364936 -0.267851 -0.00856279 0.203732
54 H 12.5565 3.77052 1.5503 -0.372476 -0.808813 -0.401398 0.944052
55 H 16.5935 16.207 17.2663 0.210444 0.433043 -0.576569 1.82854
56 H 13.7868 13.245 10.7758 0.773555 0.0898787 -0.147047 1.75104
57 H 21.1349 4.79854 17.6311 -0.760697 0.585507 0.672501 -0.492274
58 H 16.2834 15.912 6.47738 -0.399979 -0.101038 0.176384 0.759076
59 H 19.5587 1.15086 2.33741 -0.918995 -0.162994 -0.240935 0.215031
60 H 13.4788 17.3268 12.9921 -0.0143863 0.160211 0.208398 1.10775
61 H 17.7497 15.2051 2.69134 -1.15268 -2.99087 -2.02541 0.855365
62 H 14.763 20.9279 4.35846 0.0336943 1.50465 0.303837 -0.112341
63 H 14.7186 2.91353 15.6244 0.411872 -0.922936 0.963366 -0.293084
64 H 2.69793 9.912 9.57985 0.681468 -0.478383 -0.388919 0.539647
65 H 3.80047 18.9014 8.41483 -0.359884 0.251516 -1.48791 0.815124
66 H 7.21268 2.52068 13.0391 -0.417459 -0.27542 0.583287 -0.270712
67 H 13.6405 12.233 15.0539 0.545381 -1.28219 -0.227732 0.255867
68 H 10.189 8.03885 12.1977 -0.319028 2.82355 -1.67471 0.0801821
69 H 19.1949 8.82162 0.601031 0.616512 0.0119566 0.00627192 1.03939
70 H 6.26202 10.7832 19.1219 -0.432465 0.510253 0.109037 0.458865
71 H 20.4534 1.68676 6.47045 0.566093 -0.863048 -0.157226 0.103009
72 H 6.96924 1.72989 20.9891 0.728928 0.574821 0.0136934 -0.517047
73 H 14.4395 9.89257 16.1442 0.144354 0.329773 0.688501 0.157391
74 H 8.11104 18.4432 14.5363 0.679349 0.592736 0.975633 0.315566
75 H 8.03492 9.07881 20.6019 0.534501 0.772449 -0.786482 -0.295712
76 H 1.03179 13.704 8.03444 0.171333 0.212103 -0.48723 0.185894
77 H 12.9128 19.9584 6.08209 -0.564545 -0.935874 -0.707358 -0.67737
78 H 18.337 3.51106 20.777 0.173175 0.623486 0.980734 0.300452
79 H 4.59537 19.7692 14.9588 0.869406 -0.427036 1.34462 1.44049
80 H 3.97729 17.3165 0.960078 -0.206763 -0.0708105 0.0203651 0.274324
81 H 14.6069 10.4576 9.02561 0.0100209 0.922543 0.777654 0.416967
82 H 11.83 1.05424 15.2976 -0.375002 1.22768 -0.121706 -0.00774334
83 H 19.7781 4.89509 20.1719 0.261476 -0.935721 0.716522 -0.110774
84 H 11.8684 8.69101 13.0252 1.39678 0.562269 0.819842 -0.118844
85 H 4.14849 0.930145 14.5291 0.511692 1.51849 -0.178101 -0.276952
86 H 3.31089 5.61123 2.53905 -0.130211 0.314461 -0.0259717 0.447692
87 H 12.1868 8.86796 16.0759 -0.50017 1.35195 0.42189 0.477273
88 H 10.1325 14.8108 6.20223 -1.74584 0.928436 1.25905 0.0673911
89 H 11.9291 6.44813 7.47408 0.3615 0.513251 -0.177892 0.653849
90 H 4.39781 10.6979 9.30094 -0.026185 -0.35396 0.693318 1.3311
91 H 9.28663 19.9112 4.81738 -0.704156 -0.27404 -0.332192 -0.00150537
92 H 5.19535 7.46442 6.03873 0.78792 1.06773 0.476705 -0.117547
93 H 1.1169 10.6262 20.9485 2.74675 -1.14291 -2.44451 0.920496
94 H 2.34179 15.0239 13.1002 0.822308 -0.820914 -0.586724 0.00276207
95 H 3.49486 15.5123 16.2457 0.759246 -0.13489 -0.147273 0.333721
96 H 10.2111 17.9241 1.52219 0.112789 -1.10235 0.272553 0.469972
97 H 3.16955 8.25447 12.4523 -0.389804 0.642646 0.484926 0.313219
98 H 6.54794 4.49164 4.44388 -1.01053 0.270502 -0.332569 0.050812
99 H 1.05521 18.9992 0.158891 0.45116 0.893701 0.604178 -0.20832
100 H 18.4428 13.7362 5.21178 -0.289805 -0.605738 0.383869 -0.082344
101 H 11.4751 0.664958 13.3203 0.779123 -0.743646 -0.0801991 -0.177564
102 H 7.42614 11.9643 1.69173 -1.01198 -0.233052 -0.0903112 0.567682
103 H 20.9966 2.64586 17.0913 -0.376922 -0.0825778 0.188878 -0.296149
104 H 17.8305 1.62656 0.311902 0.392018 0.0491371 -0.0189442 0.0351474
105 H 0.47762 19.4885 11.0072 0.174904 -0.337114 -0.956603 0.83049
106 H 0.0638245 5.69853 11.0369 -0.460223 -2.75039 -0.805444 0.885831
107 H 5.14608 17.2079 12.0797 -0.0743572 -1.17148 -0.771323 0.180041
108 H 6.29908 20.4532 10.7071 -0.170546 0.772422 -0.568985 0.316825
109 H 19.5898 4.78756 9.65738 0.526739 -0.302707 -0.445191 0.640207
110 H 0.471832 5.54997 0.101237 -0.461827 -0.573173 -0.627534 0.290129
111 H 20.0466 10.9943 12.8789 -0.176613 1.0755 1.26868 0.12143
112 H 16.9047 19.9165 8.23587 -0.36417 0.223893 0.495998 -0.43738
113 H 15.7015 19.9145 16.6132 -1.36077 1.5848 -0.959622 0.486783
114 H 9.52151 16.8637 14.5301 1.08222 0.534182 -0.168193 0.57075
115 H 20.5793 11.6467 15.3488 0.320706 -0.199555 0.10529 -0.226276
116 H 16.887 5.9537 12.0585 -0.0312788 0.333077 -0.216089 0.406929
117 H 12.7372 3.0193 20.9484 0.359813 0.168282 -0.977908 0.628189
118 H 9.02209 7.91797 16.6598 0.0429117 -0.61242 1.20641 -0.620464
119 H 11.1811 14.7258 15.9938 0.0744877 -1.32412 -0.520516 2.77905
120 H 3.31583 9.63571 4.04974 -1.01137 -0.478731 0.300352 0.480414
121 H 0.734611 1.36173 18.8733 0.386519 0.612007 -0.836339 -0.327691
122 H 20.8611 0.17166 8.52168 0.11792 0.379021 1.19222 0.348227
123 H 10.566 19.9305 8.08269 1.86709 -1.54349 -1.96312 -0.0177709
124 H 16.6149 18.6899 6.62578 -1.26035 0.639481 -0.18251 -0.331478
125 H 19.0341 3.15416 13.5455 -0.5962 0.171542 1.73282 0.504998
126 H 17.1911 17.1825 20.2989 0.401756 -0.0432237 0.139676 1.65178
127 H 6.75643 1.9369 11.0552 0.683033 0.350056 -0.510505 0.565938
128 H 13.8607 2.44216 8.32094 -0.0215069 -0.0649371 0.17484 -0.122114
129 H 16.8431 10.6041 9.95281 -0.249594 0.0404514 0.168273 -0.370314
130 H 17.1737 0.369127 10.3826 -0.324229 -0.499892 0.00978027 0.788065
131 H 3.10924 8.3304 5.43321 -0.0219113 -0.0223171 0.114843 -0.0121455
132 H 15.649 2.49376 9.86033 -0.294767 0.0926784 0.227772 0.00246351
133 H 11.7468 12.9939 0.264091 -1.30379 1.10988 -1.32862 -0.398273
134 H 4.7317 4.49619 15.9865 -0.566079 0.73306 0.984205 -0.153453
135 H 7.92577 5.14657 5.64392 -0.116355 0.753273 0.104295 -0.364514
136 H 12.8058 1.11302 17.1966 1.27914 0.437392 -0.439801 0.023253
137 H 11.4161 0.803121 7.26881 -0.530082 -0.542154 -0.371599 -0.226816
138 H 8.53804 5.37215 1.55877 -0.283937 -0.835011 -1.1608 0.0955653
139 H 15.84 9.18367 20.7251 -1.35791 0.383477 -0.5836 1.44552
140 H 2.17819 13.988 10.7229 -0.628791 -0.66284 0.260849 0.111053
141 H 16.6009 5.23858 1.61183 0.458507 -0.419942 -0.109123 0.235747
142 H 6.05565 7.57371 9.10154 0.257359 -0.217495 -0.46155 0.333636
143 H 3.74563 20.8566 0.702982 1.09621 0.315337 -0.967555 -0.54038
144 H 2.39879 11.2461 5.54827 0.430771 0.522289 -0.873028 -0.117367
145 H 19.1365 17.2092 10.7435 0.0596031 -0.0210758 -0.318077 -0.432513
146 H 18.4877 8.21238 12.2574 -0.847009 -0.0569747 0.731827 0.409891
147 H 21.0682 10.9842 10.8586 -0.478242 2.33816 -0.216233 0.644374
148 H 20.6256 8.8118 17.1572 -0.207398 -0.159784 0.170443 -0.436688
149 H 9.69362 7.72936 4.17931 1.06104 1.98907 -0.499492 0.754438
150 H 11.5702 17.682 13.41 -0.334742 -1.25323 0.917604 0.858628
151 H 7.8386 20.4998 13.6233 -0.859212 -1.16799 -0.80208 0.762978
152 H 14.3382 13.3283 4.03192 2.9389 1.5601 1.28296 -0.431565
153 H 8.48984 13.9014 8.56375 0.368909 0.0581013 -0.165643 0.483022
154 H 19.381 8.29256 19.433 -0.0851699 0.515322 0.327813 -0.00937679
155 H 12.3155 5.67471 16.4496 -0.0812385 -0.317789 -0.93292 -0.0670065
156 H 2.41715 7.93619 7.88325 -0.089819 -1.40236 0.61291 -0.180603
157 H 12.4794 17.0216 2.56467 0.276514 2.46424 -0.430486 0.45398
158 H 16.5363 8.14602 6.53107 0.269594 -0.488156 0.286182 -0.114297
159 H 7.06567 19.398 5.48798 -0.0537742 0.130649 0.0427343 0.431086
160 H 17.7531 21.0948 18.0683 0.323681 -0.342122 -1.12067 0.244289
161 H 13.649 12.6204 8.40527 -0.564136 -0.206447 1.27472 1.19129
162 H 8.27622 8.85523 11.0678 -1.35694 0.729258 -0.4387 0.841069
163 H 9.2015 13.084 15.663 1.44325 -0.581802 0.333741 0.685892
164 H 15.2514 7.76058 13.6803 0.204671 0.293986 -1.36592 0.0506677
165 H 19.1206 20.0415 15.3584 -0.219878 -0.129708 0.00954207 0.294133
166 H 7.97535 11.1832 10.1607 -0.169756 0.273505 -0.675468 0.973735
167 H 15.7971 9.46382 4.98777 0.518317 -1.74033 0.098662 -0.206025
168 H 0.128509 19.3374 6.98268 -1.26493 -0.162391 0.69164 -0.107692
169 H 10.7658 18.4203 10.3559 -0.938466 0.142134 0.375039 -0.148574
170 H 10.7685 20.3999 3.90262 0.324177 -1.06466 -0.0843823 -0.0924095
171 H 12.484 5.11075 5.26965 0.0592469 -0.853078 0.03503 0.195852
172 H 9.02385 9.20297 2.78839 -2.12328 0.276056 0.117008 0.361839
173 H 10.0149 6.47948 15.0622 -0.340481 1.16818 1.53157 -0.681655
174 H 1.57864 4.10375 13.0543 0.434432 -0.543629 -0.0458403 0.244316
175 H 10.8848 8.44246 18.6897 0.186951 -0.0240177 -0.964487 0.486795
176 H 11.5726 2.52744 4.09751 0.329524 -0.218211 -0.482921 0.248682
177 H 0.954923 8.89203 12.3748 0.603897 -0.602823 -0.088363 1.27704
178 H 20.2811 2.38952 19.4322 -0.493744 0.950576 -0.652913 -0.389831
179 H 10.9715 14.2693 12.6737 0.44125 0.230885 1.08778 1.45136
180 H 1.95532 9.86887 15.7209 -0.1475 -0.175142 0.71767 -0.243931
181 H 7.1464 9.024 6.43348 -0.075779 0.0842441 0.111938 0.432735
182 H 18.3646 0.422719 4.73416 0.448432 0.179238 0.10559 0.558695
183 H 20.2426 19.8826 2.33082 0.623343 0.00755082 -1.34595 0.45065
184 H 14.9963 2.14742 20.5045 -0.1173 0.830145 -0.496516 0.414747
185 H 4.12385 2.40118 20.0847 0.867277 -0.189094 0.544907 -0.0976815
186 H 19.5782 13.5311 10.818 -0.0235713 -1.35807 -0.803069 0.0626951
187 H 8.3617 2.56113 18.9309 -1.45003 -0.800954 0.785703 0.615379
188 H 0.797238 1.17799 12.2343 0.0526507 -0.119808 -0.0143719 1.498
189 H 20.7553 5.43101 7.79203 0.522739 0.236248 -0.000668974 0.419828
190 H 20.4381 6.08501 15.1311 -0.349359 0.488254 1.74717 -0.0861908
191 H 0.995293 14.8763 6.32272 0.389013 -0.918463 -0.892962 0.377093
192 H 19.0307 7.81854 8.10971 -1.2317 -0.396396 0.523754 0.083905
193 H 6.97484 14.8181 8.22213 -0.34899 -0.587294 -0.689941 0.500484
194 H 17.1121 4.97746 4.55626 -0.0754818 -0.930974 0.341517 0.353441
195 H 16.5146 13.6415 19.4141 0.978034 -0.146683 0.772068 0.856133
196 H 4.24904 12.2656 17.1854 0.804123 -0.662177 0.261615 -0.0674944
197 H 4.55522 4.85919 6.01026 -0.150187 0.698552 -0.723942 -0.0246578
198 H 16.3878 8.13656 19.0669 0.217512 -0.313615 0.226152 0.176284
199 H 16.3543 5.93315 19.7976 1.29716 -0.0885307 -0.83946 0.144455
200 H 19.5437 14.8577 19.9041 -0.0363555 -0.266384 0.181316 0.252014
201 H 3.07694 11.2235 14.6098 -0.439243 0.795138 -0.115676 -0.0561184
202 H 0.0762953 16.1659 17.5309 -1.57136 -0.0769435 -0.686418 -0.320944
203 H 0.207828 5.15632 4.64395 -1.03578 1.23129 0.624979 -0.419902
204 H 14.8679 6.70587 6.87606 1.74987 -0.949058 1.28857 0.0302744
205 H 8.15849 13.7577 12.3051 0.206771 0.814289 -0.310673 0.819633
206 H 13.6302 16.7158 15.6544 0.899083 0.843892 -1.23101 2.45028
207 H 16.4224 13.4936 15.8962 -0.139109 -0.0762005 -0.839634 0.125765
208 H 7.96947 15.8669 2.81787 -0.211795 0.323574 0.145682 0.749914
209 H 2.06051 9.42671 6.83089 0.864956 0.511007 0.311506 0.157828
210 H 0.316354 14.092 15.9161 -0.403724 0.216344 -0.106951 0.0303171
211 H 20.1016 16.4079 9.3056 0.45079 -0.501545 -0.24046 0.216349
212 H 1.41112 20.6225 7.1785 -0.475337 0.523608 -0.36803 0.320526
213 H 13.3558 4.68512 13.0481 3.60969 -2.1485 1.15909 -0.258169
214 H 16.7734 3.80715 7.21541 -1.11285 -0.87034 -0.463333 0.907088
215 H 12.928 17.8862 4.14392 0.44111 0.59418 0.592094 0.460134
216 H 6.96447 20.2426 3.8325 0.570438 0.058016 -0.118213 -0.165435
217 H 8.29091 13.7936 10.4138 -0.17388 -0.628148 -0.486014 0.556978
218 H 4.01135 4.92951 9.2474 0.676825 0.769825 -0.459993 1.14757
219 H 16.1231 8.34877 3.33347 0.611626 -0.582403 0.150436 -0.109739
220 H 18.2114 7.53072 13.9986 -1.0137 -0.0669085 0.605275 -0.0924503
221 H 0.795912 15.3556 21.0077 -0.691237 0.0135623 -0.36969 1.21303
222 H 17.1388 15.4125 15.4602 0.290774 0.149321 -0.248086 0.301231
223 H 3.56159 10.3658 17.5855 -0.727205 0.0887989 -0.390985 0.0328924
224 H 19.2516 0.143175 10.4228 -0.539609 -1.66538 -0.672903 0.42221
225 H 3.86559 13.8182 2.96377 -0.295545 0.303417 0.327611 1.15408
226 H 16.8796 3.26122 16.3138 0.118879 -0.218738 0.360543 -0.25113
227 H 5.76759 11.1144 14.6469 -0.478974 -0.457178 0.156946 0.532456
228 H 14.6118 0.863058 7.47336 0.469351 -0.016108 0.355038 -0.13757
229 H 5.08159 1.09412 16.1529 0.216205 0.0375462 0.181261 -0.113655
230 H 7.83873 4.82553 7.60836 -0.0851305 -0.193438 1.20351 -0.603002
231 H 2.13714 12.5074 0.0520663 -0.927133 0.303661 -0.623845 1.08679
232 H 0.44503 4.8232 9.40863 0.163404 0.0369381 -1.16951 0.426962
233 H 8.3754 17.1736 10.0857 0.398847 -1.04298 -0.213849 0.0183878
234 H 16.0631 4.23713 3.08753 1.11675 -0.509917 0.183941 0.351243
235 H 11.1976 16.1885 8.41309 -0.241332 0.0550439 -0.138438 0.127385
236 H 3.3575 3.4612 2.45322 0.465221 -0.68959 -0.552581 0.118208
237 H 12.6526 10.3478 2.58745 0.464944 -4.84631 -1.71556 0.858106
238 H 10.3444 2.77332 6.81944 1.41119 -0.757166 -0.564838 0.104492
239 H 4.29553 19.3755 20.5519 0.664799 0.466229 0.166248 -0.202099
240 H 18.8316 5.76203 3.65227 0.766984 -0.125401 -0.984871 0.588202
241 H 1.69195 1.66225 5.32237 -0.60707 1.28337 0.347572 -0.257155
242 H 15.5206 2.45778 3.38453 -0.10535 -0.891238 0.727583 0.262063
243 H 2.20779 0.535594 1.13234 -0.0582288 0.595339 -0.374586 -0.588911
244 H 10.3099 8.82745 15.6878 0.103223 -0.218173 0.113173 0.319135
245 H 12.2039 11.2456 16.8424 -0.712794 -0.519003 -0.486449 0.0884157
246 H 20.4048 4.24714 1.17714 0.148911 0.490302 0.311592 -0.420628
247 H 3.59063 7.47214 16.9362 -0.593463 1.18904 0.180122 -0.102301
248 H 0.448155 19.1593 13.8938 -0.114449 -0.124967 0.914383 0.35066
249 H 13.4993 1.52105 14.4986 0.974747 0.583595 -0.108405 -0.569515
250 H 12.224 19.2752 8.77693 1.48502 -0.268414 0.344895 0.261737
251 H 16.1723 1.03693 18.5573 0.0616453 -0.576006 0.419102 -0.152439
252 H 9.12241 5.28446 10.3659 0.373193 0.0364272 -0.281172 0.0846957
253 H 15.3809 15.5716 3.35189 1.05899 -0.421695 -0.561548 0.00164512
254 H 7.58158 16.4394 15.8231 -0.856097 0.0340993 -0.0544355 0.81973
255 H 10.1857 3.92579 5.16569 0.670772 1.57999 0.355009 0.16229
256 H 15.2394 20.5402 19.3302 0.736324 -0.103326 0.148152 0.676753
257 H 10.9359 9.00325 3.30483 0.231255 1.07031 -0.194128 0.597818
258 H 4.38888 2.25287 10.3806 2.0344 -0.413031 0.46919 3.39784
259 H 13.3941 20.402 13.5582 -0.126252 -0.650429 -1.15079 -0.270373
260 H 5.6159 6.81679 13.6768 -0.523042 0.125701 0.161313 -0.209628
261 H 16.7725 6.82371 16.8048 -0.168966 0.428878 1.17087 -0.308476
262 H 2.83988 5.07331 4.40705 1.01122 -0.706487 0.621711 -0.155346
263 H 17.2876 12.5867 14.3815 0.234643 -0.498358 0.398723 0.386293
264 H 3.37722 14.3267 17.6559 0.921921 0.926583 1.96201 0.226927
265 H 4.01244 7.07773 7.61134 1.01308 -1.03826 0.159931 0.00200632
266 H 4.92396 14.0178 20.4636 0.388088 -0.681662 -0.617107 0.304423
267 H 9.11281 1.12405 16.8085 -3.06268 -2.00668 0.957451 0.145387
268 H 13.5113 7.21154 8.8583 0.0735194 1.88099 -1.81247 -0.242795
269 H 15.3075 13.3869 8.39963 0.32897 -0.148741 -0.359956 0.0466348
270 H 18.6729 19.4793 8.58986 1.05553 0.0746981 -0.377747 0.142299
271 H 16.9475 19.4644 13.7705 0.853925 0.0161901 -0.261802 0.762993
272 H 5.73027 19.1488 17.6565 -0.40693 0.153894 1.10045 1.26929
273 H 16.8527 16.5688 12.2642 0.326345 0.129451 0.509832 0.442943
274 H 5.46585 20.9795 18.3543 0.628367 0.398655 -0.049224 -0.220603
275 H 8.94195 14.2202 2.35065 -1.06914 0.843713 -0.336368 0.129349
276 H 1.33866 1.30182 8.21596 0.650303 0.943527 -0.0480025 0.20078
277 H 19.6479 20.1122 6.15381 0.375093 -0.264927 0.24047 0.373347
278 H 6.89485 17.4495 6.61836 0.0960323 -0.0466193 -0.2572 0.152753
279 H 5.85508 12.9556 3.44089 -0.763065 -0.557227 -0.646491 1.33223
280 H 11.0602 15.6107 2.83226 0.146213 -1.10117 -0.3354 -0.151568
281 H 18.8013 18.5574 2.51597 1.02048 3.65635 -0.354814 0.794419
282 H 10.6659 12.9011 18.1598 -0.412101 -0.767734 -0.620661 0.999261
283 H 13.3215 19.4381 2.4899 -0.375157 -1.21961 0.938277 0.154114
284 H 6.88945 2.48534 2.75501 0.160556 -0.473724 -0.0397733 0.0782884
285 H 14.0451 18.7873 14.8643 1.4075 -0.522023 -0.710504 0.391911
286 H 0.415413 4.51154 15.0909 1.26799 -0.126721 0.791291 0.0173296
287 H 0.753235 20.6319 15.8357 -0.609936 0.201581 0.280906 -0.186398
288 H 11.6384 6.26059 4.16482 -0.411102 -0.538457 0.670016 1.28099
289 H 0.484107 7.76989 14.3557 -0.579169 1.6367 1.45033 -0.302248
290 H 8.9324 17.9164 12.9351 -1.22409 -0.657969 -1.1908 0.316821
291 H 12.8484 16.0923 0.104964 -0.821331 0.141561 -0.475934 0.258707
292 H 18.1844 8.09564 16.7102 -1.23453 0.67632 -0.727352 -0.182651
293 H 15.318 4.84101 14.3132 -0.560119 1.17396 -0.332433 -0.00975662
294 H 18.4757 1.35364 16.6017 0.223566 0.921785 0.452098 -0.121703
295 H 11.4652 11.9299 2.27686 -3.00631 -0.434351 -1.85899 -0.128079
296 H 12.758 11.9039 19.3396 -0.733852 -0.0869989 0.495697 0.88225
297 H 10.7819 15.6429 20.6129 -0.0721687 0.302294 1.03594 0.297576
298 H 17.5095 12.4912 0.18927 -1.19695 0.15272 -0.349186 0.292472
299 H 15.9328 14.4889 5.20895 -0.354623 -0.0701205 -0.558584 0.195273
300 H 6.05454 7.67227 19.9471 0.0918184 0.945261 -0.0609726 1.12234
301 H 8.49773 3.56487 6.28748 -0.490825 -1.14407 -1.27546 0.29573
302 H 8.07418 5.93021 18.337 -0.193494 -0.180152 0.745237 0.192907
303 H 2.68134 10.672 12.9028 -0.00732649 0.818557 -1.03346 0.242878
304 H 9.85735 1.34767 15.1765 0.0564958 0.0808939 -0.507817 0.0939091
305 H 5.36052 12.2697 1.32001 0.572904 0.144516 0.393321 1.30739
306 H 6.59888 0.380197 12.3013 -1.08154 0.215455 0.537948 0.282343
307 H 9.33908 3.73284 3.33029 -0.702105 -0.204073 -0.153367 -0.00619201
308 H 8.79569 19.9318 11.6638 -0.799041 -1.30607 2.16922 -0.207999
309 H 6.95225 14.9263 11.3 0.0949306 0.098447 0.23433 -0.0205164
310 H 7.25436 10.105 14.475 0.711327 -0.278451 0.379083 -0.333102
311 H 12.6773 0.950098 5.69826 0.410845 0.920774 -0.342902 -0.449895
312 H 0.274825 14.2195 3.77578 0.338992 0.157917 0.0681794 0.536652
313 H 16.9793 8.87719 9.41061 0.559592 -0.0409479 0.184127 -0.381305
314 H 8.39903 6.99386 20.3498 0.0485125 -0.794667 -0.257413 0.795185
315 H 3.16583 5.44603 7.59696 -0.903711 0.856233 -0.015859 -0.149597
316 H 11.3403 18.0275 18.9498 0.67646 1.25221 1.33513 1.22215
317 H 18.6473 13.6757 3.25508 0.324568 0.541306 -0.0246353 0.764586
318 H 10.0203 15.0917 14.3275 0.25806 0.0746962 -0.422002 1.06554
319 H 20.6784 9.8838 3.93217 1.0932 0.243541 -0.0885405 0.0132675
320 H 20.7305 11.9648 8.3983 -0.111515 -0.109771 1.17 -0.124851
321 H 18.0759 20.9778 1.2625 -0.11602 0.943322 0.20978 0.312493
322 H 14.065 20.8303 1.61818 -0.0623739 -0.117287 -0.108964 0.944777
323 H 16.1531 5.18032 16.109 0.597245 -0.224864 -0.0467304 -0.0152389
324 H 4.55966 16.9557 2.65321 -0.0283397 1.07675 0.324751 0.509294
325 H 7.03738 15.4703 5.12224 -0.148703 -0.138915 -0.2301 0.991941
326 H 6.11148 18.1234 9.99277 0.740359 1.24999 -0.203201 0.803998
327 H 2.12809 17.2583 9.46105 -0.673803 -0.281816 0.552575 0.85611
328 H 15.9254 17.9613 13.9004 -0.505261 -0.3911 -0.680641 1.06533
329 H 5.42732 8.44009 3.18882 -0.490962 0.267102 0.962388 -0.215476
330 H 10.6968 10.0633 21.1394 -0.958504 -0.0228857 -0.825291 0.608242
331 H 15.7467 0.750016 11.6598 0.0304772 0.596004 -0.126254 0.377384
332 H 1.90596 9.93227 18.8872 -0.555967 -0.670131 -0.513826 1.02542
333 H 7.28849 20.836 8.93206 -1.9278 -0.455486 -1.20326 0.244577
334 H 9.5436 1.93516 13.4486 -0.698353 -0.331247 0.292995 0.197667
335 H 15.6624 2.43203 6.53038 -0.245236 0.548341 -0.924931 0.0941741
336 H 0.157308 2.41653 0.15439 -0.103327 0.249772 -0.422113 -0.129905
337 H 14.0853 5.02221 0.177131 -0.0868949 -0.27653 0.568143 1.07814
338 H 11.5046 10.5635 4.07835 -3.06124 -3.15108 0.968506 0.274505
339 H 16.1339 10.6217 7.74197 -0.916304 0.193489 -0.766813 -0.235684
340 H 6.26051 15.6855 18.6802 -0.0526489 -0.355453 0.723246 1.06633
341 H 10.0501 8.27429 1.56664 1.22821 -0.580056 -1.81153 0.103004
342 H 20.6114 16.8596 4.1036 2.32882 0.620707 0.114746 0.556646
343 H 10.1074 13.3344 20.0712 0.318376 -0.0693758 0.641355 0.117403
344 H 19.4591 10.8832 18.2358 1.14438 -0.0150211 0.3268 -0.79095
345 H 3.24241 16.1942 14.5776 0.280662 0.181538 -0.153808 0.519882
346 H 13.6199 9.31105 10.4175 0.839964 0.803135 -0.897476 0.34397
347 H 2.64462 2.14954 13.4029 0.787509 0.911034 1.66594 0.392703
348 H 19.0974 15.5886 18.2159 0.257048 -1.6477 0.443789 1.0514
349 H 4.2401 1.57925 3.11414 -0.54699 -0.277068 -0.957523 1.04276
350 H 1.03105 17.8357 18.6017 0.0691633 0.637665 0.457999 0.104043
351 H 10.2307 3.68064 20.6709 -0.285648 -0.297641 -0.185696 0.46151
352 H 10.6335 0.0435272 17.7938 0.218458 -0.197186 -0.664924 0.0401949
353 H 18.6321 14.5973 0.782108 -1.09338 0.780219 -0.707396 0.283473
354 H 6.61216 4.28015 11.9031 -1.02879 0.111452 -1.37214 0.201617
355 H 16.9215 15.1875 8.01352 1.01712 -0.178015 0.131768 0.329454
356 H 18.0184 10.1271 7.00145 0.257045 -0.0101775 2.00936 -0.651859
357 H 19.9135 13.5295 7.09073 1.05247 -0.275234 -0.258931 -0.0551051
358 H 19.8349 7.18271 1.4224 0.0239278 0.100696 0.695954 0.968204
359 H 6.55011 19.6107 15.9383 -1.17112 -0.173964 -0.123156 0.661786
360 H 7.13277 8.9887 16.4336 -0.210409 -0.452279 0.448799 -0.117969
361 H 2.54161 20.7994 10.6653 -0.444826 -0.250552 0.206041 0.960711
362 H 1.6523 7.86942 3.56669 0.764879 -0.142495 -0.00352353 0.46669
363 H 14.5269 9.47751 2.87692 -0.5394 0.788847 -0.476732 0.0977407
364 H 17.6666 14.7421 10.5124 -1.15188 -0.715596 0.634354 -0.117924
365 H 8.09297 19.9801 19.8769 0.211069 0.54936 1.01921 0.702571
366 H 1.70267 13.2827 16.9184 0.353892 -0.252268 -0.7924 -0.17868
367 H 20.9175 18.2274 9.38096 -0.423859 0.627545 -0.145028 0.542089
368 H 2.61952 18.3046 4.88887 -0.314435 -0.268915 0.0714551 1.31704
369 H 12.3773 7.91874 4.16057 0.717124 -0.135823 -0.263747 0.671357
370 H 5.87504 1.47796 9.40199 0.222468 -0.0398944 -1.31147 0.276562
371 H 2.25943 1.15984 15.1221 -0.959698 0.612588 0.107157 0.501456
372 H 4.24137 7.47018 20.6935 -0.168856 -0.366703 -0.955562 1.31744
373 H 5.18577 20.1826 8.19376 0.60431 -0.196516 -0.279562 0.577641
374 H 10.7531 8.85713 7.92591 0.555081 -1.07848 -0.298999 0.915473
375 H 6.82895 18.115 4.0145 0.17203 -0.413709 -1.35579 0.362067
376 H 18.1668 11.4018 5.46779 0.520511 0.67426 -0.801784 -0.238187
377 H 14.8178 4.72097 7.65226 0.725835 0.891543 -0.174499 0.00785906
378 H 19.6633 16.855 15.3466 0.511498 0.511939 0.238548 0.565682
379 H 2.98373 13.4282 6.53642 -0.435964 -0.550745 0.358448 0.273076
380 H 19.7811 16.2892 7.18529 -0.307827 -0.221899 0.436463 0.183733
381 H 18.8853 0.287176 19.6303 -0.679744 0.136248 0.739506 -0.0582872
382 H 15.9424 5.51492 5.96442 -0.58021 -0.101571 1.4168 0.0517909
383 H 11.2215 2.89595 8.59234 0.760083 -0.0976635 -0.912227 0.0842258
384 H 4.28181 8.81265 7.18159 0.171931 0.474433 0.741504 -0.0441589
385 H 7.14945 16.3554 13.0399 -0.430958 0.366189 0.40212 0.2304
386 H 18.0429 10.1803 16.8566 -0.968806 0.447148 -0.380511 0.238269
387 H 7.13701 9.37572 1.61615 1.00333 0.530834 -0.283034 -0.0672343
388 H 15.7437 9.83746 18.0202 -0.500334 1.01783 -0.597411 -0.0714485
389 H 4.86334 7.70058 18.2573 0.0719847 0.955267 0.401648 0.840099
390 H 1.55342 7.64132 18.4935 -0.231234 0.0706089 0.186579 0.187353
391 H 12.1322 17.8319 6.97582 -0.327286 0.735668 -0.660013 0.199206
392 H 4.16488 19.2336 12.0447 -1.026 3.15158 -0.0288878 0.582466
393 H 19.0044 5.72302 16.7437 0.939701 -0.338052 1.28659 -0.75653
394 H 6.98422 7.06277 15.0726 0.495962 -0.119042 0.741529 -0.0925242
395 H 18.8102 18.6363 17.7591 -0.460742 0.978387 0.133958 2.83652
396 H 14.3703 17.2277 0.291442 0.359205 0.139092 -0.020547 0.807537
397 H 7.13829 16.6927 8.48455 0.403609 1.11337 -0.337354 0.0799392
398 H 10.3261 16.7233 11.6206 -0.765057 -1.25392 0.752621 0.248793
399 H 0.318759 8.92229 19.9107 -0.48642 0.214032 -0.755496 0.101064
400 H 10.2701 18.1345 8.43056 -0.410893 0.346233 -0.637889 0.235173
401 H 5.2785 2.98659 12.5639 -0.915325 -0.225063 0.908091 -0.0831511
402 H 16.1602 15.8543 10.2 1.23496 0.28383 -0.219857 0.0124832
403 H 10.2904 13.166 13.9504 0.764105 -0.106401 0.0316009 0.206607
404 H 7.88573 4.0298 16.7058 0.346327 -0.315891 0.894662 -0.0186156
405 H 19.1772 4.28363 15.6636 -0.715956 -0.150876 -0.550938 -0.103756
406 H 1.50813 5.11698 6.29166 1.4371 -0.982272 -0.231803 0.083584
407 H 15.8761 6.31478 3.32462 0.568565 0.658347 -0.240702 0.0568017
408 H 5.75952 9.87 0.141592 0.675509 0.543727 -0.817152 0.598443
409 H 12.0673 4.04718 14.2274 1.47245 -3.14959 3.02142 0.15127
410 H 13.4655 6.57253 11.1046 0.699187 0.372843 -1.30517 0.323463
411 H 2.43098 16.8467 16.8631 0.213599 0.66244 -0.762123 0.238577
412 H 13.4806 3.81256 6.68947 0.20581 -0.434342 -0.0449204 -0.15562
413 H 19.015 15.5165 11.6205 0.601269 0.231075 1.34087 -0.468872
414 H 15.2996 17.3899 9.49306 0.518248 -0.209798 -0.535773 0.692746
415 H 16.1632 6.40043 9.31639 -2.28521 0.805649 0.268881 0.078463
416 H 14.0805 4.4784 3.70408 0.260224 0.145235 0.122356 0.241194
417 H 16.0506 13.7399 13.6983 -0.106088 0.237518 0.720515 0.484433
418 H 15.9826 1.29234 15.2647 0.568208 0.270876 0.796898 -0.0669129
419 H 6.59493 20.2964 20.947 -0.626389 0.461202 0.680319 -0.141952
420 H 18.5299 9.65838 15.1614 -0.433566 -0.110154 0.0622877 -0.403524
421 H 4.61441 20.8176 4.24974 1.26415 1.97227 -0.795336 2.05572
422 H 1.74274 13.4315 2.62956 0.238955 0.082163 0.417322 0.790278
423 H 6.28694 5.1248 14.9151 -0.148181 -0.183245 0.0324441 0.198072
424 H 14.9355 7.86144 1.59343 0.512675 0.406044 -0.918645 0.279954
425 H 10.4587 10.7313 15.5673 0.36124 1.00293 2.51681 0.699802
426 H 17.2934 2.95666 19.145 0.282522 -0.0800054 -1.26537 -0.637557
427 H 7.59164 9.72072 4.29388 -0.739852 -0.000319623 0.541084 0.129195
428 H 15.4447 8.57366 8.33932 -0.21406 -0.339119 0.693559 -0.0629025
429 H 16.0391 2.88446 14.3904 -0.647537 0.369963 -0.787613 0.0134756
430 H 18.1362 7.04674 4.77802 0.229695 0.89669 -0.906533 -0.0228504
431 H 12.8138 17.3897 8.90641 -0.274639 -0.382587 0.293602 0.00363656
432 H 3.12628 17.1046 12.8136 -0.604036 -0.394479 0.278326 0.291029
433 H 17.8343 10.1488 19.0416 -0.968936 -0.14702 0.364436 -0.231798
434 H 4.88864 18.3731 13.8236 0.320845 -0.3515 1.25495 0.709624
435 H 7.03976 2.46441 6.21854 0.450178 -0.265804 -1.73775 0.22242
436 H 4.04239 3.96839 19.1355 0.406632 0.560814 0.64862 -0.0243991
437 H 20.773 2.84703 10.4168 1.04297 0.716729 -0.436736 2.14969
438 H 19.7479 10.8844 20.3195 -0.363568 -0.844528 -1.20698 -0.0864894
439 H 12.2746 6.2078 19.6663 0.092904 -0.229235 0.0241019 0.109159
440 H 13.1373 13.9735 1.41147 -0.479821 0.777092 -1.11548 -0.378816
441 H 1.19834 18.8912 16.8074 -0.280381 -0.67791 0.362318 -0.0141654
442 H 3.11175 7.30324 10.4461 0.856002 0.183388 0.102301 0.420714
443 H 1.68888 15.7477 15.6366 -0.806239 -0.354969 -1.02813 0.112703
444 H 11.183 0.394222 9.201 1.48543 0.512821 -0.526281 -0.497156