 vasp.6.5.0 16Dec24 (build Jan 20 2025 08:32:48) complex                         
 executed on        HPECrayEX_GCC date 2025.07.22  11:02:17
 running  128 mpi-ranks, with    1 threads/rank, on    1 nodes
 distrk:  each k-point on  128 cores,    1 groups
 distr:  one band on NCORE=  16 cores,    8 groups


--------------------------------------------------------------------------------------------------------


 INCAR:
   SYSTEM = a-Si SPC
   NCORE = 16
   ISTART = 1
   ICHARG = 1
   ISPIN = 1
   ISYM = 1
   EDIFF = 1E-6
   NELM = 150
   EDIFFG = -0.01
   NSW = 0
   ISIF = 2
   IBRION = -1
   PREC = Accurate
   ENCUT = 1200
   KSPACING = 0.23
   KGAMMA = .TRUE.
   METAGGA = SCAN
   LASPH = .TRUE.
   LDIAG = .FALSE.
   LMIXTAU = .TRUE.
   ADDGRID = .TRUE.
   ALGO = Normal
   ISMEAR = 0
   SIGMA = 0.1
   LORBIT = 11
   NEDOS = 2000
   LWAVE = .FALSE.
   LCHARG = .FALSE.

 POTCAR:    PAW_PBE H 15Jun2001                   
 POTCAR:    PAW_PBE Si 05Jan2001                  
 POTCAR:    PAW_PBE H 15Jun2001                   
   SHA256 =  030f79b5d3ab3cf0e668861823c8fb652ff669f3e15e46930bd03bfd63a607b6 H/POTCAR              
   COPYR  = (c) Copyright 15Jun2001 Georg Kresse                                                    
   COPYR  = This file is part of the software VASP. Any use, copying, and all other rights are regul
   COPYR  = If you do not have a valid VASP license, you may not use, copy or distribute this file. 
   VRHFIN =H: ultrasoft test                                                                        
   LEXCH  = PE                                                                                      
   EATOM  =    12.4884 eV,    0.9179 Ry                                                             
                                                                                                    
   TITEL  = PAW_PBE H 15Jun2001                                                                     
   LULTRA =        F    use ultrasoft PP ?                                                          
   IUNSCR =        0    unscreen: 0-lin 1-nonlin 2-no                                               
   RPACOR =    0.000    partial core radius                                                         
   POMASS =    1.000; ZVAL   =    1.000    mass and valenz                                          
   RCORE  =    1.100    outmost cutoff radius                                                       
   RWIGS  =    0.700; RWIGS  =    0.370    wigner-seitz radius (au A)                               
   ENMAX  =  250.000; ENMIN  =  200.000 eV                                                          
   RCLOC  =    0.701    cutoff for local pot                                                        
   LCOR   =        T    correct aug charges                                                         
   LPAW   =        T    paw PP                                                                      
   EAUG   =  400.000                                                                                
   RMAX   =    1.123    core radius for proj-oper                                                   
   RAUG   =    1.200    factor for augmentation sphere                                              
   RDEP   =    1.112    radius for radial grids                                                     
   RDEPT  =    0.926    core radius for aug-charge                                                  
                                                                                                    
   Atomic configuration                                                                             
    2 entries                                                                                       
     n  l   j            E        occ.                                                              
     1  0  0.50        -6.4927   1.0000                                                             
     2  1  0.50        -3.4015   0.0000                                                             
   Description                                                                                      
     l       E           TYP  RCUT    TYP  RCUT                                                     
     0     -6.4927494     23  1.100                                                                 
     0      6.8029130     23  1.100                                                                 
     1     -4.0817478     23  1.100                                                                 
  local pseudopotential read in
  atomic valenz-charges read in
  non local Contribution for L=           0  read in
    real space projection operators read in
  non local Contribution for L=           0  read in
    real space projection operators read in
  non local Contribution for L=           1  read in
    real space projection operators read in
    PAW grid and wavefunctions read in

   number of l-projection  operators is LMAX  =           3
   number of lm-projection operators is LMMAX =           5

 POTCAR:    PAW_PBE Si 05Jan2001                  
   SHA256 =  79d9987ad8750f624c4d6acb2a16d13abf6a777132adc04dc6c8399be72b42bb Si/POTCAR             
   COPYR  = (c) Copyright 05Jan2001 Georg Kresse                                                    
   COPYR  = This file is part of the software VASP. Any use, copying, and all other rights are regul
   COPYR  = If you do not have a valid VASP license, you may not use, copy or distribute this file. 
   VRHFIN =Si: s2p2                                                                                 
   LEXCH  = PE                                                                                      
   EATOM  =   103.0669 eV,    7.5752 Ry                                                             
                                                                                                    
   TITEL  = PAW_PBE Si 05Jan2001                                                                    
   LULTRA =        F    use ultrasoft PP ?                                                          
   IUNSCR =        1    unscreen: 0-lin 1-nonlin 2-no                                               
   RPACOR =    1.500    partial core radius                                                         
   POMASS =   28.085; ZVAL   =    4.000    mass and valenz                                          
   RCORE  =    1.900    outmost cutoff radius                                                       
   RWIGS  =    2.480; RWIGS  =    1.312    wigner-seitz radius (au A)                               
   ENMAX  =  245.345; ENMIN  =  184.009 eV                                                          
   ICORE  =        2    local potential                                                             
   LCOR   =        T    correct aug charges                                                         
   LPAW   =        T    paw PP                                                                      
   EAUG   =  322.069                                                                                
   DEXC   =    0.000                                                                                
   RMAX   =    1.950    core radius for proj-oper                                                   
   RAUG   =    1.300    factor for augmentation sphere                                              
   RDEP   =    1.993    radius for radial grids                                                     
   RDEPT  =    1.837    core radius for aug-charge                                                  
                                                                                                    
   Atomic configuration                                                                             
    6 entries                                                                                       
     n  l   j            E        occ.                                                              
     1  0  0.50     -1785.8828   2.0000                                                             
     2  0  0.50      -139.4969   2.0000                                                             
     2  1  1.50       -95.5546   6.0000                                                             
     3  0  0.50       -10.8127   2.0000                                                             
     3  1  0.50        -4.0811   2.0000                                                             
     3  2  1.50        -4.0817   0.0000                                                             
   Description                                                                                      
     l       E           TYP  RCUT    TYP  RCUT                                                     
     0    -10.8127223     23  1.900                                                                 
     0     -7.6451159     23  1.900                                                                 
     1     -4.0811372     23  1.900                                                                 
     1      2.4879257     23  1.900                                                                 
     2     -4.0817478      7  1.900                                                                 
  local pseudopotential read in
  partial core-charges read in
  partial kinetic energy density read in
  atomic valenz-charges read in
  non local Contribution for L=           0  read in
    real space projection operators read in
  non local Contribution for L=           0  read in
    real space projection operators read in
  non local Contribution for L=           1  read in
    real space projection operators read in
  non local Contribution for L=           1  read in
    real space projection operators read in
    PAW grid and wavefunctions read in

   number of l-projection  operators is LMAX  =           4
   number of lm-projection operators is LMMAX =           8

 -----------------------------------------------------------------------------
|                                                                             |
|               ----> ADVICE to this user running VASP <----                  |
|                                                                             |
|     You have a (more or less) 'large supercell' and for larger cells it     |
|     might be more efficient to use real-space projection operators.         |
|     Therefore, try LREAL= Auto in the INCAR file.                           |
|     Mind: For very accurate calculation, you might also keep the            |
|     reciprocal projection scheme (i.e. LREAL=.FALSE.).                      |
|                                                                             |
 -----------------------------------------------------------------------------

 -----------------------------------------------------------------------------
|                                                                             |
|               ----> ADVICE to this user running VASP <----                  |
|                                                                             |
|     You enforced a specific xc type in the INCAR file but a different       |
|     type was found in the POTCAR file.                                      |
|     I HOPE YOU KNOW WHAT YOU ARE DOING!                                     |
|                                                                             |
 -----------------------------------------------------------------------------

  PAW_PBE H 15Jun2001                   :
 energy of atom  1       EATOM=  -12.4884
 kinetic energy error for atom=    0.0000 (will be added to EATOM!!)
  PAW_PBE Si 05Jan2001                  :
 energy of atom  2       EATOM= -103.0669
 kinetic energy error for atom=    0.0001 (will be added to EATOM!!)


 POSCAR:  H Si
  positions in cartesian coordinates
  No initial velocities read in


 exchange-correlation table for SCAN
   RHO(1)=    0.500       N(1)  =     2000
   RHO(2)=  100.500       N(2)  =     4000



--------------------------------------------------------------------------------------------------------


 ion  position               nearest neighbor table
   1  0.288  0.095  0.827-  14 0.82
   2  0.118  0.313  0.832-  86 1.44
   3  0.530  0.113  0.717-  91 1.52
   4  0.405  0.289  0.585- 117 1.45
   5  0.079  0.116  0.577-  92 1.49
   6  0.301  0.921  0.352-  59 1.48
   7  0.294  0.230  0.488-  13 0.71
   8  0.217  0.099  0.313-  20 0.72
   9  0.331  0.317  0.181- 109 1.49
  10  0.278  0.110  0.109-  15 0.75
  11  0.400  0.955  0.033-  71 1.42
  12  0.041  0.329  0.055-  64 1.53
  13  0.255  0.202  0.479-   7 0.71
  14  0.283  0.072  0.894-   1 0.82
  15  0.246  0.149  0.124-  10 0.75
  16  0.270  0.058  0.515-  24 0.73
  17  0.316  0.384  0.951-  39 1.45
  18  0.329  0.210  0.957-  26 0.71
  19  0.443  0.014  0.487-  49 1.53
  20  0.261  0.107  0.341-   8 0.72
  21  0.399  0.139  0.395-  75 1.48
  22  0.447  0.111  0.129-  61 1.46
  23  0.337  0.204  0.686-  25 0.74
  24  0.265  0.042  0.576-  16 0.73
  25  0.305  0.165  0.689-  23 0.74
  26  0.368  0.231  0.930-  18 0.71
  27  0.111  0.082  0.156-  74 1.44
  28  0.066  0.741  0.546- 110 2.32  90 2.37  89 2.41 115 2.42
  29  0.476  0.809  0.615-  84 2.38 101 2.41  49 2.44  50 2.48
  30  0.082  0.847  0.013-  35 2.24  48 2.28 102 2.49  70 2.50
  31  0.252  0.470  0.334-  53 2.42  81 2.42 109 2.49  88 2.53
  32  0.293  0.625  0.634- 106 2.29 115 2.34  53 2.40  50 2.46
  33  0.836  0.706  0.105-  43 2.31  44 2.42  99 2.42  41 2.60
  34  0.985  0.335  0.382-  88 2.29  64 2.41 104 2.46  55 2.46
  35  0.968  0.947  0.037-  30 2.24 100 2.33  74 2.37  99 2.39
  36  0.496  0.549  0.455-  53 2.29  42 2.40 101 2.41  65 2.43
  37  0.675  0.483  0.651-  42 2.28  93 2.29  51 2.37 111 2.40
  38  0.626  0.224  0.081-  61 2.28  79 2.33  80 2.39  63 2.55
  39  0.333  0.478  0.985-  17 1.45  67 2.38  81 2.42 106 2.63
  40  0.065  0.473  0.616-  88 2.29 115 2.34  86 2.39 118 2.44
  41  0.981  0.625  0.189-  62 2.27  78 2.30 102 2.34  33 2.60
  42  0.570  0.414  0.530-  37 2.28 116 2.31 117 2.37  36 2.40
  43  0.869  0.707  0.903-  87 2.25  33 2.31 119 2.32  48 2.38
  44  0.697  0.649  0.197-  33 2.42  56 2.44  57 2.46 103 2.54
  45  0.558  0.865  0.308-  96 2.33  49 2.39 105 2.44  56 2.51
  46  0.826  0.388  0.130-  57 2.35  80 2.35  64 2.39  66 2.45 104 3.06
  47  0.651  0.027  0.538-  91 2.29  49 2.37 112 2.38  52 2.56
  48  0.022  0.757  0.865-  97 2.23  30 2.28  43 2.38  89 2.39
  49  0.518  0.940  0.491-  19 1.53  47 2.37  45 2.39  29 2.44
  50  0.307  0.791  0.599-  60 2.23  59 2.43  32 2.46  29 2.48
  51  0.638  0.632  0.723- 119 2.34  37 2.37 101 2.43  72 2.45
  52  0.749  0.032  0.348- 107 2.28  96 2.36  54 2.42  47 2.56
  53  0.343  0.584  0.437-  36 2.29  32 2.40  31 2.42 114 2.53
  54  0.857  0.908  0.321-  99 2.28  68 2.31  85 2.33  52 2.42
  55  0.910  0.208  0.490-  95 2.33  92 2.43  34 2.46 107 2.52
  56  0.666  0.741  0.375-  44 2.44  68 2.46 101 2.48  45 2.51
  57  0.741  0.491  0.247-  46 2.35 104 2.44 116 2.44  44 2.46  80 3.07
  58  0.689  0.927  0.031-  69 2.27 120 2.33  96 2.46  99 2.53
  59  0.261  0.835  0.398-   6 1.48  90 2.35  50 2.43 114 2.45
  60  0.236  0.880  0.733-  50 2.23  70 2.29  89 2.36
  61  0.534  0.129  0.188-  22 1.46  38 2.28  96 2.45  75 2.55
  62  0.975  0.566  0.376-  41 2.27 110 2.28 104 2.30  88 2.49
  63  0.576  0.376  0.991- 111 2.32  67 2.45  38 2.55
  64  0.982  0.343  0.167-  12 1.53  46 2.39  34 2.41 108 2.50  78 2.54
  65  0.489  0.458  0.273-  67 2.31  36 2.43 116 2.49 109 2.51
  66  0.820  0.421  0.916- 111 2.28  87 2.31  77 2.39  46 2.45
  67  0.480  0.499  0.074-  65 2.31 103 2.33  39 2.38  63 2.45
  68  0.820  0.786  0.444-  54 2.31  82 2.36 110 2.40  56 2.46
  69  0.756  0.016  0.889-  58 2.27  79 2.31 112 2.31 100 2.34 120 2.85
  70  0.242  0.840  0.931-  60 2.29  83 2.36  71 2.45  30 2.50
  71  0.399  0.859  0.010-  11 1.42 105 2.44  70 2.45  84 2.57
  72  0.513  0.658  0.866-  84 2.25 106 2.41  51 2.45 103 2.47
  73  0.955  0.955  0.674-  89 2.37  92 2.38 100 2.46  82 2.56
  74  0.025  0.043  0.192-  27 1.44  85 2.21 108 2.32  35 2.37
  75  0.454  0.218  0.355-  21 1.48 109 2.32 117 2.35  61 2.55
  76  0.703  0.228  0.744-  91 2.29  79 2.34  95 2.40 111 2.71
  77  0.920  0.312  0.824-  86 2.28  66 2.39  95 2.40  94 2.44
  78  0.056  0.497  0.119-  41 2.30  98 2.34  81 2.36  64 2.54
  79  0.725  0.167  0.935-  69 2.31  38 2.33  76 2.34  94 2.46
  80  0.732  0.281  0.227- 107 2.27  46 2.35  38 2.39 116 2.48  57 3.07
  81  0.216  0.515  0.131- 113 2.22  78 2.36  39 2.42  31 2.42
  82  0.815  0.852  0.636- 112 2.26  68 2.36 119 2.41  73 2.56
  83  0.268  0.680  0.928-  97 2.32 113 2.35  70 2.36 106 2.39
  84  0.492  0.808  0.827-  72 2.25 120 2.32  29 2.38  71 2.57
  85  0.003  0.967  0.361-  74 2.21  54 2.33  92 2.41  90 2.44
  86  0.056  0.385  0.796-   2 1.44  98 2.28  77 2.28  40 2.39
  87  0.891  0.557  0.866-  43 2.25  66 2.31  98 2.33 118 2.41
  88  0.092  0.446  0.418-  40 2.29  34 2.29  62 2.49  31 2.53
  89  0.078  0.851  0.707-  60 2.36  73 2.37  48 2.39  28 2.41
  90  0.100  0.831  0.375-  59 2.35  28 2.37  85 2.44 102 2.53
  91  0.595  0.156  0.628-   3 1.52  47 2.29  76 2.29 117 2.34
  92  0.995  0.068  0.531-   5 1.49  73 2.38  85 2.41  55 2.43
  93  0.817  0.441  0.582-  37 2.29 104 2.30  95 2.36 118 2.43
  94  0.892  0.183  0.957- 108 2.37  77 2.44  79 2.46 100 2.55
  95  0.835  0.288  0.643-  55 2.33  93 2.36  77 2.40  76 2.40
  96  0.628  0.991  0.218-  45 2.33  52 2.36  61 2.45  58 2.46
  97  0.124  0.643  0.855-  48 2.23 115 2.28  83 2.32  98 2.33
  98  0.041  0.513  0.912-  86 2.28  97 2.33  87 2.33  78 2.34
  99  0.838  0.872  0.124-  54 2.28  35 2.39  33 2.42  58 2.53
 100  0.915  0.023  0.868-  35 2.33  69 2.34  73 2.46  94 2.55
 101  0.567  0.684  0.538-  29 2.41  36 2.41  51 2.43  56 2.48
 102  0.094  0.738  0.184-  41 2.34 113 2.39  30 2.49  90 2.53
 103  0.548  0.644  0.082-  67 2.33 105 2.42  72 2.47  44 2.54
 104  0.865  0.453  0.386-  62 2.30  93 2.30  57 2.44  34 2.46  46 3.06
 105  0.466  0.770  0.173- 114 2.42 103 2.42  45 2.44  71 2.44
 106  0.369  0.590  0.807-  32 2.29  83 2.39  72 2.41  39 2.63
 107  0.820  0.167  0.305-  80 2.27  52 2.28 108 2.40  55 2.52
 108  0.941  0.177  0.159-  74 2.32  94 2.37 107 2.40  64 2.50
 109  0.363  0.343  0.304-   9 1.49  75 2.32  31 2.49  65 2.51
 110  0.925  0.670  0.513-  62 2.28 118 2.29  28 2.32  68 2.40
 111  0.678  0.399  0.835-  66 2.28  63 2.32  37 2.40  76 2.71
 112  0.710  0.951  0.710-  82 2.26 120 2.30  69 2.31  47 2.38
 113  0.237  0.666  0.133-  81 2.22 114 2.34  83 2.35 102 2.39
 114  0.337  0.713  0.285- 113 2.34 105 2.42  59 2.45  53 2.53
 115  0.134  0.615  0.655-  97 2.28  40 2.34  32 2.34  28 2.42
 116  0.633  0.386  0.344-  42 2.31  57 2.44  80 2.48  65 2.49
 117  0.498  0.268  0.546-   4 1.45  91 2.34  75 2.35  42 2.37
 118  0.923  0.557  0.655- 110 2.29  87 2.41  93 2.43  40 2.44
 119  0.752  0.739  0.769-  43 2.32  51 2.34  82 2.41 120 2.55
 120  0.642  0.859  0.852- 112 2.30  84 2.32  58 2.33 119 2.55  69 2.85

  LATTYP: Found a simple tetragonal cell.
 ALAT       =    14.5722492107
 C/A-ratio  =     0.7677040711
  
  Lattice vectors:
  
 A1 = (  14.5722492107,   0.0000000000,   0.0000000000)
 A2 = (   0.0000000000,  14.5722492107,   0.0000000000)
 A3 = (   0.0000000000,   0.0000000000,  11.1871750447)


Analysis of symmetry for initial positions (statically):
=====================================================================
 Subroutine PRICEL returns:
 Original cell was already a primitive cell.
 

 Routine SETGRP: Setting up the symmetry group for a 
 simple tetragonal supercell.


 Subroutine GETGRP returns: Found  1 space group operations
 (whereof  1 operations were pure point group operations)
 out of a pool of 16 trial point group operations.


The static configuration has the point symmetry C_1 .


Analysis of symmetry for dynamics (positions and initial velocities):
=====================================================================
 Subroutine PRICEL returns:
 Original cell was already a primitive cell.
 

 Routine SETGRP: Setting up the symmetry group for a 
 simple tetragonal supercell.


 Subroutine GETGRP returns: Found  1 space group operations
 (whereof  1 operations were pure point group operations)
 out of a pool of 16 trial point group operations.


The dynamic configuration has the point symmetry C_1 .


 Subroutine INISYM returns: Found  1 space group operations
 (whereof  1 operations are pure point group operations),
 and found     1 'primitive' translations


----------------------------------------------------------------------------------------

                                     Primitive cell                                     

  volume of cell :    2375.6016

  direct lattice vectors                    reciprocal lattice vectors
    14.572249211  0.000000000  0.000000000     0.068623586  0.000000000  0.000000000
     0.000000000 14.572249211  0.000000000     0.000000000  0.068623586  0.000000000
     0.000000000  0.000000000 11.187175045     0.000000000  0.000000000  0.089388071

  length of vectors
    14.572249211 14.572249211 11.187175045     0.068623586  0.068623586  0.089388071

  position of ions in fractional coordinates (direct lattice)
     0.287519102  0.094609966  0.826903125
     0.117893949  0.313473228  0.831724717
     0.529500277  0.113393614  0.717298153
     0.405262764  0.288846282  0.584829501
     0.079099663  0.115687014  0.577307495
     0.300854037  0.921388305  0.352408895
     0.293852372  0.229954892  0.487688802
     0.217235511  0.098914723  0.312932441
     0.331333889  0.317375851  0.181496222
     0.277813668  0.110147718  0.109020373
     0.400111878  0.955082486  0.032960779
     0.040508434  0.329189402  0.055037755
     0.254867999  0.201918040  0.479428451
     0.282800544  0.072020454  0.894095244
     0.246451316  0.149399037  0.124159137
     0.269744220  0.057680183  0.515334745
     0.316431591  0.383513891  0.950901363
     0.329471445  0.209705445  0.956935058
     0.442828002  0.013641889  0.486805648
     0.260828644  0.107290918  0.341212146
     0.398652254  0.139107558  0.395480538
     0.446591319  0.111002768  0.129022742
     0.337129837  0.203953416  0.686295689
     0.265066837  0.041670369  0.576440431
     0.304584415  0.165291573  0.689331307
     0.368036528  0.230863469  0.930413617
     0.111148250  0.082493099  0.156273589
     0.065734190  0.741333739  0.545554170
     0.476051425  0.808845624  0.614751264
     0.082495844  0.846581734  0.012507626
     0.251876697  0.470204009  0.334238982
     0.293225839  0.625440168  0.634287027
     0.836144086  0.706397472  0.104927294
     0.985324900  0.334839868  0.382275238
     0.968038619  0.947396644  0.037270446
     0.495540523  0.548701157  0.454521359
     0.674860816  0.483490222  0.650595881
     0.626493540  0.223977092  0.081181442
     0.333061144  0.477910438  0.985083362
     0.064801870  0.473178842  0.616207396
     0.980644772  0.624557669  0.188817105
     0.569953195  0.413833850  0.529959527
     0.869117719  0.707317028  0.903105561
     0.697476406  0.649015115  0.196803929
     0.558097785  0.864739535  0.307815868
     0.826392675  0.388036186  0.130156183
     0.651164406  0.026798059  0.538146581
     0.021924344  0.756801496  0.865326587
     0.518122487  0.940067645  0.490711907
     0.307120056  0.791229949  0.599422104
     0.637696341  0.631972448  0.722565792
     0.748902921  0.031909075  0.348390008
     0.343170771  0.584296897  0.436979843
     0.857492884  0.907629276  0.320888874
     0.909976203  0.208015246  0.489910990
     0.666457172  0.740983759  0.374641496
     0.741018071  0.490675797  0.247431545
     0.689227850  0.926706633  0.030688087
     0.260558267  0.835334328  0.398489340
     0.235872304  0.879582816  0.733141295
     0.534049335  0.128756376  0.188363907
     0.974750006  0.565831663  0.376360429
     0.576324209  0.376254202  0.990911464
     0.981653538  0.343161164  0.167315698
     0.488680223  0.457888134  0.273069831
     0.819619527  0.421297352  0.915628830
     0.480159233  0.498810437  0.073698319
     0.820436147  0.785945933  0.443615120
     0.756128985  0.015819315  0.888526367
     0.242475266  0.839547816  0.931155538
     0.398575396  0.858982016  0.009694226
     0.513351089  0.657694626  0.866247284
     0.955034449  0.955061899  0.673944939
     0.024716294  0.043287209  0.191989487
     0.454019822  0.218472794  0.354510409
     0.702973155  0.227912655  0.743767749
     0.919658991  0.312349174  0.824109747
     0.055576047  0.496664578  0.118997870
     0.724795455  0.166961871  0.934865143
     0.731904859  0.280699290  0.227388057
     0.216276153  0.515396758  0.130897210
     0.815268791  0.852325528  0.635666285
     0.268163819  0.679575257  0.928411324
     0.492436679  0.807740784  0.826611719
     0.002708882  0.966974953  0.360502985
     0.056314848  0.385471036  0.796124130
     0.891461559  0.557436253  0.866249966
     0.092430481  0.446465738  0.417986666
     0.077803363  0.851069716  0.706537617
     0.100006525  0.831127702  0.375108996
     0.594732486  0.156426092  0.627717898
     0.995488053  0.068319515  0.530575411
     0.816737336  0.441245542  0.581548959
     0.891626256  0.182772060  0.957435631
     0.835423539  0.287631644  0.642638555
     0.628139820  0.991253978  0.218062200
     0.123964391  0.643085351  0.854975448
     0.041255196  0.513399125  0.911534857
     0.837976336  0.872157744  0.123796222
     0.915411191  0.023491981  0.867900963
     0.566801314  0.683651498  0.538193957
     0.094301846  0.738307439  0.183910593
     0.547666313  0.643952067  0.081678171
     0.864684636  0.452722150  0.385865957
     0.466249232  0.770471314  0.172876530
     0.369485172  0.589940501  0.806935617
     0.820257726  0.167237052  0.304763266
     0.941083274  0.176807297  0.159235016
     0.362674967  0.342610803  0.303702229
     0.925361611  0.670382441  0.513013337
     0.678171904  0.398740779  0.834570833
     0.709725716  0.950786649  0.710247222
     0.236592166  0.666033078  0.133454603
     0.336794268  0.713081409  0.285332087
     0.133727469  0.615039578  0.654743487
     0.633364820  0.386019338  0.344252234
     0.497950584  0.268457528  0.545836637
     0.922836263  0.556846777  0.654663932
     0.752032157  0.738760355  0.768987699
     0.642303042  0.858831044  0.852147210

  ion indices of the primitive-cell ions
   primitive index   ion index
                 1           1
                 2           2
                 3           3
                 4           4
                 5           5
                 6           6
                 7           7
                 8           8
                 9           9
                10          10
                11          11
                12          12
                13          13
                14          14
                15          15
                16          16
                17          17
                18          18
                19          19
                20          20
                21          21
                22          22
                23          23
                24          24
                25          25
                26          26
                27          27
                28          28
                29          29
                30          30
                31          31
                32          32
                33          33
                34          34
                35          35
                36          36
                37          37
                38          38
                39          39
                40          40
                41          41
                42          42
                43          43
                44          44
                45          45
                46          46
                47          47
                48          48
                49          49
                50          50
                51          51
                52          52
                53          53
                54          54
                55          55
                56          56
                57          57
                58          58
                59          59
                60          60
                61          61
                62          62
                63          63
                64          64
                65          65
                66          66
                67          67
                68          68
                69          69
                70          70
                71          71
                72          72
                73          73
                74          74
                75          75
                76          76
                77          77
                78          78
                79          79
                80          80
                81          81
                82          82
                83          83
                84          84
                85          85
                86          86
                87          87
                88          88
                89          89
                90          90
                91          91
                92          92
                93          93
                94          94
                95          95
                96          96
                97          97
                98          98
                99          99
               100         100
               101         101
               102         102
               103         103
               104         104
               105         105
               106         106
               107         107
               108         108
               109         109
               110         110
               111         111
               112         112
               113         113
               114         114
               115         115
               116         116
               117         117
               118         118
               119         119
               120         120

----------------------------------------------------------------------------------------


 -----------------------------------------------------------------------------
|                                                                             |
|           W    W    AA    RRRRR   N    N  II  N    N   GGGG   !!!           |
|           W    W   A  A   R    R  NN   N  II  NN   N  G    G  !!!           |
|           W    W  A    A  R    R  N N  N  II  N N  N  G       !!!           |
|           W WW W  AAAAAA  RRRRR   N  N N  II  N  N N  G  GGG   !            |
|           WW  WW  A    A  R   R   N   NN  II  N   NN  G    G                |
|           W    W  A    A  R    R  N    N  II  N    N   GGGG   !!!           |
|                                                                             |
|     The requested file  could not be found or opened for reading            |
|     k-point information. Automatic k-point generation is used as a          |
|     fallback, which may lead to unwanted results.                           |
|                                                                             |
 -----------------------------------------------------------------------------



Automatic generation of k-mesh.
 Grid dimensions derived from KSPACING:
 generate k-points for:    2    2    3

 Generating k-lattice:

  Cartesian coordinates                     Fractional coordinates (reciprocal lattice)
     0.034311793  0.000000000  0.000000000     0.500000000  0.000000000  0.000000000
     0.000000000  0.034311793  0.000000000     0.000000000  0.500000000  0.000000000
     0.000000000  0.000000000  0.029796024     0.000000000  0.000000000  0.333333333

  Length of vectors
     0.034311793  0.034311793  0.029796024

  Shift w.r.t. Gamma in fractional coordinates (k-lattice)
     0.000000000  0.000000000  0.000000000

 
 Subroutine IBZKPT returns following result:
 ===========================================
 
 Found      8 irreducible k-points:
 
 Following reciprocal coordinates:
            Coordinates               Weight
  0.000000  0.000000  0.000000      1.000000
  0.500000  0.000000  0.000000      1.000000
  0.000000  0.500000  0.000000      1.000000
  0.500000  0.500000  0.000000      1.000000
  0.000000  0.000000  0.333333      2.000000
  0.500000  0.000000  0.333333      2.000000
  0.000000  0.500000  0.333333      2.000000
  0.500000  0.500000  0.333333      2.000000
 
 Following cartesian coordinates:
            Coordinates               Weight
  0.000000  0.000000  0.000000      1.000000
  0.034312  0.000000  0.000000      1.000000
  0.000000  0.034312  0.000000      1.000000
  0.034312  0.034312  0.000000      1.000000
  0.000000  0.000000  0.029796      2.000000
  0.034312  0.000000  0.029796      2.000000
  0.000000  0.034312  0.029796      2.000000
  0.034312  0.034312  0.029796      2.000000
 


--------------------------------------------------------------------------------------------------------




 Dimension of arrays:
   k-points           NKPTS =      8   k-points in BZ     NKDIM =      8   number of bands    NBANDS=    264
   number of dos      NEDOS =   2000   number of ions     NIONS =    120
   non local maximal  LDIM  =      4   non local SUM 2l+1 LMDIM =      8
   total plane-waves  NPLWV = ******
   max r-space proj   IRMAX =      1   max aug-charges    IRDMAX= 400564
   dimension x,y,z NGX =   168 NGY =  168 NGZ =  126
   dimension x,y,z NGXF=   336 NGYF=  336 NGZF=  252
   support grid    NGXF=   672 NGYF=  672 NGZF=  504
   ions per type =              27  93
   NGX,Y,Z   is equivalent  to a cutoff of  19.17, 19.17, 18.72 a.u.
   NGXF,Y,Z  is equivalent  to a cutoff of  38.33, 38.33, 37.45 a.u.

 SYSTEM =  a-Si SPC                                
 POSCAR =   H Si                                   

 Startparameter for this run:
   NWRITE =      2    write-flag & timer
   PREC   = accura    normal or accurate (medium, high low for compatibility)
   ISTART =      1    job   : 0-new  1-cont  2-samecut
   ICHARG =      1    charge: 1-file 2-atom 10-const
   ISPIN  =      1    spin polarized calculation?
   LNONCOLLINEAR =      F non collinear calculations
   LSORBIT =      F    spin-orbit coupling
   INIWAV =      1    electr: 0-lowe 1-rand  2-diag
   LASPH  =      T    aspherical Exc in radial PAW
 Electronic Relaxation 1
   ENCUT  = 1200.0 eV  88.20 Ry    9.39 a.u.  41.16 41.16 31.60*2*pi/ulx,y,z
   ENINI  = 1200.0     initial cutoff
   ENAUG  =  400.0 eV  augmentation charge cutoff
   NELM   =    150;   NELMIN=  2; NELMDL=  0     # of ELM steps 
   EDIFF  = 0.1E-05   stopping-criterion for ELM
   LREAL  =      F    real-space projection
   NLSPLINE    = F    spline interpolate recip. space projectors
   LCOMPAT=      F    compatible to vasp.4.4
   GGA_COMPAT  = T    GGA compatible to vasp.4.4-vasp.4.6
   LMAXPAW     = -100 max onsite density
   LMAXMIX     =    2 max onsite mixed and CHGCAR
   VOSKOWN=      0    Vosko Wilk Nusair interpolation
   ROPT   =    0.00000   0.00000
 Ionic relaxation
   EDIFFG = -.1E-01   stopping-criterion for IOM
   NSW    =      0    number of steps for IOM
   NBLOCK =      1;   KBLOCK =      1    inner block; outer block 
   IBRION =     -1    ionic relax: 0-MD 1-quasi-New 2-CG
   NFREE  =      0    steps in history (QN), initial steepest desc. (CG)
   ISIF   =      2    stress and relaxation
   IWAVPR =     10    prediction:  0-non 1-charg 2-wave 3-comb
   ISYM   =      1    0-nonsym 1-usesym 2-fastsym
   LCORR  =      T    Harris-Foulkes like correction to forces

   POTIM  = 0.5000    time-step for ionic-motion
   TEIN   =    0.0    initial temperature
   TEBEG  =    0.0;   TEEND  =   0.0 temperature during run
   SMASS  =  -3.00    Nose mass-parameter (am)
   estimated Nose-frequenzy (Omega)   =  0.10E-29 period in steps = 0.13E+47 mass=  -0.485E-26a.u.
   SCALEE = 1.0000    scale energy and forces
   NPACO  =    256;   APACO  = 10.0  distance and # of slots for P.C.
   PSTRESS=    0.0 pullay stress

  Mass of Ions in am
   POMASS =   1.00 28.09
  Ionic Valenz
   ZVAL   =   1.00  4.00
  Atomic Wigner-Seitz radii
   RWIGS  =  -1.00 -1.00
  virtual crystal weights 
   VCA    =   1.00  1.00
   NELECT =     399.0000    total number of electrons
   NUPDOWN=      -1.0000    fix difference up-down

 DOS related values:
   EMIN   =  10.00;   EMAX   =-10.00  energy-range for DOS
   EFERMI =   0.00;   METHOD = LEGACY      
   ISMEAR =     0;   SIGMA  =   0.10  broadening in eV -4-tet -1-fermi 0-gaus
   EFERMI_NEDOS =   21; number of points for ismear=-14 and -15

 Electronic relaxation 2 (details)
   IALGO  =     38    algorithm
   LDIAG  =      F    sub-space diagonalisation (order eigenvalues)
   LSUBROT=      F    optimize rotation matrix (better conditioning)
   TURBO    =      0    0=normal 1=particle mesh
   IRESTART =      0    0=no restart 2=restart with 2 vectors
   NREBOOT  =      0    no. of reboots
   NMIN     =      0    reboot dimension
   EREF     =   0.00    reference energy to select bands
   IMIX   =      4    mixing-type and parameters
     AMIX     =   0.40;   BMIX     =  1.00
     AMIX_MAG =   1.60;   BMIX_MAG =  1.00
     AMIN     =   0.10
     WC   =   100.;   INIMIX=   1;  MIXPRE=   1;  MAXMIX= -45

 Intra band minimization:
   WEIMIN = 0.0000     energy-eigenvalue tresh-hold
   EBREAK =  0.95E-09  absolut break condition
   DEPER  =   0.30     relativ break condition  

   TIME   =   0.40     timestep for ELM

  volume/ion in A,a.u.               =      19.80       133.59
  Fermi-wavevector in a.u.,A,eV,Ry     =   0.903250  1.706895 11.100455  0.815860
  Thomas-Fermi vector in A             =   2.026552

 Write flags
   LWAVE        =      F    write WAVECAR
   LDOWNSAMPLE  =      F    k-point downsampling of WAVECAR
   LCHARG       =      F    write CHGCAR
   LVTOT        =      F    write LOCPOT, total local potential
   LVHAR        =      F    write LOCPOT, Hartree potential only
   WRT_POTENTIAL= false  ! write potential to hdf5 file
   LELF         =      F    write electronic localiz. function (ELF)
   LORBIT       =     11    0 simple, 1 ext, 2 COOP (PROOUT), +10 PAW based schemes


 Python interface
   PLUGINS active      =      F    recompile with -DPLUGINS to activate

 Dipole corrections
   LMONO      =      F    monopole corrections only (constant potential shift)
   LDIPOL     =      F    correct potential (dipole corrections)
   IDIPOL     =      0    1-x, 2-y, 3-z, 4-all directions 
   EPSILON    =  1.0000000 bulk dielectric constant
   LVACPOTAV  =      F  vacuum potentials using an averaging scheme for the charge density
   VACPOTFLAT =  0.1000000 required flatness to determine vacuum potential

Coulomb truncation method
  LTRUNCATE          =      F  Coulomb kernel truncation to be used
  IDIMENSIONALITY    =      3  Dimensionality of cutoff (0 molecules / 2 surfaces)
  ISURFACE           =     -1  Direction of surface normal
  LCOARSEN           =      F  Coarsen the charge grid before padding, preferred


 Exchange correlation treatment:
   METAGGA = SCAN    functional components
   XC_C    = 1    coefficients multiplying the functional components
   LIBXC   =     F    Libxc                    
   VOSKOWN =     0    Vosko Wilk Nusair interpolation
   LHFCALC =     F    Hartree Fock is set to
   LHFONE  =     F    Hartree Fock one center treatment
   AEXX    =    0.0000 exact exchange contribution

 Parameters of functionals:
   SCAN:
     P1 =  0.000000E+00
     P2 =  0.000000E+00
     P3 =  0.000000E+00

 Accuracy and mixing parameters for tau-dependent meta-GGA functionals:
   LMAXTAU = 6
   LMIXTAU = T

 Van der Waals corrections
   IVDW    =     0    specifies the selected vdW correction

 Linear response parameters
   LEPSILON=     F    determine dielectric tensor
   LRPA    =     F    only Hartree local field effects (RPA)
   LNABLA  =     F    use nabla operator in PAW spheres
   LVEL    =     F    velocity operator in full k-point grid
   CSHIFT  =0.1000    complex shift for real part using Kramers Kronig
   OMEGAMAX=  -1.0    maximum frequency
   DEG_THRESHOLD= 0.2000000E-02 threshold for treating states as degnerate
   RTIME   =   -0.100 relaxation time in fs
  (WPLASMAI=    0.000 imaginary part of plasma frequency in eV, 0.658/RTIME)
   DFIELD  = 0.0000000 0.0000000 0.0000000 field for delta impulse in time

  Optional k-point grid parameters
   LKPOINTS_OPT  =     F    use optional k-point grid
   KPOINTS_OPT_MODE=     1    mode for optional k-point grid

 Orbital magnetization related:
   ORBITALMAG=     F  switch on orbital magnetization
   LCHIMAG   =     F  perturbation theory with respect to B field
   DQ        =  0.001000  dq finite difference perturbation B field
   LLRAUG    =     F  two centre corrections for induced B field
   LBONE     =     F  B-component reconstruction in AE one-centre
   LVGVCALC  =     T  calculate vGv susceptibility
   LVGVAPPL  =     F  apply vGv susceptibility instead of pGv for G=0

 Random number generation:
   RANDOM_GENERATOR = DEFAULT
   PCG_SEED         = not used


--------------------------------------------------------------------------------------------------------


 Static calculation
 charge density and potential will be updated during run
 non-spin polarized calculation
 Variant of blocked Davidson
 perform Loewdin sub-space diagonalisation
    ordering is kept fixed
    before iterative eigenvector-optimisation
 modified Broyden-mixing scheme, WC =      100.0
 initial mixing is a Kerker type mixing with AMIX =  0.4000 and BMIX =      1.0000
 Hartree-type preconditioning will be used
 using additional bands           64
 reciprocal scheme for non local part
 use partial core corrections
 calculate Harris-corrections to forces   (improved forces if not selfconsistent)
 use gradient corrections 
 use of overlap-Matrix (Vanderbilt PP)
 Gauss-broadening in eV      SIGMA  =   0.10


--------------------------------------------------------------------------------------------------------


  energy-cutoff  :     1200.00
  volume of cell :     2375.60
      direct lattice vectors                 reciprocal lattice vectors
    14.572249211  0.000000000  0.000000000     0.068623586  0.000000000  0.000000000
     0.000000000 14.572249211  0.000000000     0.000000000  0.068623586  0.000000000
     0.000000000  0.000000000 11.187175045     0.000000000  0.000000000  0.089388071

  length of vectors
    14.572249211 14.572249211 11.187175045     0.068623586  0.068623586  0.089388071



 old parameters found on file WAVECAR:
  energy-cutoff  :     1200.00
  volume of cell :     2375.60
      direct lattice vectors                 reciprocal lattice vectors
    14.572249211  0.000000000  0.000000000     0.068623586  0.000000000  0.000000000
     0.000000000 14.572249211  0.000000000     0.000000000  0.068623586  0.000000000
     0.000000000  0.000000000 11.187175045     0.000000000  0.000000000  0.089388071

  length of vectors


 k-points in units of 2pi/SCALE and weight: read from INCAR                         
   0.00000000  0.00000000  0.00000000       0.083
   0.03431179  0.00000000  0.00000000       0.083
   0.00000000  0.03431179  0.00000000       0.083
   0.03431179  0.03431179  0.00000000       0.083
   0.00000000  0.00000000  0.02979602       0.167
   0.03431179  0.00000000  0.02979602       0.167
   0.00000000  0.03431179  0.02979602       0.167
   0.03431179  0.03431179  0.02979602       0.167

 k-points in reciprocal lattice and weights: read from INCAR                         
   0.00000000  0.00000000  0.00000000       0.083
   0.50000000  0.00000000  0.00000000       0.083
   0.00000000  0.50000000  0.00000000       0.083
   0.50000000  0.50000000  0.00000000       0.083
   0.00000000  0.00000000  0.33333333       0.167
   0.50000000  0.00000000  0.33333333       0.167
   0.00000000  0.50000000  0.33333333       0.167
   0.50000000  0.50000000  0.33333333       0.167

 position of ions in fractional coordinates (direct lattice) 
   0.28751910  0.09460997  0.82690312
   0.11789395  0.31347323  0.83172472
   0.52950028  0.11339361  0.71729815
   0.40526276  0.28884628  0.58482950
   0.07909966  0.11568701  0.57730749
   0.30085404  0.92138830  0.35240890
   0.29385237  0.22995489  0.48768880
   0.21723551  0.09891472  0.31293244
   0.33133389  0.31737585  0.18149622
   0.27781367  0.11014772  0.10902037
   0.40011188  0.95508249  0.03296078
   0.04050843  0.32918940  0.05503776
   0.25486800  0.20191804  0.47942845
   0.28280054  0.07202045  0.89409524
   0.24645132  0.14939904  0.12415914
   0.26974422  0.05768018  0.51533475
   0.31643159  0.38351389  0.95090136
   0.32947144  0.20970544  0.95693506
   0.44282800  0.01364189  0.48680565
   0.26082864  0.10729092  0.34121215
   0.39865225  0.13910756  0.39548054
   0.44659132  0.11100277  0.12902274
   0.33712984  0.20395342  0.68629569
   0.26506684  0.04167037  0.57644043
   0.30458441  0.16529157  0.68933131
   0.36803653  0.23086347  0.93041362
   0.11114825  0.08249310  0.15627359
   0.06573419  0.74133374  0.54555417
   0.47605142  0.80884562  0.61475126
   0.08249584  0.84658173  0.01250763
   0.25187670  0.47020401  0.33423898
   0.29322584  0.62544017  0.63428703
   0.83614409  0.70639747  0.10492729
   0.98532490  0.33483987  0.38227524
   0.96803862  0.94739664  0.03727045
   0.49554052  0.54870116  0.45452136
   0.67486082  0.48349022  0.65059588
   0.62649354  0.22397709  0.08118144
   0.33306114  0.47791044  0.98508336
   0.06480187  0.47317884  0.61620740
   0.98064477  0.62455767  0.18881710
   0.56995320  0.41383385  0.52995953
   0.86911772  0.70731703  0.90310556
   0.69747641  0.64901512  0.19680393
   0.55809778  0.86473953  0.30781587
   0.82639267  0.38803619  0.13015618
   0.65116441  0.02679806  0.53814658
   0.02192434  0.75680150  0.86532659
   0.51812249  0.94006765  0.49071191
   0.30712006  0.79122995  0.59942210
   0.63769634  0.63197245  0.72256579
   0.74890292  0.03190908  0.34839001
   0.34317077  0.58429690  0.43697984
   0.85749288  0.90762928  0.32088887
   0.90997620  0.20801525  0.48991099
   0.66645717  0.74098376  0.37464150
   0.74101807  0.49067580  0.24743154
   0.68922785  0.92670663  0.03068809
   0.26055827  0.83533433  0.39848934
   0.23587230  0.87958282  0.73314130
   0.53404933  0.12875638  0.18836391
   0.97475001  0.56583166  0.37636043
   0.57632421  0.37625420  0.99091146
   0.98165354  0.34316116  0.16731570
   0.48868022  0.45788813  0.27306983
   0.81961953  0.42129735  0.91562883
   0.48015923  0.49881044  0.07369832
   0.82043615  0.78594593  0.44361512
   0.75612898  0.01581931  0.88852637
   0.24247527  0.83954782  0.93115554
   0.39857540  0.85898202  0.00969423
   0.51335109  0.65769463  0.86624728
   0.95503445  0.95506190  0.67394494
   0.02471629  0.04328721  0.19198949
   0.45401982  0.21847279  0.35451041
   0.70297315  0.22791265  0.74376775
   0.91965899  0.31234917  0.82410975
   0.05557605  0.49666458  0.11899787
   0.72479546  0.16696187  0.93486514
   0.73190486  0.28069929  0.22738806
   0.21627615  0.51539676  0.13089721
   0.81526879  0.85232553  0.63566628
   0.26816382  0.67957526  0.92841132
   0.49243668  0.80774078  0.82661172
   0.00270888  0.96697495  0.36050299
   0.05631485  0.38547104  0.79612413
   0.89146156  0.55743625  0.86624997
   0.09243048  0.44646574  0.41798667
   0.07780336  0.85106972  0.70653762
   0.10000652  0.83112770  0.37510900
   0.59473249  0.15642609  0.62771790
   0.99548805  0.06831952  0.53057541
   0.81673734  0.44124554  0.58154896
   0.89162626  0.18277206  0.95743563
   0.83542354  0.28763164  0.64263855
   0.62813982  0.99125398  0.21806220
   0.12396439  0.64308535  0.85497545
   0.04125520  0.51339913  0.91153486
   0.83797634  0.87215774  0.12379622
   0.91541119  0.02349198  0.86790096
   0.56680131  0.68365150  0.53819396
   0.09430185  0.73830744  0.18391059
   0.54766631  0.64395207  0.08167817
   0.86468464  0.45272215  0.38586596
   0.46624923  0.77047131  0.17287653
   0.36948517  0.58994050  0.80693562
   0.82025773  0.16723705  0.30476327
   0.94108327  0.17680730  0.15923502
   0.36267497  0.34261080  0.30370223
   0.92536161  0.67038244  0.51301334
   0.67817190  0.39874078  0.83457083
   0.70972572  0.95078665  0.71024722
   0.23659217  0.66603308  0.13345460
   0.33679427  0.71308141  0.28533209
   0.13372747  0.61503958  0.65474349
   0.63336482  0.38601934  0.34425223
   0.49795058  0.26845753  0.54583664
   0.92283626  0.55684678  0.65466393
   0.75203216  0.73876035  0.76898770
   0.64230304  0.85883104  0.85214721

 position of ions in cartesian coordinates  (Angst):
   4.18980000  1.37868000  9.25071000
   1.71798000  4.56801000  9.30465000
   7.71601000  1.65240000  8.02454000
   5.90559000  4.20914000  6.54259000
   1.15266000  1.68582000  6.45844000
   4.38412000 13.42670000  3.94246000
   4.28209000  3.35096000  5.45586000
   3.16561000  1.44141000  3.50083000
   4.82828000  4.62488000  2.03043000
   4.04837000  1.60510000  1.21963000
   5.83053000 13.91770000  0.36873800
   0.59029900  4.79703000  0.61571700
   3.71400000  2.94240000  5.36345000
   4.12104000  1.04950000 10.00240000
   3.59135000  2.17708000  1.38899000
   3.93078000  0.84053000  5.76514000
   4.61112000  5.58866000 10.63790000
   4.80114000  3.05588000 10.70540000
   6.45300000  0.19879300  5.44598000
   3.80086000  1.56347000  3.81720000
   5.80926000  2.02711000  4.42431000
   6.50784000  1.61756000  1.44340000
   4.91274000  2.97206000  7.67771000
   3.86262000  0.60723100  6.44874000
   4.43848000  2.40867000  7.71167000
   5.36312000  3.36420000 10.40870000
   1.61968000  1.20211000  1.74826000
   0.95789500 10.80290000  6.10321000
   6.93714000 11.78670000  6.87733000
   1.20215000 12.33660000  0.13992500
   3.67041000  6.85193000  3.73919000
   4.27296000  9.11407000  7.09588000
  12.18450000 10.29380000  1.17384000
  14.35840000  4.87937000  4.27658000
  14.10650000 13.80570000  0.41695100
   7.22114000  7.99581000  5.08481000
   9.83424000  7.04554000  7.27833000
   9.12942000  3.26385000  0.90819100
   4.85345000  6.96423000 11.02030000
   0.94430900  6.89528000  6.89362000
  14.29020000  9.10121000  2.11233000
   8.30550000  6.03049000  5.92875000
  12.66500000 10.30720000 10.10320000
  10.16380000  9.45761000  2.20168000
   8.13274000 12.60120000  3.44359000
  12.04240000  5.65456000  1.45608000
   9.48893000  0.39050800  6.02034000
   0.31948700 11.02830000  9.68056000
   7.55021000 13.69890000  5.48968000
   4.47543000 11.53000000  6.70584000
   9.29267000  9.20926000  8.08347000
  10.91320000  0.46498700  3.89750000
   5.00077000  8.51452000  4.88857000
  12.49560000 13.22620000  3.58984000
  13.26040000  3.03125000  5.48072000
   9.71178000 10.79780000  4.19118000
  10.79830000  7.15025000  2.76806000
  10.04360000 13.50420000  0.34331300
   3.79692000 12.17270000  4.45797000
   3.43719000 12.81750000  8.20178000
   7.78230000  1.87627000  2.10726000
  14.20430000  8.24544000  4.21041000
   8.39834000  5.48287000 11.08550000
  14.30490000  5.00063000  1.87179000
   7.12117000  6.67246000  3.05488000
  11.94370000  6.13925000 10.24330000
   6.99700000  7.26879000  0.82447600
  11.95560000 11.45300000  4.96280000
  11.01850000  0.23052300  9.94010000
   3.53341000 12.23410000 10.41700000
   5.80814000 12.51730000  0.10845100
   7.48068000  9.58409000  9.69086000
  13.91700000 13.91740000  7.53954000
   0.36017200  0.63079200  2.14782000
   6.61609000  3.18364000  3.96597000
  10.24390000  3.32120000  8.32066000
  13.40150000  4.55163000  9.21946000
   0.80986800  7.23752000  1.33125000
  10.56190000  2.43301000 10.45850000
  10.66550000  4.09042000  2.54383000
   3.15163000  7.51049000  1.46437000
  11.88030000 12.42030000  7.11131000
   3.90775000  9.90294000 10.38630000
   7.17591000 11.77060000  9.24745000
   0.03947450 14.09100000  4.03301000
   0.82063400  5.61718000  8.90638000
  12.99060000  8.12310000  9.69089000
   1.34692000  6.50601000  4.67609000
   1.13377000 12.40200000  7.90416000
   1.45732000 12.11140000  4.19641000
   8.66659000  2.27948000  7.02239000
  14.50650000  0.99556900  5.93564000
  11.90170000  6.42994000  6.50589000
  12.99300000  2.66340000 10.71100000
  12.17400000  4.19144000  7.18931000
   9.15341000 14.44480000  2.43950000
   1.80644000  9.37120000  9.56476000
   0.60118100  7.48138000 10.19750000
  12.21120000 12.70930000  1.38493000
  13.33960000  0.34233100  9.70936000
   8.25957000  9.96234000  6.02087000
   1.37419000 10.75880000  2.05744000
   7.98073000  9.38383000  0.91374800
  12.60040000  6.59718000  4.31675000
   6.79430000 11.22750000  1.93400000
   5.38423000  8.59676000  9.02733000
  11.95300000  2.43702000  3.40944000
  13.71370000  2.57648000  1.78139000
   5.28499000  4.99261000  3.39757000
  13.48460000  9.76898000  5.73917000
   9.88249000  5.81055000  9.33649000
  10.34230000 13.85510000  7.94566000
   3.44768000  9.70560000  1.49298000
   4.90785000 10.39120000  3.19206000
   1.94871000  8.96251000  7.32473000
   9.22955000  5.62517000  3.85121000
   7.25626000  3.91203000  6.10637000
  13.44780000  8.11451000  7.32384000
  10.95880000 10.76540000  8.60280000
   9.35980000 12.51510000  9.53312000



--------------------------------------------------------------------------------------------------------


 k-point     1 :   0.0000 0.0000 0.0000  plane waves:  224095
 k-point     2 :   0.5000 0.0000 0.0000  plane waves:  224370
 k-point     3 :   0.0000 0.5000 0.0000  plane waves:  224370
 k-point     4 :   0.5000 0.5000 0.0000  plane waves:  224356
 k-point     5 :   0.0000 0.0000 0.3333  plane waves:  224139
 k-point     6 :   0.5000 0.0000 0.3333  plane waves:  224256
 k-point     7 :   0.0000 0.5000 0.3333  plane waves:  224256
 k-point     8 :   0.5000 0.5000 0.3333  plane waves:  224216

 maximum and minimum number of plane-waves per node :     14065    13953

 maximum number of plane-waves:    224370
 maximum index in each direction: 
   IXMAX=   41   IYMAX=   41   IZMAX=   31
   IXMIN=  -41   IYMIN=  -41   IZMIN=  -31


 parallel 3D FFT for wavefunctions:
    minimum data exchange during FFTs selected (reduces bandwidth)
 parallel 3D FFT for charge:
    minimum data exchange during FFTs selected (reduces bandwidth)


 total amount of memory used by VASP MPI-rank0   206957. kBytes
=======================================================================

   base                                    :      30000. kBytes
   nonl-proj                               :      41286. kBytes
   fftplans                                :      42992. kBytes
   grid                                    :      33148. kBytes
   one-center                              :         24. kBytes
   wavefun                                 :      59507. kBytes

     INWAV:  cpu time     11.4775: real time     11.4834
 Broyden mixing: mesh for mixing (old mesh)
   NGX = 83   NGY = 83   NGZ = 63
  (NGX  =336   NGY  =336   NGZ  =252)
  gives a total of 434007 points

 initial charge density was supplied:
 number of electron     398.9999999 magnetization 
 keeping initial charge density in first step


--------------------------------------------------------------------------------------------------------


 Maximum index for augmentation-charges        11202 (set IRDMAX)


--------------------------------------------------------------------------------------------------------


 First call to EWALD:  gamma=   0.133
 Maximum number of real-space cells   3x   3x   3
 Maximum number of reciprocal cells   3x   3x   2

    FEWALD:  cpu time      0.0217: real time      0.0217


--------------------------------------- Ionic step        1  -------------------------------------------




--------------------------------------- Iteration      1(   1)  ---------------------------------------


    POTLOK:  cpu time      0.7630: real time      0.7640
    SETDIJ:  cpu time      1.5037: real time      1.5047
    EDDIAG:  cpu time     24.6230: real time     24.6463
     EDDAV:  cpu time    119.4435: real time    119.5428
       DOS:  cpu time      0.0090: real time      0.0090
    CHARGE:  cpu time     10.8051: real time     10.8138
    MIXING:  cpu time      0.0242: real time      0.0248
    --------------------------------------------
      LOOP:  cpu time    157.1718: real time    157.3054

 eigenvalue-minimisations  :  4376
 total energy-change (2. order) :-0.1061204E+04  (-0.1142292E+01)
 number of electron     398.9999999 magnetization 
 augmentation part      -20.1526924 magnetization 

 Broyden mixing:
  rms(total) = 0.12490E+01    rms(broyden)= 0.44653E+02
  rms(prec ) = 0.13324E+01
  weight for this iteration     100.00
  WARNING: grid for Broyden might be to small

 Free energy of the ion-electron system (eV)
  ---------------------------------------------------
  alpha Z        PSCENC =       142.50254672
  Ewald energy   TEWEN  =     -7959.09402549
  -Hartree energ DENC   =     -3046.71564488
  -exchange      EXHF   =         0.00000000
  -V(xc)+E(xc)   XCENC  =      -365.99753227
  PAW double counting   =     36579.05889597   -35652.64045041
  entropy T*S    EENTRO =        -0.09531166
  eigenvalues    EBANDS =      -680.62401344
  atomic energy  EATOM  =      9922.40150358
  Solvation  Ediel_sol  =         0.00000000
  ---------------------------------------------------
  free energy    TOTEN  =     -1061.20403187 eV

  energy without entropy =    -1061.10872022  energy(sigma->0) =    -1061.15637605


--------------------------------------------------------------------------------------------------------




--------------------------------------- Iteration      1(   2)  ---------------------------------------


    POTLOK:  cpu time      0.7464: real time      0.7713
    SETDIJ:  cpu time      1.4872: real time      1.4882
    EDDIAG:  cpu time     24.5573: real time     24.5776
     EDDAV:  cpu time    117.0117: real time    117.1144
       DOS:  cpu time      0.0057: real time      0.0057
    CHARGE:  cpu time     10.7436: real time     10.7524
    MIXING:  cpu time      0.0174: real time      0.0175
    --------------------------------------------
      LOOP:  cpu time    154.5693: real time    154.7270

 eigenvalue-minimisations  :  4232
 total energy-change (2. order) : 0.7154660E+02  (-0.1105195E+01)
 number of electron     398.9999999 magnetization 
 augmentation part      -20.0696963 magnetization 

 Broyden mixing:
  rms(total) = 0.83166E+00    rms(broyden)= 0.25573E+02
  rms(prec ) = 0.87340E+00
  weight for this iteration     100.00
  WARNING: grid for Broyden might be to small

 eigenvalues of (default mixing * dielectric matrix)
  average eigenvalue GAMMA=   0.6359
  0.6359

 Free energy of the ion-electron system (eV)
  ---------------------------------------------------
  alpha Z        PSCENC =       142.50254672
  Ewald energy   TEWEN  =     -7959.09402549
  -Hartree energ DENC   =     -3035.61673963
  -exchange      EXHF   =         0.00000000
  -V(xc)+E(xc)   XCENC  =      -357.10452736
  PAW double counting   =     43845.74286969   -42919.04212985
  entropy T*S    EENTRO =        -0.09288316
  eigenvalues    EBANDS =      -629.35404755
  atomic energy  EATOM  =      9922.40150358
  Solvation  Ediel_sol  =         0.00000000
  ---------------------------------------------------
  free energy    TOTEN  =      -989.65743304 eV

  energy without entropy =     -989.56454989  energy(sigma->0) =     -989.61099146


--------------------------------------------------------------------------------------------------------




--------------------------------------- Iteration      1(   3)  ---------------------------------------


    POTLOK:  cpu time      0.7426: real time      0.7674
    SETDIJ:  cpu time      1.5724: real time      1.5729
    EDDIAG:  cpu time     24.5488: real time     24.5701
     EDDAV:  cpu time    116.8699: real time    116.9720
       DOS:  cpu time      0.0042: real time      0.0042
    CHARGE:  cpu time     10.9194: real time     10.9450
    MIXING:  cpu time      0.0152: real time      0.0152
    --------------------------------------------
      LOOP:  cpu time    154.6725: real time    154.8468

 eigenvalue-minimisations  :  4224
 total energy-change (2. order) :-0.3539299E+01  (-0.8217005E+00)
 number of electron     398.9999999 magnetization 
 augmentation part      -20.0076388 magnetization 

 Broyden mixing:
  rms(total) = 0.45698E+00    rms(broyden)= 0.23109E+02
  rms(prec ) = 0.51696E+00
  weight for this iteration     100.00
  WARNING: grid for Broyden might be to small

 eigenvalues of (default mixing * dielectric matrix)
  average eigenvalue GAMMA=   0.7307
  0.8363  0.6252

 Free energy of the ion-electron system (eV)
  ---------------------------------------------------
  alpha Z        PSCENC =       142.50254672
  Ewald energy   TEWEN  =     -7959.09402549
  -Hartree energ DENC   =     -3040.46433765
  -exchange      EXHF   =         0.00000000
  -V(xc)+E(xc)   XCENC  =      -362.29539913
  PAW double counting   =     50287.22468383   -49360.62227115
  entropy T*S    EENTRO =        -0.09548616
  eigenvalues    EBANDS =      -622.75394684
  atomic energy  EATOM  =      9922.40150358
  Solvation  Ediel_sol  =         0.00000000
  ---------------------------------------------------
  free energy    TOTEN  =      -993.19673229 eV

  energy without entropy =     -993.10124613  energy(sigma->0) =     -993.14898921


--------------------------------------------------------------------------------------------------------




--------------------------------------- Iteration      1(   4)  ---------------------------------------


    POTLOK:  cpu time      0.7432: real time      0.7723
    SETDIJ:  cpu time      1.4893: real time      1.4900
    EDDIAG:  cpu time     24.5990: real time     24.6210
     EDDAV:  cpu time    120.5593: real time    120.6714
       DOS:  cpu time      0.0038: real time      0.0038
    CHARGE:  cpu time     10.7849: real time     10.7938
    MIXING:  cpu time      0.0152: real time      0.0152
    --------------------------------------------
      LOOP:  cpu time    158.1948: real time    158.3676

 eigenvalue-minimisations  :  4448
 total energy-change (2. order) :-0.1233422E+00  (-0.8444601E-01)
 number of electron     398.9999999 magnetization 
 augmentation part      -19.9985888 magnetization 

 Broyden mixing:
  rms(total) = 0.54612E-01    rms(broyden)= 0.25255E+01
  rms(prec ) = 0.92089E-01
  weight for this iteration     100.00
  WARNING: grid for Broyden might be to small

 eigenvalues of (default mixing * dielectric matrix)
  average eigenvalue GAMMA=   1.0330
  1.7640  0.7133  0.6217

 Free energy of the ion-electron system (eV)
  ---------------------------------------------------
  alpha Z        PSCENC =       142.50254672
  Ewald energy   TEWEN  =     -7959.09402549
  -Hartree energ DENC   =     -3046.95831698
  -exchange      EXHF   =         0.00000000
  -V(xc)+E(xc)   XCENC  =      -362.50556602
  PAW double counting   =     58521.87083115   -57595.33075330
  entropy T*S    EENTRO =        -0.09370333
  eigenvalues    EBANDS =      -616.11259084
  atomic energy  EATOM  =      9922.40150358
  Solvation  Ediel_sol  =         0.00000000
  ---------------------------------------------------
  free energy    TOTEN  =      -993.32007452 eV

  energy without entropy =     -993.22637119  energy(sigma->0) =     -993.27322285


--------------------------------------------------------------------------------------------------------




--------------------------------------- Iteration      1(   5)  ---------------------------------------


    POTLOK:  cpu time      0.7457: real time      0.7703
    SETDIJ:  cpu time      1.4893: real time      1.4898
    EDDIAG:  cpu time     24.6331: real time     24.6557
     EDDAV:  cpu time    132.2150: real time    132.3334
       DOS:  cpu time      0.0041: real time      0.0172
    CHARGE:  cpu time     10.8598: real time     10.8700
    MIXING:  cpu time      0.0156: real time      0.0156
    --------------------------------------------
      LOOP:  cpu time    169.9625: real time    170.1519

 eigenvalue-minimisations  :  5176
 total energy-change (2. order) :-0.3906754E-01  (-0.1469006E-01)
 number of electron     398.9999999 magnetization 
 augmentation part      -19.9993615 magnetization 

 Broyden mixing:
  rms(total) = 0.55031E-01    rms(broyden)= 0.77110E+00
  rms(prec ) = 0.98547E-01
  weight for this iteration     100.00
  WARNING: grid for Broyden might be to small

 eigenvalues of (default mixing * dielectric matrix)
  average eigenvalue GAMMA=   1.0926
  2.3901  0.7997  0.6133  0.5673

 Free energy of the ion-electron system (eV)
  ---------------------------------------------------
  alpha Z        PSCENC =       142.50254672
  Ewald energy   TEWEN  =     -7959.09402549
  -Hartree energ DENC   =     -3047.67309678
  -exchange      EXHF   =         0.00000000
  -V(xc)+E(xc)   XCENC  =      -363.66351180
  PAW double counting   =     58289.44104820   -57362.87410567
  entropy T*S    EENTRO =        -0.08938976
  eigenvalues    EBANDS =      -614.31011106
  atomic energy  EATOM  =      9922.40150358
  Solvation  Ediel_sol  =         0.00000000
  ---------------------------------------------------
  free energy    TOTEN  =      -993.35914206 eV

  energy without entropy =     -993.26975231  energy(sigma->0) =     -993.31444718


--------------------------------------------------------------------------------------------------------




--------------------------------------- Iteration      1(   6)  ---------------------------------------


    POTLOK:  cpu time      0.7461: real time      0.7701
    SETDIJ:  cpu time      1.4890: real time      1.4898
    EDDIAG:  cpu time     24.5634: real time     24.5849
     EDDAV:  cpu time    126.6253: real time    126.7422
       DOS:  cpu time      0.0068: real time      0.0068
    CHARGE:  cpu time     10.7500: real time     10.7599
    MIXING:  cpu time      0.0159: real time      0.0159
    --------------------------------------------
      LOOP:  cpu time    164.1965: real time    164.3696

 eigenvalue-minimisations  :  4824
 total energy-change (2. order) : 0.3911170E-02  (-0.4019326E-02)
 number of electron     398.9999999 magnetization 
 augmentation part      -19.9998560 magnetization 

 Broyden mixing:
  rms(total) = 0.23497E-01    rms(broyden)= 0.23373E+00
  rms(prec ) = 0.28792E-01
  weight for this iteration     100.00
  WARNING: grid for Broyden might be to small

 eigenvalues of (default mixing * dielectric matrix)
  average eigenvalue GAMMA=   1.0498
  2.5803  0.9436  0.6531  0.6317  0.4402

 Free energy of the ion-electron system (eV)
  ---------------------------------------------------
  alpha Z        PSCENC =       142.50254672
  Ewald energy   TEWEN  =     -7959.09402549
  -Hartree energ DENC   =     -3047.81641649
  -exchange      EXHF   =         0.00000000
  -V(xc)+E(xc)   XCENC  =      -363.97515310
  PAW double counting   =     58176.35224461   -57249.77329307
  entropy T*S    EENTRO =        -0.09660622
  eigenvalues    EBANDS =      -613.85603144
  atomic energy  EATOM  =      9922.40150358
  Solvation  Ediel_sol  =         0.00000000
  ---------------------------------------------------
  free energy    TOTEN  =      -993.35523089 eV

  energy without entropy =     -993.25862467  energy(sigma->0) =     -993.30692778


--------------------------------------------------------------------------------------------------------




--------------------------------------- Iteration      1(   7)  ---------------------------------------


    POTLOK:  cpu time      0.7453: real time      0.7706
    SETDIJ:  cpu time      1.4882: real time      1.4897
    EDDIAG:  cpu time     24.6114: real time     24.6344
     EDDAV:  cpu time    124.0385: real time    124.1471
       DOS:  cpu time      0.0051: real time      0.0051
    CHARGE:  cpu time     10.7749: real time     10.7837
    MIXING:  cpu time      0.0159: real time      0.0159
    --------------------------------------------
      LOOP:  cpu time    161.6793: real time    161.8465

 eigenvalue-minimisations  :  4664
 total energy-change (2. order) :-0.1343853E-02  (-0.8133764E-03)
 number of electron     398.9999999 magnetization 
 augmentation part      -19.9992861 magnetization 

 Broyden mixing:
  rms(total) = 0.17411E-01    rms(broyden)= 0.19579E+00
  rms(prec ) = 0.24902E-01
  weight for this iteration     100.00
  WARNING: grid for Broyden might be to small

 eigenvalues of (default mixing * dielectric matrix)
  average eigenvalue GAMMA=   0.9849
  2.5842  1.0220  0.7162  0.6262  0.5274  0.4335

 Free energy of the ion-electron system (eV)
  ---------------------------------------------------
  alpha Z        PSCENC =       142.50254672
  Ewald energy   TEWEN  =     -7959.09402549
  -Hartree energ DENC   =     -3048.23804850
  -exchange      EXHF   =         0.00000000
  -V(xc)+E(xc)   XCENC  =      -363.93212428
  PAW double counting   =     58132.54563935   -57205.95177845
  entropy T*S    EENTRO =        -0.09450740
  eigenvalues    EBANDS =      -613.49578028
  atomic energy  EATOM  =      9922.40150358
  Solvation  Ediel_sol  =         0.00000000
  ---------------------------------------------------
  free energy    TOTEN  =      -993.35657475 eV

  energy without entropy =     -993.26206735  energy(sigma->0) =     -993.30932105


--------------------------------------------------------------------------------------------------------




--------------------------------------- Iteration      1(   8)  ---------------------------------------


    POTLOK:  cpu time      0.7469: real time      0.7708
    SETDIJ:  cpu time      1.5403: real time      1.5413
    EDDIAG:  cpu time     24.5857: real time     24.6072
     EDDAV:  cpu time    123.9088: real time    124.0239
       DOS:  cpu time      0.0040: real time      0.0040
    CHARGE:  cpu time     10.7774: real time     10.7862
    MIXING:  cpu time      0.0160: real time      0.0160
    --------------------------------------------
      LOOP:  cpu time    161.5790: real time    161.7494

 eigenvalue-minimisations  :  4656
 total energy-change (2. order) :-0.7227111E-03  (-0.3623171E-03)
 number of electron     398.9999999 magnetization 
 augmentation part      -19.9965827 magnetization 

 Broyden mixing:
  rms(total) = 0.55399E-02    rms(broyden)= 0.11778E+00
  rms(prec ) = 0.92429E-02
  weight for this iteration     100.00
  WARNING: grid for Broyden might be to small

 eigenvalues of (default mixing * dielectric matrix)
  average eigenvalue GAMMA=   0.9841
  2.5595  1.3761  0.8700  0.6412  0.6412  0.4355  0.3651

 Free energy of the ion-electron system (eV)
  ---------------------------------------------------
  alpha Z        PSCENC =       142.50254672
  Ewald energy   TEWEN  =     -7959.09402549
  -Hartree energ DENC   =     -3048.97105053
  -exchange      EXHF   =         0.00000000
  -V(xc)+E(xc)   XCENC  =      -363.73648729
  PAW double counting   =     58128.35685219   -57201.74490794
  entropy T*S    EENTRO =        -0.09627289
  eigenvalues    EBANDS =      -612.97545581
  atomic energy  EATOM  =      9922.40150358
  Solvation  Ediel_sol  =         0.00000000
  ---------------------------------------------------
  free energy    TOTEN  =      -993.35729746 eV

  energy without entropy =     -993.26102457  energy(sigma->0) =     -993.30916101


--------------------------------------------------------------------------------------------------------




--------------------------------------- Iteration      1(   9)  ---------------------------------------


    POTLOK:  cpu time      0.7451: real time      0.7692
    SETDIJ:  cpu time      1.5055: real time      1.5064
    EDDIAG:  cpu time     24.6807: real time     24.7030
     EDDAV:  cpu time    121.5643: real time    121.6684
       DOS:  cpu time      0.0040: real time      0.0040
    CHARGE:  cpu time     10.7846: real time     10.7939
    MIXING:  cpu time      0.0163: real time      0.0163
    --------------------------------------------
      LOOP:  cpu time    159.3006: real time    159.4615

 eigenvalue-minimisations  :  4512
 total energy-change (2. order) :-0.3747340E-04  (-0.6826163E-04)
 number of electron     398.9999999 magnetization 
 augmentation part      -19.9970562 magnetization 

 Broyden mixing:
  rms(total) = 0.27191E-02    rms(broyden)= 0.89630E-01
  rms(prec ) = 0.42902E-02
  weight for this iteration     100.00
  WARNING: grid for Broyden might be to small

 eigenvalues of (default mixing * dielectric matrix)
  average eigenvalue GAMMA=   1.1078
  2.6004  2.4263  1.0057  0.7734  0.6451  0.6285  0.4513  0.3314

 Free energy of the ion-electron system (eV)
  ---------------------------------------------------
  alpha Z        PSCENC =       142.50254672
  Ewald energy   TEWEN  =     -7959.09402549
  -Hartree energ DENC   =     -3049.01248941
  -exchange      EXHF   =         0.00000000
  -V(xc)+E(xc)   XCENC  =      -363.78155299
  PAW double counting   =     58173.93371599   -57247.31851490
  entropy T*S    EENTRO =        -0.09567455
  eigenvalues    EBANDS =      -612.89284388
  atomic energy  EATOM  =      9922.40150358
  Solvation  Ediel_sol  =         0.00000000
  ---------------------------------------------------
  free energy    TOTEN  =      -993.35733493 eV

  energy without entropy =     -993.26166038  energy(sigma->0) =     -993.30949766


--------------------------------------------------------------------------------------------------------




--------------------------------------- Iteration      1(  10)  ---------------------------------------


    POTLOK:  cpu time      0.7452: real time      0.7690
    SETDIJ:  cpu time      1.4890: real time      1.4895
    EDDIAG:  cpu time     24.6255: real time     24.6471
     EDDAV:  cpu time    127.2608: real time    127.3780
       DOS:  cpu time      0.0069: real time      0.0069
    CHARGE:  cpu time     10.8305: real time     10.8397
    MIXING:  cpu time      0.0164: real time      0.0164
    --------------------------------------------
      LOOP:  cpu time    164.9740: real time    165.1464

 eigenvalue-minimisations  :  4864
 total energy-change (2. order) :-0.1136948E-04  (-0.1497899E-04)
 number of electron     398.9999999 magnetization 
 augmentation part      -19.9970568 magnetization 

 Broyden mixing:
  rms(total) = 0.12611E-02    rms(broyden)= 0.38628E-01
  rms(prec ) = 0.18166E-02
  weight for this iteration     100.00
  WARNING: grid for Broyden might be to small

 eigenvalues of (default mixing * dielectric matrix)
  average eigenvalue GAMMA=   1.1485
  2.9393  2.5746  1.0971  0.9546  0.3307  0.4521  0.7292  0.6343  0.6245

 Free energy of the ion-electron system (eV)
  ---------------------------------------------------
  alpha Z        PSCENC =       142.50254672
  Ewald energy   TEWEN  =     -7959.09402549
  -Hartree energ DENC   =     -3049.01396564
  -exchange      EXHF   =         0.00000000
  -V(xc)+E(xc)   XCENC  =      -363.78723304
  PAW double counting   =     58167.19752159   -57240.57971601
  entropy T*S    EENTRO =        -0.09577797
  eigenvalues    EBANDS =      -612.88820004
  atomic energy  EATOM  =      9922.40150358
  Solvation  Ediel_sol  =         0.00000000
  ---------------------------------------------------
  free energy    TOTEN  =      -993.35734630 eV

  energy without entropy =     -993.26156833  energy(sigma->0) =     -993.30945732


--------------------------------------------------------------------------------------------------------




--------------------------------------- Iteration      1(  11)  ---------------------------------------


    POTLOK:  cpu time      0.7457: real time      0.7721
    SETDIJ:  cpu time      1.4896: real time      1.4902
    EDDIAG:  cpu time     24.6374: real time     24.6578
     EDDAV:  cpu time    129.6796: real time    129.7978
       DOS:  cpu time      0.0051: real time      0.0051
    CHARGE:  cpu time     10.8457: real time     10.8537
    MIXING:  cpu time      0.0161: real time      0.0173
    --------------------------------------------
      LOOP:  cpu time    167.4192: real time    167.5939

 eigenvalue-minimisations  :  5008
 total energy-change (2. order) :-0.1278439E-04  (-0.3661995E-05)
 number of electron     398.9999999 magnetization 
 augmentation part      -19.9970660 magnetization 

 Broyden mixing:
  rms(total) = 0.53727E-03    rms(broyden)= 0.14042E-01
  rms(prec ) = 0.85155E-03
  weight for this iteration     100.00
  WARNING: grid for Broyden might be to small

 eigenvalues of (default mixing * dielectric matrix)
  average eigenvalue GAMMA=   1.1962
  3.2361  2.6019  1.5323  1.0406  0.8459  0.3310  0.4506  0.6878  0.6306  0.6054

 Free energy of the ion-electron system (eV)
  ---------------------------------------------------
  alpha Z        PSCENC =       142.50254672
  Ewald energy   TEWEN  =     -7959.09402549
  -Hartree energ DENC   =     -3049.02094960
  -exchange      EXHF   =         0.00000000
  -V(xc)+E(xc)   XCENC  =      -363.79030532
  PAW double counting   =     58159.37789632   -57232.75828530
  entropy T*S    EENTRO =        -0.09587354
  eigenvalues    EBANDS =      -612.87986645
  atomic energy  EATOM  =      9922.40150358
  Solvation  Ediel_sol  =         0.00000000
  ---------------------------------------------------
  free energy    TOTEN  =      -993.35735908 eV

  energy without entropy =     -993.26148554  energy(sigma->0) =     -993.30942231


--------------------------------------------------------------------------------------------------------




--------------------------------------- Iteration      1(  12)  ---------------------------------------


    POTLOK:  cpu time      0.7476: real time      0.7694
    SETDIJ:  cpu time      1.4882: real time      1.4894
    EDDIAG:  cpu time     24.6019: real time     24.6218
     EDDAV:  cpu time    121.4680: real time    121.5770
       DOS:  cpu time      0.0045: real time      0.0045
    CHARGE:  cpu time     10.7622: real time     10.7718
    MIXING:  cpu time      0.0171: real time      0.0171
    --------------------------------------------
      LOOP:  cpu time    159.0896: real time    159.2510

 eigenvalue-minimisations  :  4496
 total energy-change (2. order) :-0.4145717E-05  (-0.1182379E-05)
 number of electron     398.9999999 magnetization 
 augmentation part      -19.9971162 magnetization 

 Broyden mixing:
  rms(total) = 0.33239E-03    rms(broyden)= 0.76092E-02
  rms(prec ) = 0.55010E-03
  weight for this iteration     100.00
  WARNING: grid for Broyden might be to small

 eigenvalues of (default mixing * dielectric matrix)
  average eigenvalue GAMMA=   1.2186
  3.5176  2.6095  1.8127  1.0165  1.0165  0.3311  0.7553  0.4501  0.6527  0.6326
  0.6095

 Free energy of the ion-electron system (eV)
  ---------------------------------------------------
  alpha Z        PSCENC =       142.50254672
  Ewald energy   TEWEN  =     -7959.09402549
  -Hartree energ DENC   =     -3049.01024112
  -exchange      EXHF   =         0.00000000
  -V(xc)+E(xc)   XCENC  =      -363.79660144
  PAW double counting   =     58158.38375664   -57231.76382575
  entropy T*S    EENTRO =        -0.09582055
  eigenvalues    EBANDS =      -612.88465582
  atomic energy  EATOM  =      9922.40150358
  Solvation  Ediel_sol  =         0.00000000
  ---------------------------------------------------
  free energy    TOTEN  =      -993.35736323 eV

  energy without entropy =     -993.26154268  energy(sigma->0) =     -993.30945295


--------------------------------------------------------------------------------------------------------




[...]
   -.152E+02 0.745E+02 0.198E+02   0.152E+02 -.731E+02 -.196E+02   0.238E+00 -.186E+01 0.193E+01   0.892E-03 -.751E-03 0.373E-03
   -.152E+01 0.121E+02 -.196E+02   0.999E+00 -.112E+02 0.180E+02   0.151E+01 -.393E+00 0.217E+01   -.640E-03 0.251E-03 -.132E-05
   -.660E+02 0.810E+01 0.718E+01   0.669E+02 -.790E+01 -.684E+01   -.168E+01 -.140E+00 -.434E-01   -.322E-03 0.155E-04 0.276E-04
   0.475E+02 0.527E+02 -.110E+02   -.467E+02 -.534E+02 0.712E+01   -.641E+00 0.208E+01 0.304E+01   0.501E-03 -.936E-04 -.482E-03
   0.228E+02 -.235E+02 0.501E+01   -.184E+02 0.215E+02 -.589E+01   -.417E+01 0.276E+01 0.843E+00   -.541E-03 -.364E-04 -.152E-03
   0.685E+02 0.165E+02 -.109E+00   -.669E+02 -.159E+02 0.403E+00   -.219E+01 -.183E+01 -.137E+01   -.113E-02 -.175E-03 0.119E-02
   0.367E+02 -.457E+02 0.160E+02   -.353E+02 0.435E+02 -.147E+02   -.209E+01 0.299E+01 -.212E+01   -.173E-03 0.283E-03 -.105E-03
   -.252E+02 -.205E+02 -.138E+02   0.247E+02 0.178E+02 0.146E+02   0.335E+00 0.365E+01 -.146E+00   0.559E-03 -.423E-03 0.176E-03
   -.137E+02 -.235E+02 -.906E+01   0.119E+02 0.244E+02 0.779E+01   0.168E+01 -.762E+00 0.183E+01   0.597E-03 -.287E-03 -.159E-03
   -.427E+02 0.294E+02 0.224E+02   0.436E+02 -.305E+02 -.198E+02   -.295E-01 0.913E+00 -.320E+01   0.557E-04 -.653E-03 -.938E-04
   0.241E+02 0.382E+02 -.329E+01   -.254E+02 -.365E+02 0.347E+01   0.157E+01 -.102E+01 -.200E+01   -.283E-03 -.750E-04 -.642E-03
   0.483E+02 0.231E+02 -.437E+02   -.505E+02 -.235E+02 0.422E+02   0.320E+01 0.551E+00 0.563E+00   0.280E-03 0.208E-03 0.139E-03
   0.638E+01 0.590E+01 -.497E+01   -.699E+01 -.711E+01 0.507E+01   -.118E+00 -.403E+00 0.472E+00   -.684E-03 -.327E-03 0.217E-03
   0.168E+02 0.432E+01 -.174E+00   -.161E+02 -.309E+01 0.943E+00   -.711E+00 0.592E-01 -.812E-01   -.325E-03 -.478E-03 0.168E-03
   0.480E+02 -.232E+02 -.184E+02   -.491E+02 0.226E+02 0.159E+02   0.790E+00 -.780E+00 0.229E+01   -.236E-04 -.181E-03 0.218E-03
 -----------------------------------------------------------------------------------------------
   -.709E+01 -.288E+01 -.593E+01   -.107E-12 0.146E-12 -.995E-13   0.709E+01 0.288E+01 0.592E+01   -.740E-02 -.719E-02 -.199E-02


 POSITION                                       TOTAL-FORCE (eV/Angst)
 -----------------------------------------------------------------------------------
      4.18980      1.37868      9.25071        -0.237834     -1.044467      2.196705
      1.71798      4.56801      9.30465         1.121994     -0.403119      0.022687
      7.71601      1.65240      8.02454         0.229950     -0.007631     -0.116201
      5.90559      4.20914      6.54259        -0.492091     -0.102368      0.653569
      1.15266      1.68582      6.45844         0.227713     -0.463781     -0.118868
      4.38412     13.42670      3.94246         0.195259      0.248916      0.172925
      4.28209      3.35096      5.45586         0.942403      0.905784      0.241878
      3.16561      1.44141      3.50083        -0.807044     -0.198060     -0.340986
      4.82828      4.62488      2.03043         0.023742      0.107170     -0.280956
      4.04837      1.60510      1.21963        -0.195228      0.303073      0.023322
      5.83053     13.91770      0.36874         0.575308      1.270029      0.273329
      0.59030      4.79703      0.61572        -0.140934     -0.415442      0.317884
      3.71400      2.94240      5.36345        -1.323905     -0.727676     -0.109548
      4.12104      1.04950     10.00240         0.130129      0.814296     -2.099407
      3.59135      2.17708      1.38899         0.275853     -0.273069     -0.167977
      3.93078      0.84053      5.76514         0.068481      0.182733     -0.629102
      4.61112      5.58866     10.63790         0.181168     -0.632828     -0.322554
      4.80114      3.05588     10.70540        -1.040196     -0.549263      0.597177
      6.45300      0.19879      5.44598         0.368490     -0.720984     -0.106587
      3.80086      1.56347      3.81720         0.701263      0.111012      0.336909
      5.80926      2.02711      4.42431        -0.190134     -0.119096      0.002326
      6.50784      1.61756      1.44340        -0.312527     -0.318829     -0.398388
      4.91274      2.97206      7.67771         0.060516      0.077179      0.106458
      3.86262      0.60723      6.44874        -0.086961     -0.318039      0.670946
      4.43848      2.40867      7.71167        -0.103069     -0.086488      0.028522
      5.36312      3.36420     10.40870         1.191834      0.689633     -0.570362
      1.61968      1.20211      1.74826         1.103181     -0.226090     -0.103509
      0.95790     10.80290      6.10321        -0.089084      0.402924      0.601956
      6.93714     11.78670      6.87733        -1.052871      0.578511     -0.477542
      1.20215     12.33660      0.13992         1.361168     -1.512051      0.949674
      3.67041      6.85193      3.73919        -0.141057     -0.834382      0.462942
      4.27296      9.11407      7.09588        -0.588247      0.854493     -1.587939
     12.18450     10.29380      1.17384         0.647554      0.328488      0.826176
     14.35840      4.87937      4.27658        -0.833591     -0.182626     -0.529673
     14.10650     13.80570      0.41695        -0.372414      0.785136      0.351104
      7.22114      7.99581      5.08481        -0.102749     -0.551568     -0.446271
      9.83424      7.04554      7.27833        -0.161424     -0.204143      1.720219
      9.12942      3.26385      0.90819         0.314135      1.686484     -0.353195
      4.85345      6.96423     11.02030         0.177456      0.916888     -0.363798
      0.94431      6.89528      6.89362        -0.106193      0.624751      0.765341
     14.29020      9.10121      2.11233        -0.629092      1.264789     -0.520952
      8.30550      6.03049      5.92875        -0.430326      0.069410     -0.104868
     12.66500     10.30720     10.10320        -0.247145     -0.158174      0.125049
     10.16380      9.45761      2.20168        -0.052549     -0.553710     -0.145257
      8.13274     12.60120      3.44359         0.393990     -0.519421      0.073088
     12.04240      5.65456      1.45608        -0.045104      0.272331     -1.086846
      9.48893      0.39051      6.02034         0.418837     -0.373527     -0.658410
      0.31949     11.02830      9.68056        -0.411427      1.044956     -0.191727
      7.55021     13.69890      5.48968        -0.483979     -0.343310      0.209422
      4.47543     11.53000      6.70584         1.356679     -0.515939     -0.904733
      9.29267      9.20926      8.08347        -0.373853     -0.195972     -0.820843
     10.91320      0.46499      3.89750        -0.662680     -1.004913      0.786250
      5.00077      8.51452      4.88857        -0.713675      0.272677     -0.162045
     12.49560     13.22620      3.58984        -0.432870      0.623976      0.620159
     13.26040      3.03125      5.48072         0.028583     -0.303245     -1.444091
      9.71178     10.79780      4.19118        -0.083100      0.451079      0.171748
     10.79830      7.15025      2.76806        -0.182436     -0.096970      0.606942
     10.04360     13.50420      0.34331         0.991713     -0.432341      1.553726
      3.79692     12.17270      4.45797         0.437412     -0.783155      0.090727
      3.43719     12.81750      8.20178        -0.925810      0.724037      0.549887
      7.78230      1.87627      2.10726        -0.345402      0.220986      1.138544
     14.20430      8.24544      4.21041         0.545455     -0.550253     -0.109500
      8.39834      5.48287     11.08550        -0.143688     -0.044251      0.264554
     14.30490      5.00063      1.87179         0.060536      0.143876     -0.221450
      7.12117      6.67246      3.05488         0.350511     -1.357358      0.424830
     11.94370      6.13925     10.24330         0.412412     -0.662508      0.858909
      6.99700      7.26879      0.82448         0.362069     -1.015854      0.340234
     11.95560     11.45300      4.96280        -0.984667     -0.279385      0.558824
     11.01850      0.23052      9.94010         0.668940      0.706239     -0.163061
      3.53341     12.23410     10.41700         0.400545     -0.040932      0.460256
      5.80814     12.51730      0.10845        -0.385542     -1.262517     -1.111970
      7.48068      9.58409      9.69086         0.822168     -0.617667     -0.109279
     13.91700     13.91740      7.53954        -0.375675     -0.141891      0.924206
      0.36017      0.63079      2.14782        -0.539173      0.706497     -1.717227
      6.61609      3.18364      3.96597         0.621590     -0.596195      0.021122
     10.24390      3.32120      8.32066         0.467540      1.865654      0.578338
     13.40150      4.55163      9.21946        -1.058423     -0.426932      0.134112
      0.80987      7.23752      1.33125        -0.074845     -0.551526     -0.703854
     10.56190      2.43301     10.45850         1.001255      0.184815     -0.700690
     10.66550      4.09042      2.54383        -1.310055      0.474941      0.019530
      3.15163      7.51049      1.46437         0.128592     -1.314840      0.703315
     11.88030     12.42030      7.11131         0.743294     -0.034948     -0.045065
      3.90775      9.90294     10.38630        -0.597680      0.543658     -0.002823
      7.17591     11.77060      9.24745        -0.267059      1.024650      0.515912
      0.03947     14.09100      4.03301         0.616828     -0.473419      1.399117
      0.82063      5.61718      8.90638        -0.073799      0.498465     -0.687311
     12.99060      8.12310      9.69089         0.803807     -0.650006     -0.975738
      1.34692      6.50601      4.67609         0.533672      1.079264     -0.117954
      1.13377     12.40200      7.90416        -0.593456     -0.471469     -0.607216
      1.45732     12.11140      4.19641         0.405854     -0.818497     -0.829940
      8.66659      2.27948      7.02239        -1.044651      0.384003      0.779951
     14.50650      0.99557      5.93564        -0.448369      0.037806     -0.044824
     11.90170      6.42994      6.50589         0.542295      0.525731      0.226321
     12.99300      2.66340     10.71100        -0.360360     -0.527453     -0.964425
     12.17400      4.19144      7.18931        -0.080795     -0.292430      1.002760
      9.15341     14.44480      2.43950        -0.107404      0.268568     -0.879000
      1.80644      9.37120      9.56476         0.062453     -1.196855      0.094301
      0.60118      7.48138     10.19750         0.028897      0.124440      1.026582
     12.21120     12.70930      1.38493        -0.311325     -0.746430     -0.742214
     13.33960      0.34233      9.70936         0.142339      0.694473      0.091318
      8.25957      9.96234      6.02087         0.484619      0.076955     -0.317908
      1.37419     10.75880      2.05744         0.078839      1.335219     -0.063966
      7.98073      9.38383      0.91375         0.431062      0.384577     -0.560395
     12.60040      6.59718      4.31675        -0.297260     -0.224048     -0.214864
      6.79430     11.22750      1.93400        -0.585251      0.111412      0.271587
      5.38423      8.59676      9.02733         0.117449     -0.415405      2.298267
     11.95300      2.43702      3.40944         1.056633      0.469075      0.643324
     13.71370      2.57648      1.78139        -0.986302      0.019516      0.282931
      5.28499      4.99261      3.39757         0.178321      1.451996     -0.799599
     13.48460      9.76898      5.73917         0.044772      0.898537     -0.001186
      9.88249      5.81055      9.33649        -0.671707     -1.298547     -1.122144
     10.34230     13.85510      7.94566        -0.792970      0.905521     -0.946117
      3.44768      9.70560      1.49298        -0.191352      1.112499      0.586125
      4.90785     10.39120      3.19206        -0.122597      0.147901      0.629894
      1.94871      8.96251      7.32473         0.820152     -0.175230     -0.738287
      9.22955      5.62517      3.85121         0.306766      0.758936     -1.968543
      7.25626      3.91203      6.10637         1.091538      0.282063     -0.903919
     13.44780      8.11451      7.32384        -0.726808     -1.657694      0.558341
     10.95880     10.76540      8.60280        -0.094926      1.335870      0.719180
      9.35980     12.51510      9.53312        -0.232872     -1.367680     -0.128627
 -----------------------------------------------------------------------------------
    total drift:                               -0.013284     -0.008944     -0.010901


--------------------------------------------------------------------------------------------------------



  FREE ENERGIE OF THE ION-ELECTRON SYSTEM (eV)
  ---------------------------------------------------
  free  energy   TOTEN  =      -993.35736265 eV

  energy  without entropy=     -993.26152933  energy(sigma->0) =     -993.30944599



--------------------------------------------------------------------------------------------------------


    POTLOK:  cpu time      2.2213: real time      2.2453


--------------------------------------------------------------------------------------------------------


     LOOP+:  cpu time   2331.1506: real time   2333.6166
    4ORBIT:  cpu time      0.0000: real time      0.0000



 total charge

# of ion       s       p       d       tot
------------------------------------------
    1        0.559   0.023   0.000   0.582
    2        0.587   0.018   0.000   0.605
    3        0.555   0.014   0.000   0.569
    4        0.584   0.018   0.000   0.602
    5        0.561   0.015   0.000   0.576
    6        0.571   0.016   0.000   0.587
    7        0.645   0.040   0.000   0.685
    8        0.634   0.036   0.000   0.670
    9        0.574   0.016   0.000   0.589
   10        0.609   0.031   0.000   0.640
   11        0.598   0.019   0.000   0.617
   12        0.550   0.015   0.000   0.565
   13        0.645   0.040   0.000   0.684
   14        0.564   0.022   0.000   0.586
   15        0.608   0.031   0.000   0.639
   16        0.627   0.036   0.000   0.663
   17        0.583   0.018   0.000   0.601
   18        0.640   0.040   0.000   0.680
   19        0.544   0.014   0.000   0.558
   20        0.631   0.037   0.000   0.668
   21        0.575   0.016   0.000   0.592
   22        0.579   0.017   0.000   0.596
   23        0.619   0.034   0.000   0.653
   24        0.626   0.036   0.000   0.662
   25        0.622   0.034   0.000   0.656
   26        0.645   0.039   0.000   0.684
   27        0.590   0.018   0.000   0.608
   28        0.748   0.929   0.000   1.677
   29        0.748   0.892   0.000   1.640
   30        0.752   0.939   0.000   1.692
   31        0.762   0.843   0.000   1.605
   32        0.755   0.929   0.000   1.684
   33        0.751   0.886   0.000   1.637
   34        0.768   0.887   0.000   1.655
   35        0.751   0.966   0.000   1.717
   36        0.752   0.920   0.000   1.672
   37        0.753   0.960   0.000   1.713
   38        0.748   0.923   0.000   1.671
   39        0.751   0.907   0.000   1.658
   40        0.751   0.941   0.000   1.692
   41        0.753   0.947   0.000   1.700
   42        0.750   0.957   0.000   1.707
   43        0.750   0.978   0.000   1.728
   44        0.749   0.855   0.000   1.604
   45        0.747   0.902   0.000   1.649
   46        0.752   0.911   0.000   1.663
   47        0.749   0.919   0.000   1.668
   48        0.754   0.983   0.000   1.737
   49        0.739   0.928   0.000   1.668
   50        0.753   0.911   0.000   1.664
   51        0.750   0.905   0.000   1.654
   52        0.750   0.912   0.000   1.661
   53        0.752   0.905   0.000   1.657
   54        0.751   0.966   0.000   1.717
   55        0.750   0.882   0.000   1.632
   56        0.749   0.859   0.000   1.608
   57        0.761   0.883   0.000   1.644
   58        0.748   0.928   0.000   1.676
   59        0.740   0.943   0.000   1.684
   60        0.787   0.916   0.000   1.703
   61        0.740   0.945   0.000   1.685
   62        0.763   0.963   0.000   1.726
   63        0.777   0.820   0.000   1.597
   64        0.727   0.920   0.000   1.646
   65        0.765   0.882   0.000   1.647
   66        0.756   0.946   0.000   1.702
   67        0.745   0.929   0.000   1.674
   68        0.746   0.921   0.000   1.667
   69        0.763   0.974   0.000   1.737
   70        0.755   0.901   0.000   1.656
   71        0.746   0.913   0.000   1.659
   72        0.755   0.909   0.000   1.664
   73        0.754   0.875   0.000   1.629
   74        0.747   1.033   0.000   1.780
   75        0.745   0.951   0.000   1.695
   76        0.754   0.910   0.000   1.664
   77        0.754   0.934   0.000   1.688
   78        0.777   0.911   0.000   1.688
   79        0.749   0.948   0.000   1.697
   80        0.758   0.921   0.000   1.679
   81        0.758   0.951   0.000   1.709
   82        0.753   0.921   0.000   1.674
   83        0.760   0.938   0.000   1.698
   84        0.752   0.942   0.000   1.694
   85        0.743   0.965   0.000   1.708
   86        0.740   1.018   0.000   1.758
   87        0.759   0.974   0.000   1.733
   88        0.755   0.904   0.000   1.659
   89        0.754   0.915   0.000   1.669
   90        0.744   0.902   0.000   1.647
   91        0.740   0.993   0.000   1.733
   92        0.734   0.941   0.000   1.675
   93        0.753   0.958   0.000   1.711
   94        0.763   0.853   0.000   1.616
   95        0.744   0.931   0.000   1.675
   96        0.750   0.904   0.000   1.654
   97        0.757   1.012   0.000   1.769
   98        0.755   0.983   0.000   1.738
   99        0.754   0.912   0.000   1.667
  100        0.754   0.919   0.000   1.673
  101        0.747   0.888   0.000   1.635
  102        0.754   0.888   0.000   1.641
  103        0.746   0.884   0.000   1.630
  104        0.760   0.928   0.000   1.688
  105        0.745   0.886   0.000   1.631
  106        0.758   0.885   0.000   1.643
  107        0.747   0.954   0.000   1.701
  108        0.775   0.905   0.000   1.680
  109        0.747   0.932   0.000   1.679
  110        0.751   0.971   0.000   1.723
  111        0.757   0.911   0.000   1.668
  112        0.753   0.989   0.000   1.741
  113        0.755   0.979   0.000   1.734
  114        0.750   0.895   0.000   1.646
  115        0.756   0.949   0.000   1.706
  116        0.761   0.886   0.000   1.647
  117        0.742   0.988   0.000   1.730
  118        0.758   0.914   0.000   1.671
  119        0.755   0.905   0.000   1.660
  120        0.761   0.917   0.000   1.678
--------------------------------------------------
tot         86.125  86.805   0.000 172.930


 total amount of memory used by VASP MPI-rank0   206957. kBytes
=======================================================================

   base                                    :      30000. kBytes
   nonl-proj                               :      41286. kBytes
   fftplans                                :      42992. kBytes
   grid                                    :      33148. kBytes
   one-center                              :         24. kBytes
   wavefun                                 :      59507. kBytes

  
  
 General timing and accounting informations for this job:
 ========================================================
  
                  Total CPU time used (sec):     2406.501
                            User time (sec):     2397.725
                          System time (sec):        8.777
                         Elapsed time (sec):     2408.924
  
                   Maximum memory used (kb):      388904.
                   Average memory used (kb):          N/A
  
                          Minor page faults:       319869
                          Major page faults:         1148
                 Voluntary context switches:         2539
