 vasp.6.5.0 16Dec24 (build Jan 20 2025 08:32:48) complex                         
 executed on        HPECrayEX_GCC date 2025.07.22  10:57:29
 running  128 mpi-ranks, with    1 threads/rank, on    1 nodes
 distrk:  each k-point on  128 cores,    1 groups
 distr:  one band on NCORE=  16 cores,    8 groups


--------------------------------------------------------------------------------------------------------


 INCAR:
   SYSTEM = a-Si SPC
   NCORE = 16
   ISTART = 1
   ICHARG = 1
   ISPIN = 1
   ISYM = 1
   EDIFF = 1E-6
   NELM = 150
   EDIFFG = -0.01
   NSW = 0
   ISIF = 2
   IBRION = -1
   PREC = Accurate
   ENCUT = 1200
   KSPACING = 0.23
   KGAMMA = .TRUE.
   METAGGA = SCAN
   LASPH = .TRUE.
   LDIAG = .FALSE.
   LMIXTAU = .TRUE.
   ADDGRID = .TRUE.
   ALGO = Normal
   ISMEAR = 0
   SIGMA = 0.1
   LORBIT = 11
   NEDOS = 2000
   LWAVE = .FALSE.
   LCHARG = .FALSE.

 POTCAR:    PAW_PBE H 15Jun2001                   
 POTCAR:    PAW_PBE Si 05Jan2001                  
 POTCAR:    PAW_PBE H 15Jun2001                   
   SHA256 =  030f79b5d3ab3cf0e668861823c8fb652ff669f3e15e46930bd03bfd63a607b6 H/POTCAR              
   COPYR  = (c) Copyright 15Jun2001 Georg Kresse                                                    
   COPYR  = This file is part of the software VASP. Any use, copying, and all other rights are regul
   COPYR  = If you do not have a valid VASP license, you may not use, copy or distribute this file. 
   VRHFIN =H: ultrasoft test                                                                        
   LEXCH  = PE                                                                                      
   EATOM  =    12.4884 eV,    0.9179 Ry                                                             
                                                                                                    
   TITEL  = PAW_PBE H 15Jun2001                                                                     
   LULTRA =        F    use ultrasoft PP ?                                                          
   IUNSCR =        0    unscreen: 0-lin 1-nonlin 2-no                                               
   RPACOR =    0.000    partial core radius                                                         
   POMASS =    1.000; ZVAL   =    1.000    mass and valenz                                          
   RCORE  =    1.100    outmost cutoff radius                                                       
   RWIGS  =    0.700; RWIGS  =    0.370    wigner-seitz radius (au A)                               
   ENMAX  =  250.000; ENMIN  =  200.000 eV                                                          
   RCLOC  =    0.701    cutoff for local pot                                                        
   LCOR   =        T    correct aug charges                                                         
   LPAW   =        T    paw PP                                                                      
   EAUG   =  400.000                                                                                
   RMAX   =    1.123    core radius for proj-oper                                                   
   RAUG   =    1.200    factor for augmentation sphere                                              
   RDEP   =    1.112    radius for radial grids                                                     
   RDEPT  =    0.926    core radius for aug-charge                                                  
                                                                                                    
   Atomic configuration                                                                             
    2 entries                                                                                       
     n  l   j            E        occ.                                                              
     1  0  0.50        -6.4927   1.0000                                                             
     2  1  0.50        -3.4015   0.0000                                                             
   Description                                                                                      
     l       E           TYP  RCUT    TYP  RCUT                                                     
     0     -6.4927494     23  1.100                                                                 
     0      6.8029130     23  1.100                                                                 
     1     -4.0817478     23  1.100                                                                 
  local pseudopotential read in
  atomic valenz-charges read in
  non local Contribution for L=           0  read in
    real space projection operators read in
  non local Contribution for L=           0  read in
    real space projection operators read in
  non local Contribution for L=           1  read in
    real space projection operators read in
    PAW grid and wavefunctions read in

   number of l-projection  operators is LMAX  =           3
   number of lm-projection operators is LMMAX =           5

 POTCAR:    PAW_PBE Si 05Jan2001                  
   SHA256 =  79d9987ad8750f624c4d6acb2a16d13abf6a777132adc04dc6c8399be72b42bb Si/POTCAR             
   COPYR  = (c) Copyright 05Jan2001 Georg Kresse                                                    
   COPYR  = This file is part of the software VASP. Any use, copying, and all other rights are regul
   COPYR  = If you do not have a valid VASP license, you may not use, copy or distribute this file. 
   VRHFIN =Si: s2p2                                                                                 
   LEXCH  = PE                                                                                      
   EATOM  =   103.0669 eV,    7.5752 Ry                                                             
                                                                                                    
   TITEL  = PAW_PBE Si 05Jan2001                                                                    
   LULTRA =        F    use ultrasoft PP ?                                                          
   IUNSCR =        1    unscreen: 0-lin 1-nonlin 2-no                                               
   RPACOR =    1.500    partial core radius                                                         
   POMASS =   28.085; ZVAL   =    4.000    mass and valenz                                          
   RCORE  =    1.900    outmost cutoff radius                                                       
   RWIGS  =    2.480; RWIGS  =    1.312    wigner-seitz radius (au A)                               
   ENMAX  =  245.345; ENMIN  =  184.009 eV                                                          
   ICORE  =        2    local potential                                                             
   LCOR   =        T    correct aug charges                                                         
   LPAW   =        T    paw PP                                                                      
   EAUG   =  322.069                                                                                
   DEXC   =    0.000                                                                                
   RMAX   =    1.950    core radius for proj-oper                                                   
   RAUG   =    1.300    factor for augmentation sphere                                              
   RDEP   =    1.993    radius for radial grids                                                     
   RDEPT  =    1.837    core radius for aug-charge                                                  
                                                                                                    
   Atomic configuration                                                                             
    6 entries                                                                                       
     n  l   j            E        occ.                                                              
     1  0  0.50     -1785.8828   2.0000                                                             
     2  0  0.50      -139.4969   2.0000                                                             
     2  1  1.50       -95.5546   6.0000                                                             
     3  0  0.50       -10.8127   2.0000                                                             
     3  1  0.50        -4.0811   2.0000                                                             
     3  2  1.50        -4.0817   0.0000                                                             
   Description                                                                                      
     l       E           TYP  RCUT    TYP  RCUT                                                     
     0    -10.8127223     23  1.900                                                                 
     0     -7.6451159     23  1.900                                                                 
     1     -4.0811372     23  1.900                                                                 
     1      2.4879257     23  1.900                                                                 
     2     -4.0817478      7  1.900                                                                 
  local pseudopotential read in
  partial core-charges read in
  partial kinetic energy density read in
  atomic valenz-charges read in
  non local Contribution for L=           0  read in
    real space projection operators read in
  non local Contribution for L=           0  read in
    real space projection operators read in
  non local Contribution for L=           1  read in
    real space projection operators read in
  non local Contribution for L=           1  read in
    real space projection operators read in
    PAW grid and wavefunctions read in

   number of l-projection  operators is LMAX  =           4
   number of lm-projection operators is LMMAX =           8

 -----------------------------------------------------------------------------
|                                                                             |
|               ----> ADVICE to this user running VASP <----                  |
|                                                                             |
|     You have a (more or less) 'large supercell' and for larger cells it     |
|     might be more efficient to use real-space projection operators.         |
|     Therefore, try LREAL= Auto in the INCAR file.                           |
|     Mind: For very accurate calculation, you might also keep the            |
|     reciprocal projection scheme (i.e. LREAL=.FALSE.).                      |
|                                                                             |
 -----------------------------------------------------------------------------

 -----------------------------------------------------------------------------
|                                                                             |
|               ----> ADVICE to this user running VASP <----                  |
|                                                                             |
|     You enforced a specific xc type in the INCAR file but a different       |
|     type was found in the POTCAR file.                                      |
|     I HOPE YOU KNOW WHAT YOU ARE DOING!                                     |
|                                                                             |
 -----------------------------------------------------------------------------

  PAW_PBE H 15Jun2001                   :
 energy of atom  1       EATOM=  -12.4884
 kinetic energy error for atom=    0.0000 (will be added to EATOM!!)
  PAW_PBE Si 05Jan2001                  :
 energy of atom  2       EATOM= -103.0669
 kinetic energy error for atom=    0.0001 (will be added to EATOM!!)


 POSCAR:  H Si
  positions in cartesian coordinates
  No initial velocities read in


 exchange-correlation table for SCAN
   RHO(1)=    0.500       N(1)  =     2000
   RHO(2)=  100.500       N(2)  =     4000



--------------------------------------------------------------------------------------------------------


 ion  position               nearest neighbor table
   1  0.268  0.290  0.142-
   2  0.438  0.310  0.086-  20 0.68
   3  0.244  0.312  0.066-
   4  0.251  0.176  0.314-  68 1.57
   5  0.309  0.517  0.140-  77 1.39
   6  0.576  0.320  0.910-  79 1.60
   7  0.482  0.462  0.007- 100 1.57
   8  0.277  0.355  0.720-  29 0.78
   9  0.566  0.292  0.665-  79 1.49
  10  0.303  0.202  0.614-  63 1.44
  11  0.296  0.230  0.823-  15 0.76
  12  0.245  0.575  0.725-  62 1.50
  13  0.386  0.317  0.353-  23 0.72
  14  0.659  0.268  0.156-  81 1.55
  15  0.301  0.200  0.885-  11 0.76
  16  0.486  0.395  0.638-  25 0.72
  17  0.556  0.391  0.256-  58 1.48
  18  0.196  0.367  0.897-  97 1.50
  19  0.260  0.339  0.465-  27 0.70
  20  0.446  0.356  0.084-   2 0.68
  21  0.173  0.387  0.253- 108 1.48
  22  0.138  0.451  0.599-  69 1.45
  23  0.402  0.291  0.298-  13 0.72
  24  0.403  0.479  0.784- 100 1.54
  25  0.446  0.367  0.653-  16 0.72
  26  0.438  0.594  0.588-  92 1.36
  27  0.217  0.345  0.437-  19 0.70
  28  0.544  0.209  0.503-  41 1.55
  29  0.246  0.357  0.658-   8 0.78
  30  0.719  0.252  0.531-  94 1.48
  31  0.363  0.771  0.520-  92 2.35  34 2.39  89 2.39  98 2.42
  32  0.767  0.637  0.529- 106 2.19  73 2.47  51 2.48  67 2.49
  33  0.352  0.025  0.069-  75 2.34  57 2.38  95 2.56  55 2.58
  34  0.311  0.691  0.328-  76 2.28  85 2.28  31 2.39
  35  0.851  0.175  0.859-  45 2.34  70 2.40  90 2.40  66 2.45
  36  0.595  0.059  0.275-  41 2.28  44 2.37  95 2.46  87 2.47
  37  0.062  0.495  0.045- 108 2.31  97 2.34  59 2.38  72 2.47
  38  0.026  0.728  0.999- 110 2.34  72 2.53 109 2.56 113 2.75 102 3.12
  39  0.505  0.970  0.777-  86 2.35  80 2.36  75 2.36  52 2.45
  40  0.182  0.050  0.749-  55 2.37 107 2.48  63 2.50  53 2.61
  41  0.565  0.106  0.486-  28 1.55  36 2.28  82 2.37  80 2.44
  42  0.893  0.873  0.250-  78 2.21 111 2.25 110 2.37  48 2.43
  43  0.661  0.672  0.863-  65 2.26 106 2.41  88 2.44  91 2.46
  44  0.555  0.903  0.305- 103 2.20  36 2.37  84 2.38  89 2.45
  45  0.867  0.289  0.020-  61 2.28  56 2.33  35 2.34  81 2.38
  46  0.688  0.931  0.996-  86 2.37  84 2.37  88 2.39  78 2.51
  47  0.055  0.121  0.090-  70 2.34  56 2.41  55 2.41  93 2.49
  48  0.045  0.921  0.320-  93 2.31  50 2.37 112 2.42  42 2.43
  49  0.758  0.386  0.356-  73 2.36  94 2.38  58 2.39  81 2.44
  50  0.163  0.869  0.178- 109 2.30  48 2.37  76 2.42  57 2.46
  51  0.855  0.780  0.573- 111 2.26  83 2.35 102 2.41  32 2.48
  52  0.642  0.906  0.672- 103 2.34  88 2.39  39 2.45  82 2.49
  53  0.246  0.888  0.811-  98 2.37 109 2.41  75 2.41  40 2.61
  54  0.822  0.607  0.173-  73 2.20  59 2.30 110 2.32  91 2.39
  55  0.196  0.081  0.978-  40 2.37  47 2.41  33 2.58
  56  0.021  0.283  0.083-  45 2.33  97 2.38 108 2.40  47 2.41
  57  0.288  0.964  0.267-  68 2.36  89 2.36  33 2.38  50 2.46
  58  0.611  0.457  0.334-  17 1.48  49 2.39 101 2.48
  59  0.906  0.539  0.009-  54 2.30 113 2.38  37 2.38  61 2.39
  60  0.815  0.045  0.467- 104 2.32 111 2.34  82 2.37  87 2.40
  61  0.871  0.408  0.875-  45 2.28  64 2.31  74 2.35  59 2.39
  62  0.189  0.651  0.783-  12 1.50 105 2.35  98 2.36  72 2.37
  63  0.293  0.107  0.579-  10 1.44  68 2.40  80 2.41  40 2.50
  64  0.990  0.356  0.744-  97 2.29  61 2.31  69 2.37  90 2.42
  65  0.507  0.681  0.833-  43 2.26  96 2.33  92 2.39 100 2.52
  66  0.689  0.147  0.810-  82 2.28  79 2.34  86 2.41  35 2.45
  67  0.608  0.683  0.472-  92 2.25 103 2.45  32 2.49 101 2.49
  68  0.212  0.085  0.375-   4 1.57  93 2.28  57 2.36  63 2.40
  69  0.041  0.472  0.598-  22 1.45 114 2.35 105 2.35  64 2.37
  70  0.923  0.060  0.992-  78 2.24  47 2.34  35 2.40  71 2.43
  71  0.986  0.935  0.861- 107 2.34 109 2.34 102 2.41  70 2.43
  72  0.167  0.626  0.012-  62 2.37  77 2.42  37 2.47  76 2.53  38 2.53
  73  0.829  0.531  0.361-  54 2.20  49 2.36 114 2.41  32 2.47
  74  0.742  0.412  0.736-  61 2.35  94 2.37  79 2.38 106 2.48
  75  0.392  0.909  0.920-  33 2.34  39 2.36  96 2.40  53 2.41
  76  0.171  0.708  0.233-  34 2.28  50 2.42  99 2.53  72 2.53
  77  0.325  0.580  0.039-   5 1.39 100 2.25  85 2.33  72 2.42
  78  0.829  0.978  0.122-  42 2.21  70 2.24  87 2.41  46 2.51
  79  0.632  0.294  0.779-   9 1.49   6 1.60  66 2.34  74 2.38
  80  0.435  0.023  0.581-  39 2.36  89 2.41  63 2.41  41 2.44
  81  0.762  0.261  0.195-  14 1.55  45 2.38  49 2.44  87 2.48
  82  0.692  0.065  0.618-  66 2.28  41 2.37  60 2.37  52 2.49
  83  0.001  0.714  0.541-  99 2.23 105 2.32  51 2.35 112 2.40
  84  0.598  0.822  0.110-  96 2.34  46 2.37  44 2.38  91 2.43
  85  0.423  0.663  0.176-  34 2.28  77 2.33 101 2.37  96 2.40
  86  0.587  0.052  0.938-  95 2.31  39 2.35  46 2.37  66 2.41
  87  0.759  0.096  0.256-  60 2.40  78 2.41  36 2.47  81 2.48
  88  0.731  0.822  0.830- 102 2.25  46 2.39  52 2.39  43 2.44
  89  0.404  0.911  0.412-  57 2.36  31 2.39  80 2.41  44 2.45
  90  0.913  0.224  0.650- 104 2.36  94 2.37  35 2.40  64 2.42
  91  0.683  0.679  0.103-  54 2.39  84 2.43  43 2.46 101 2.50
  92  0.481  0.677  0.600-  26 1.36  67 2.25  31 2.35  65 2.39
  93  0.059  0.079  0.328-  68 2.28  48 2.31 104 2.44  47 2.49
  94  0.794  0.316  0.563-  30 1.48  74 2.37  90 2.37  49 2.38
  95  0.498  0.122  0.097-  86 2.31  36 2.46  33 2.56
  96  0.461  0.774  0.010-  65 2.33  84 2.34  85 2.40  75 2.40
  97  0.094  0.368  0.912-  18 1.50  64 2.29  37 2.34  56 2.38
  98  0.222  0.777  0.644-  62 2.36  53 2.37  31 2.42 112 2.49
  99  0.023  0.654  0.340-  83 2.23 110 2.29 114 2.38  76 2.53
 100  0.438  0.531  0.906-  24 1.54   7 1.57  77 2.25  65 2.52
 101  0.567  0.612  0.257-  85 2.37  58 2.48  67 2.49  91 2.50
 102  0.883  0.812  0.803-  88 2.25  51 2.41  71 2.41 113 2.50  38 3.12
 103  0.648  0.846  0.457-  44 2.20  52 2.34 111 2.36  67 2.45
 104  0.960  0.097  0.521-  60 2.32  90 2.36 107 2.37  93 2.44
 105  0.041  0.614  0.710-  83 2.32 113 2.33  62 2.35  69 2.35
 106  0.762  0.580  0.729-  32 2.19  43 2.41  74 2.48 113 2.51
 107  0.037  0.989  0.656-  71 2.34 104 2.37  40 2.48 112 2.52
 108  0.074  0.401  0.228-  21 1.48  37 2.31  56 2.40 114 2.42
 109  0.118  0.875  0.960-  50 2.30  71 2.34  53 2.41  38 2.56
 110  0.931  0.722  0.184-  99 2.29  54 2.32  38 2.34  42 2.37
 111  0.803  0.887  0.430-  42 2.25  51 2.26  60 2.34 103 2.36
 112  0.091  0.851  0.527-  83 2.40  48 2.42  98 2.49 107 2.52
 113  0.907  0.643  0.828- 105 2.33  59 2.38 102 2.50 106 2.51  38 2.75
 114  0.990  0.497  0.381-  69 2.35  99 2.38  73 2.41 108 2.42

  LATTYP: Found a simple tetragonal cell.
 ALAT       =    14.5860346134
 C/A-ratio  =     0.6929915377
  
  Lattice vectors:
  
 A1 = (  14.5860346134,   0.0000000000,   0.0000000000)
 A2 = (   0.0000000000,  14.5860346134,   0.0000000000)
 A3 = (   0.0000000000,   0.0000000000,  10.1079985562)


Analysis of symmetry for initial positions (statically):
=====================================================================
 Subroutine PRICEL returns:
 Original cell was already a primitive cell.
 

 Routine SETGRP: Setting up the symmetry group for a 
 simple tetragonal supercell.


 Subroutine GETGRP returns: Found  1 space group operations
 (whereof  1 operations were pure point group operations)
 out of a pool of 16 trial point group operations.


The static configuration has the point symmetry C_1 .


Analysis of symmetry for dynamics (positions and initial velocities):
=====================================================================
 Subroutine PRICEL returns:
 Original cell was already a primitive cell.
 

 Routine SETGRP: Setting up the symmetry group for a 
 simple tetragonal supercell.


 Subroutine GETGRP returns: Found  1 space group operations
 (whereof  1 operations were pure point group operations)
 out of a pool of 16 trial point group operations.


The dynamic configuration has the point symmetry C_1 .


 Subroutine INISYM returns: Found  1 space group operations
 (whereof  1 operations are pure point group operations),
 and found     1 'primitive' translations


----------------------------------------------------------------------------------------

                                     Primitive cell                                     

  volume of cell :    2150.5010

  direct lattice vectors                    reciprocal lattice vectors
    14.586034613  0.000000000  0.000000000     0.068558729  0.000000000  0.000000000
     0.000000000 14.586034613  0.000000000     0.000000000  0.068558729  0.000000000
     0.000000000  0.000000000 10.107998556     0.000000000  0.000000000  0.098931554

  length of vectors
    14.586034613 14.586034613 10.107998556     0.068558729  0.068558729  0.098931554

  position of ions in fractional coordinates (direct lattice)
     0.268474613  0.290466882  0.141812446
     0.438240424  0.310035600  0.086489427
     0.244420097  0.311776307  0.065875652
     0.250958543  0.175958036  0.313856396
     0.309455594  0.517444953  0.140143471
     0.575682852  0.320475724  0.909548013
     0.481656611  0.461950090  0.006717595
     0.277404388  0.354530216  0.719818069
     0.566146332  0.291742075  0.665168279
     0.303449849  0.202051488  0.614263048
     0.295989288  0.229562050  0.822987850
     0.245307247  0.574901282  0.725121789
     0.386417566  0.317442686  0.353238080
     0.659314218  0.267639568  0.156087280
     0.301051665  0.200215485  0.885234594
     0.486029972  0.394619933  0.638131274
     0.556256736  0.391136464  0.255721247
     0.196014892  0.366884499  0.896638434
     0.259697725  0.338510098  0.465055468
     0.446496267  0.355650465  0.084401476
     0.173071713  0.387201193  0.253350847
     0.138348088  0.450792157  0.598985048
     0.402040044  0.291364316  0.297628654
     0.402758540  0.479126794  0.783851517
     0.446060233  0.367286253  0.652961114
     0.438491349  0.593732308  0.588109502
     0.216590738  0.345019063  0.437217118
     0.544149950  0.208961522  0.503279652
     0.246221135  0.357258168  0.657850312
     0.719174215  0.251720916  0.530605537
     0.363262541  0.771086885  0.519892239
     0.767425849  0.637461123  0.528767389
     0.352188250  0.025282471  0.068764454
     0.311052326  0.691044569  0.327823553
     0.851341734  0.175394483  0.858792169
     0.594517306  0.058595912  0.274759636
     0.061850532  0.495358073  0.044936591
     0.026379000  0.727997724  0.998595315
     0.504824662  0.969948336  0.776871896
     0.181718340  0.050026345  0.749178975
     0.564596905  0.105577701  0.485692590
     0.893032297  0.873307951  0.249825916
     0.660655912  0.672221770  0.862590151
     0.554799863  0.902644231  0.305415556
     0.867219936  0.289186891  0.020472401
     0.688439337  0.931274357  0.995607582
     0.055291861  0.121248170  0.089559767
     0.044741358  0.921388188  0.320124699
     0.758012736  0.385501622  0.356356402
     0.162885257  0.868837922  0.177964014
     0.855304429  0.779821268  0.572572302
     0.641582873  0.905791077  0.671848137
     0.246467947  0.888486854  0.810620417
     0.821909471  0.606993623  0.173386451
     0.196183547  0.081157767  0.978294560
     0.020848847  0.282696436  0.082846371
     0.288459483  0.963599798  0.266900513
     0.611496561  0.457092018  0.334223435
     0.906360114  0.538532933  0.008617690
     0.815238707  0.044818075  0.467382338
     0.871189486  0.408385155  0.874639025
     0.189457935  0.651459444  0.782846372
     0.292653906  0.106855636  0.579030554
     0.989727529  0.355541457  0.743602204
     0.507046651  0.681087785  0.833167907
     0.689111213  0.146510690  0.809692439
     0.607908882  0.683129463  0.472462474
     0.211857443  0.084742017  0.375200885
     0.041062154  0.472462200  0.598216350
     0.923294121  0.059691755  0.991957008
     0.985984223  0.934853122  0.861457385
     0.166949419  0.626489669  0.012296005
     0.828827047  0.530621256  0.361078405
     0.741640911  0.411734934  0.736412848
     0.392117539  0.909225869  0.919536142
     0.170511045  0.707759187  0.233132206
     0.325062988  0.579929379  0.039249511
     0.828772200  0.978195951  0.121847069
     0.631623347  0.294393241  0.778776328
     0.434955776  0.023172439  0.581290150
     0.761872592  0.260825516  0.194906043
     0.692120941  0.064781555  0.617871082
     0.000995713  0.713888337  0.540614442
     0.597681291  0.822190562  0.110002984
     0.423184242  0.663084262  0.176468169
     0.587051260  0.051634321  0.938190676
     0.759404478  0.095908178  0.256372217
     0.730506973  0.822430518  0.829805223
     0.404009736  0.911392325  0.412033102
     0.913353105  0.223613894  0.649763646
     0.683233673  0.679475283  0.103174728
     0.481280909  0.676509433  0.599945673
     0.058791099  0.079374555  0.327874997
     0.794033492  0.316151725  0.563151050
     0.497698668  0.121880967  0.097391684
     0.461496231  0.773719541  0.009659904
     0.093994018  0.367662640  0.911995579
     0.221762123  0.777497127  0.643773341
     0.023215357  0.654128435  0.339582557
     0.438472839  0.531088140  0.906032975
     0.566710571  0.611729660  0.256558208
     0.883084426  0.811701077  0.803231219
     0.647556396  0.846158694  0.456811502
     0.960370681  0.097325287  0.521221879
     0.041390687  0.613985243  0.710088150
     0.761564078  0.580225553  0.729197769
     0.036902970  0.988808842  0.656420751
     0.074168890  0.401226252  0.228444829
     0.118397498  0.875193316  0.959819092
     0.931054969  0.722279926  0.184335206
     0.803076389  0.887252796  0.429789337
     0.091187224  0.851403437  0.526501856
     0.906860593  0.642721634  0.827703917
     0.989706962  0.497148142  0.380882524

  ion indices of the primitive-cell ions
   primitive index   ion index
                 1           1
                 2           2
                 3           3
                 4           4
                 5           5
                 6           6
                 7           7
                 8           8
                 9           9
                10          10
                11          11
                12          12
                13          13
                14          14
                15          15
                16          16
                17          17
                18          18
                19          19
                20          20
                21          21
                22          22
                23          23
                24          24
                25          25
                26          26
                27          27
                28          28
                29          29
                30          30
                31          31
                32          32
                33          33
                34          34
                35          35
                36          36
                37          37
                38          38
                39          39
                40          40
                41          41
                42          42
                43          43
                44          44
                45          45
                46          46
                47          47
                48          48
                49          49
                50          50
                51          51
                52          52
                53          53
                54          54
                55          55
                56          56
                57          57
                58          58
                59          59
                60          60
                61          61
                62          62
                63          63
                64          64
                65          65
                66          66
                67          67
                68          68
                69          69
                70          70
                71          71
                72          72
                73          73
                74          74
                75          75
                76          76
                77          77
                78          78
                79          79
                80          80
                81          81
                82          82
                83          83
                84          84
                85          85
                86          86
                87          87
                88          88
                89          89
                90          90
                91          91
                92          92
                93          93
                94          94
                95          95
                96          96
                97          97
                98          98
                99          99
               100         100
               101         101
               102         102
               103         103
               104         104
               105         105
               106         106
               107         107
               108         108
               109         109
               110         110
               111         111
               112         112
               113         113
               114         114

----------------------------------------------------------------------------------------


 -----------------------------------------------------------------------------
|                                                                             |
|           W    W    AA    RRRRR   N    N  II  N    N   GGGG   !!!           |
|           W    W   A  A   R    R  NN   N  II  NN   N  G    G  !!!           |
|           W    W  A    A  R    R  N N  N  II  N N  N  G       !!!           |
|           W WW W  AAAAAA  RRRRR   N  N N  II  N  N N  G  GGG   !            |
|           WW  WW  A    A  R   R   N   NN  II  N   NN  G    G                |
|           W    W  A    A  R    R  N    N  II  N    N   GGGG   !!!           |
|                                                                             |
|     The requested file  could not be found or opened for reading            |
|     k-point information. Automatic k-point generation is used as a          |
|     fallback, which may lead to unwanted results.                           |
|                                                                             |
 -----------------------------------------------------------------------------



Automatic generation of k-mesh.
 Grid dimensions derived from KSPACING:
 generate k-points for:    2    2    3

 Generating k-lattice:

  Cartesian coordinates                     Fractional coordinates (reciprocal lattice)
     0.034279365  0.000000000  0.000000000     0.500000000  0.000000000  0.000000000
     0.000000000  0.034279365  0.000000000     0.000000000  0.500000000  0.000000000
     0.000000000  0.000000000  0.032977185     0.000000000  0.000000000  0.333333333

  Length of vectors
     0.034279365  0.034279365  0.032977185

  Shift w.r.t. Gamma in fractional coordinates (k-lattice)
     0.000000000  0.000000000  0.000000000

 
 Subroutine IBZKPT returns following result:
 ===========================================
 
 Found      8 irreducible k-points:
 
 Following reciprocal coordinates:
            Coordinates               Weight
  0.000000  0.000000  0.000000      1.000000
  0.500000  0.000000  0.000000      1.000000
  0.000000  0.500000  0.000000      1.000000
  0.500000  0.500000  0.000000      1.000000
  0.000000  0.000000  0.333333      2.000000
  0.500000  0.000000  0.333333      2.000000
  0.000000  0.500000  0.333333      2.000000
  0.500000  0.500000  0.333333      2.000000
 
 Following cartesian coordinates:
            Coordinates               Weight
  0.000000  0.000000  0.000000      1.000000
  0.034279  0.000000  0.000000      1.000000
  0.000000  0.034279  0.000000      1.000000
  0.034279  0.034279  0.000000      1.000000
  0.000000  0.000000  0.032977      2.000000
  0.034279  0.000000  0.032977      2.000000
  0.000000  0.034279  0.032977      2.000000
  0.034279  0.034279  0.032977      2.000000
 


--------------------------------------------------------------------------------------------------------




 Dimension of arrays:
   k-points           NKPTS =      8   k-points in BZ     NKDIM =      8   number of bands    NBANDS=    248
   number of dos      NEDOS =   2000   number of ions     NIONS =    114
   non local maximal  LDIM  =      4   non local SUM 2l+1 LMDIM =      8
   total plane-waves  NPLWV = ******
   max r-space proj   IRMAX =      1   max aug-charges    IRDMAX= 421411
   dimension x,y,z NGX =   168 NGY =  168 NGZ =  120
   dimension x,y,z NGXF=   336 NGYF=  336 NGZF=  240
   support grid    NGXF=   672 NGYF=  672 NGZF=  480
   ions per type =              30  84
   NGX,Y,Z   is equivalent  to a cutoff of  19.15, 19.15, 19.74 a.u.
   NGXF,Y,Z  is equivalent  to a cutoff of  38.30, 38.30, 39.47 a.u.

 SYSTEM =  a-Si SPC                                
 POSCAR =   H Si                                   

 Startparameter for this run:
   NWRITE =      2    write-flag & timer
   PREC   = accura    normal or accurate (medium, high low for compatibility)
   ISTART =      1    job   : 0-new  1-cont  2-samecut
   ICHARG =      1    charge: 1-file 2-atom 10-const
   ISPIN  =      1    spin polarized calculation?
   LNONCOLLINEAR =      F non collinear calculations
   LSORBIT =      F    spin-orbit coupling
   INIWAV =      1    electr: 0-lowe 1-rand  2-diag
   LASPH  =      T    aspherical Exc in radial PAW
 Electronic Relaxation 1
   ENCUT  = 1200.0 eV  88.20 Ry    9.39 a.u.  41.20 41.20 28.55*2*pi/ulx,y,z
   ENINI  = 1200.0     initial cutoff
   ENAUG  =  400.0 eV  augmentation charge cutoff
   NELM   =    150;   NELMIN=  2; NELMDL=  0     # of ELM steps 
   EDIFF  = 0.1E-05   stopping-criterion for ELM
   LREAL  =      F    real-space projection
   NLSPLINE    = F    spline interpolate recip. space projectors
   LCOMPAT=      F    compatible to vasp.4.4
   GGA_COMPAT  = T    GGA compatible to vasp.4.4-vasp.4.6
   LMAXPAW     = -100 max onsite density
   LMAXMIX     =    2 max onsite mixed and CHGCAR
   VOSKOWN=      0    Vosko Wilk Nusair interpolation
   ROPT   =    0.00000   0.00000
 Ionic relaxation
   EDIFFG = -.1E-01   stopping-criterion for IOM
   NSW    =      0    number of steps for IOM
   NBLOCK =      1;   KBLOCK =      1    inner block; outer block 
   IBRION =     -1    ionic relax: 0-MD 1-quasi-New 2-CG
   NFREE  =      0    steps in history (QN), initial steepest desc. (CG)
   ISIF   =      2    stress and relaxation
   IWAVPR =     10    prediction:  0-non 1-charg 2-wave 3-comb
   ISYM   =      1    0-nonsym 1-usesym 2-fastsym
   LCORR  =      T    Harris-Foulkes like correction to forces

   POTIM  = 0.5000    time-step for ionic-motion
   TEIN   =    0.0    initial temperature
   TEBEG  =    0.0;   TEEND  =   0.0 temperature during run
   SMASS  =  -3.00    Nose mass-parameter (am)
   estimated Nose-frequenzy (Omega)   =  0.10E-29 period in steps = 0.13E+47 mass=  -0.486E-26a.u.
   SCALEE = 1.0000    scale energy and forces
   NPACO  =    256;   APACO  = 10.0  distance and # of slots for P.C.
   PSTRESS=    0.0 pullay stress

  Mass of Ions in am
   POMASS =   1.00 28.09
  Ionic Valenz
   ZVAL   =   1.00  4.00
  Atomic Wigner-Seitz radii
   RWIGS  =  -1.00 -1.00
  virtual crystal weights 
   VCA    =   1.00  1.00
   NELECT =     366.0000    total number of electrons
   NUPDOWN=      -1.0000    fix difference up-down

 DOS related values:
   EMIN   =  10.00;   EMAX   =-10.00  energy-range for DOS
   EFERMI =   0.00;   METHOD = LEGACY      
   ISMEAR =     0;   SIGMA  =   0.10  broadening in eV -4-tet -1-fermi 0-gaus
   EFERMI_NEDOS =   21; number of points for ismear=-14 and -15

 Electronic relaxation 2 (details)
   IALGO  =     38    algorithm
   LDIAG  =      F    sub-space diagonalisation (order eigenvalues)
   LSUBROT=      F    optimize rotation matrix (better conditioning)
   TURBO    =      0    0=normal 1=particle mesh
   IRESTART =      0    0=no restart 2=restart with 2 vectors
   NREBOOT  =      0    no. of reboots
   NMIN     =      0    reboot dimension
   EREF     =   0.00    reference energy to select bands
   IMIX   =      4    mixing-type and parameters
     AMIX     =   0.40;   BMIX     =  1.00
     AMIX_MAG =   1.60;   BMIX_MAG =  1.00
     AMIN     =   0.10
     WC   =   100.;   INIMIX=   1;  MIXPRE=   1;  MAXMIX= -45

 Intra band minimization:
   WEIMIN = 0.0000     energy-eigenvalue tresh-hold
   EBREAK =  0.10E-08  absolut break condition
   DEPER  =   0.30     relativ break condition  

   TIME   =   0.40     timestep for ELM

  volume/ion in A,a.u.               =      18.86       127.30
  Fermi-wavevector in a.u.,A,eV,Ry     =   0.907240  1.714434 11.198732  0.823084
  Thomas-Fermi vector in A             =   2.031023

 Write flags
   LWAVE        =      F    write WAVECAR
   LDOWNSAMPLE  =      F    k-point downsampling of WAVECAR
   LCHARG       =      F    write CHGCAR
   LVTOT        =      F    write LOCPOT, total local potential
   LVHAR        =      F    write LOCPOT, Hartree potential only
   WRT_POTENTIAL= false  ! write potential to hdf5 file
   LELF         =      F    write electronic localiz. function (ELF)
   LORBIT       =     11    0 simple, 1 ext, 2 COOP (PROOUT), +10 PAW based schemes


 Python interface
   PLUGINS active      =      F    recompile with -DPLUGINS to activate

 Dipole corrections
   LMONO      =      F    monopole corrections only (constant potential shift)
   LDIPOL     =      F    correct potential (dipole corrections)
   IDIPOL     =      0    1-x, 2-y, 3-z, 4-all directions 
   EPSILON    =  1.0000000 bulk dielectric constant
   LVACPOTAV  =      F  vacuum potentials using an averaging scheme for the charge density
   VACPOTFLAT =  0.1000000 required flatness to determine vacuum potential

Coulomb truncation method
  LTRUNCATE          =      F  Coulomb kernel truncation to be used
  IDIMENSIONALITY    =      3  Dimensionality of cutoff (0 molecules / 2 surfaces)
  ISURFACE           =     -1  Direction of surface normal
  LCOARSEN           =      F  Coarsen the charge grid before padding, preferred


 Exchange correlation treatment:
   METAGGA = SCAN    functional components
   XC_C    = 1    coefficients multiplying the functional components
   LIBXC   =     F    Libxc                    
   VOSKOWN =     0    Vosko Wilk Nusair interpolation
   LHFCALC =     F    Hartree Fock is set to
   LHFONE  =     F    Hartree Fock one center treatment
   AEXX    =    0.0000 exact exchange contribution

 Parameters of functionals:
   SCAN:
     P1 =  0.000000E+00
     P2 =  0.000000E+00
     P3 =  0.000000E+00

 Accuracy and mixing parameters for tau-dependent meta-GGA functionals:
   LMAXTAU = 6
   LMIXTAU = T

 Van der Waals corrections
   IVDW    =     0    specifies the selected vdW correction

 Linear response parameters
   LEPSILON=     F    determine dielectric tensor
   LRPA    =     F    only Hartree local field effects (RPA)
   LNABLA  =     F    use nabla operator in PAW spheres
   LVEL    =     F    velocity operator in full k-point grid
   CSHIFT  =0.1000    complex shift for real part using Kramers Kronig
   OMEGAMAX=  -1.0    maximum frequency
   DEG_THRESHOLD= 0.2000000E-02 threshold for treating states as degnerate
   RTIME   =   -0.100 relaxation time in fs
  (WPLASMAI=    0.000 imaginary part of plasma frequency in eV, 0.658/RTIME)
   DFIELD  = 0.0000000 0.0000000 0.0000000 field for delta impulse in time

  Optional k-point grid parameters
   LKPOINTS_OPT  =     F    use optional k-point grid
   KPOINTS_OPT_MODE=     1    mode for optional k-point grid

 Orbital magnetization related:
   ORBITALMAG=     F  switch on orbital magnetization
   LCHIMAG   =     F  perturbation theory with respect to B field
   DQ        =  0.001000  dq finite difference perturbation B field
   LLRAUG    =     F  two centre corrections for induced B field
   LBONE     =     F  B-component reconstruction in AE one-centre
   LVGVCALC  =     T  calculate vGv susceptibility
   LVGVAPPL  =     F  apply vGv susceptibility instead of pGv for G=0

 Random number generation:
   RANDOM_GENERATOR = DEFAULT
   PCG_SEED         = not used


--------------------------------------------------------------------------------------------------------


 Static calculation
 charge density and potential will be updated during run
 non-spin polarized calculation
 Variant of blocked Davidson
 perform Loewdin sub-space diagonalisation
    ordering is kept fixed
    before iterative eigenvector-optimisation
 modified Broyden-mixing scheme, WC =      100.0
 initial mixing is a Kerker type mixing with AMIX =  0.4000 and BMIX =      1.0000
 Hartree-type preconditioning will be used
 using additional bands           65
 reciprocal scheme for non local part
 use partial core corrections
 calculate Harris-corrections to forces   (improved forces if not selfconsistent)
 use gradient corrections 
 use of overlap-Matrix (Vanderbilt PP)
 Gauss-broadening in eV      SIGMA  =   0.10


--------------------------------------------------------------------------------------------------------


  energy-cutoff  :     1200.00
  volume of cell :     2150.50
      direct lattice vectors                 reciprocal lattice vectors
    14.586034613  0.000000000  0.000000000     0.068558729  0.000000000  0.000000000
     0.000000000 14.586034613  0.000000000     0.000000000  0.068558729  0.000000000
     0.000000000  0.000000000 10.107998556     0.000000000  0.000000000  0.098931554

  length of vectors
    14.586034613 14.586034613 10.107998556     0.068558729  0.068558729  0.098931554



 old parameters found on file WAVECAR:
  energy-cutoff  :     1200.00
  volume of cell :     2150.50
      direct lattice vectors                 reciprocal lattice vectors
    14.586034613  0.000000000  0.000000000     0.068558729  0.000000000  0.000000000
     0.000000000 14.586034613  0.000000000     0.000000000  0.068558729  0.000000000
     0.000000000  0.000000000 10.107998556     0.000000000  0.000000000  0.098931554

  length of vectors


 k-points in units of 2pi/SCALE and weight: read from INCAR                         
   0.00000000  0.00000000  0.00000000       0.083
   0.03427936  0.00000000  0.00000000       0.083
   0.00000000  0.03427936  0.00000000       0.083
   0.03427936  0.03427936  0.00000000       0.083
   0.00000000  0.00000000  0.03297718       0.167
   0.03427936  0.00000000  0.03297718       0.167
   0.00000000  0.03427936  0.03297718       0.167
   0.03427936  0.03427936  0.03297718       0.167

 k-points in reciprocal lattice and weights: read from INCAR                         
   0.00000000  0.00000000  0.00000000       0.083
   0.50000000  0.00000000  0.00000000       0.083
   0.00000000  0.50000000  0.00000000       0.083
   0.50000000  0.50000000  0.00000000       0.083
   0.00000000  0.00000000  0.33333333       0.167
   0.50000000  0.00000000  0.33333333       0.167
   0.00000000  0.50000000  0.33333333       0.167
   0.50000000  0.50000000  0.33333333       0.167

 position of ions in fractional coordinates (direct lattice) 
   0.26847461  0.29046688  0.14181245
   0.43824042  0.31003560  0.08648943
   0.24442010  0.31177631  0.06587565
   0.25095854  0.17595804  0.31385640
   0.30945559  0.51744495  0.14014347
   0.57568285  0.32047572  0.90954801
   0.48165661  0.46195009  0.00671760
   0.27740439  0.35453022  0.71981807
   0.56614633  0.29174207  0.66516828
   0.30344985  0.20205149  0.61426305
   0.29598929  0.22956205  0.82298785
   0.24530725  0.57490128  0.72512179
   0.38641757  0.31744269  0.35323808
   0.65931422  0.26763957  0.15608728
   0.30105166  0.20021549  0.88523459
   0.48602997  0.39461993  0.63813127
   0.55625674  0.39113646  0.25572125
   0.19601489  0.36688450  0.89663843
   0.25969772  0.33851010  0.46505547
   0.44649627  0.35565047  0.08440148
   0.17307171  0.38720119  0.25335085
   0.13834809  0.45079216  0.59898505
   0.40204004  0.29136432  0.29762865
   0.40275854  0.47912679  0.78385152
   0.44606023  0.36728625  0.65296111
   0.43849135  0.59373231  0.58810950
   0.21659074  0.34501906  0.43721712
   0.54414995  0.20896152  0.50327965
   0.24622114  0.35725817  0.65785031
   0.71917422  0.25172092  0.53060554
   0.36326254  0.77108689  0.51989224
   0.76742585  0.63746112  0.52876739
   0.35218825  0.02528247  0.06876445
   0.31105233  0.69104457  0.32782355
   0.85134173  0.17539448  0.85879217
   0.59451731  0.05859591  0.27475964
   0.06185053  0.49535807  0.04493659
   0.02637900  0.72799772  0.99859531
   0.50482466  0.96994834  0.77687190
   0.18171834  0.05002635  0.74917898
   0.56459691  0.10557770  0.48569259
   0.89303230  0.87330795  0.24982592
   0.66065591  0.67222177  0.86259015
   0.55479986  0.90264423  0.30541556
   0.86721994  0.28918689  0.02047240
   0.68843934  0.93127436  0.99560758
   0.05529186  0.12124817  0.08955977
   0.04474136  0.92138819  0.32012470
   0.75801274  0.38550162  0.35635640
   0.16288526  0.86883792  0.17796401
   0.85530443  0.77982127  0.57257230
   0.64158287  0.90579108  0.67184814
   0.24646795  0.88848685  0.81062042
   0.82190947  0.60699362  0.17338645
   0.19618355  0.08115777  0.97829456
   0.02084885  0.28269644  0.08284637
   0.28845948  0.96359980  0.26690051
   0.61149656  0.45709202  0.33422344
   0.90636011  0.53853293  0.00861769
   0.81523871  0.04481808  0.46738234
   0.87118949  0.40838515  0.87463902
   0.18945794  0.65145944  0.78284637
   0.29265391  0.10685564  0.57903055
   0.98972753  0.35554146  0.74360220
   0.50704665  0.68108778  0.83316791
   0.68911121  0.14651069  0.80969244
   0.60790888  0.68312946  0.47246247
   0.21185744  0.08474202  0.37520088
   0.04106215  0.47246220  0.59821635
   0.92329412  0.05969175  0.99195701
   0.98598422  0.93485312  0.86145738
   0.16694942  0.62648967  0.01229600
   0.82882705  0.53062126  0.36107841
   0.74164091  0.41173493  0.73641285
   0.39211754  0.90922587  0.91953614
   0.17051104  0.70775919  0.23313221
   0.32506299  0.57992938  0.03924951
   0.82877220  0.97819595  0.12184707
   0.63162335  0.29439324  0.77877633
   0.43495578  0.02317244  0.58129015
   0.76187259  0.26082552  0.19490604
   0.69212094  0.06478155  0.61787108
   0.00099571  0.71388834  0.54061444
   0.59768129  0.82219056  0.11000298
   0.42318424  0.66308426  0.17646817
   0.58705126  0.05163432  0.93819068
   0.75940448  0.09590818  0.25637222
   0.73050697  0.82243052  0.82980522
   0.40400974  0.91139233  0.41203310
   0.91335310  0.22361389  0.64976365
   0.68323367  0.67947528  0.10317473
   0.48128091  0.67650943  0.59994567
   0.05879110  0.07937455  0.32787500
   0.79403349  0.31615172  0.56315105
   0.49769867  0.12188097  0.09739168
   0.46149623  0.77371954  0.00965990
   0.09399402  0.36766264  0.91199558
   0.22176212  0.77749713  0.64377334
   0.02321536  0.65412844  0.33958256
   0.43847284  0.53108814  0.90603297
   0.56671057  0.61172966  0.25655821
   0.88308443  0.81170108  0.80323122
   0.64755640  0.84615869  0.45681150
   0.96037068  0.09732529  0.52122188
   0.04139069  0.61398524  0.71008815
   0.76156408  0.58022555  0.72919777
   0.03690297  0.98880884  0.65642075
   0.07416889  0.40122625  0.22844483
   0.11839750  0.87519332  0.95981909
   0.93105497  0.72227993  0.18433521
   0.80307639  0.88725280  0.42978934
   0.09118722  0.85140344  0.52650186
   0.90686059  0.64272163  0.82770392
   0.98970696  0.49714814  0.38088252

 position of ions in cartesian coordinates  (Angst):
   3.91598000  4.23676000  1.43344000
   6.39219000  4.52219000  0.87423500
   3.56512000  4.54758000  0.66587100
   3.66049000  2.56653000  3.17246000
   4.51373000  7.54747000  1.41657000
   8.39693000  4.67447000  9.19371000
   7.02546000  6.73802000  0.06790144
   4.04623000  5.17119000  7.27592000
   8.25783000  4.25536000  6.72352000
   4.42613000  2.94713000  6.20897000
   4.31731000  3.34840000  8.31876000
   3.57806000  8.38553000  7.32953000
   5.63630000  4.63023000  3.57053000
   9.61678000  3.90380000  1.57773000
   4.39115000  2.92035000  8.94795000
   7.08925000  5.75594000  6.45023000
   8.11358000  5.70513000  2.58483000
   2.85908000  5.35139000  9.06322000
   3.78796000  4.93752000  4.70078000
   6.51261000  5.18753000  0.85313000
   2.52443000  5.64773000  2.56087000
   2.01795000  6.57527000  6.05454000
   5.86417000  4.24985000  3.00843000
   5.87465000  6.98856000  7.92317000
   6.50625000  5.35725000  6.60013000
   6.39585000  8.66020000  5.94461000
   3.15920000  5.03246000  4.41939000
   7.93699000  3.04792000  5.08715000
   3.59139000  5.21098000  6.64955000
  10.48990000  3.67161000  5.36336000
   5.29856000 11.24710000  5.25507000
  11.19370000  9.29803000  5.34478000
   5.13703000  0.36877100  0.69507100
   4.53702000 10.07960000  3.31364000
  12.41770000  2.55831000  8.68067000
   8.67165000  0.85468200  2.77727000
   0.90215400  7.22531000  0.45421900
   0.38476500 10.61860000 10.09380000
   7.36339000 14.14770000  7.85262000
   2.65055000  0.72968600  7.57270000
   8.23523000  1.53996000  4.90938000
  13.02580000 12.73810000  2.52524000
   9.63635000  9.80505000  8.71906000
   8.09233000 13.16600000  3.08714000
  12.64930000  4.21809000  0.20693500
  10.04160000 13.58360000 10.06360000
   0.80648900  1.76853000  0.90527000
   0.65259900 13.43940000  3.23582000
  11.05640000  5.62294000  3.60205000
   2.37585000 12.67290000  1.79886000
  12.47550000 11.37450000  5.78756000
   9.35815000 13.21190000  6.79104000
   3.59499000 12.95950000  8.19375000
  11.98840000  8.85363000  1.75259000
   2.86154000  1.18377000  9.88860000
   0.30410200  4.12342000  0.83741100
   4.20748000 14.05510000  2.69783000
   8.91931000  6.66716000  3.37833000
  13.22020000  7.85506000  0.08710760
  11.89110000  0.65371800  4.72430000
  12.70720000  5.95672000  8.84085000
   2.76344000  9.50221000  7.91301000
   4.26866000  1.55860000  5.85284000
  14.43620000  5.18594000  7.51633000
   7.39580000  9.93437000  8.42166000
  10.05140000  2.13701000  8.18437000
   8.86698000  9.96415000  4.77565000
   3.09016000  1.23605000  3.79253000
   0.59893400  6.89135000  6.04677000
  13.46720000  0.87066600 10.02670000
  14.38160000 13.63580000  8.70761000
   2.43513000  9.13800000  0.12428800
  12.08930000  7.73966000  3.64978000
  10.81760000  6.00558000  7.44366000
   5.71944000 13.26200000  9.29467000
   2.48708000 10.32340000  2.35650000
   4.74138000  8.45887000  0.39673400
  12.08850000 14.26800000  1.23163000
   9.21288000  4.29403000  7.87187000
   6.34428000  0.33799400  5.87568000
  11.11270000  3.80441000  1.97011000
  10.09530000  0.94490600  6.24544000
   0.01452350 10.41280000  5.46453000
   8.71780000 11.99250000  1.11191000
   6.17258000  9.67177000  1.78374000
   8.56275000  0.75314000  9.48323000
  11.07670000  1.39892000  2.59141000
  10.65520000 11.99600000  8.38767000
   5.89290000 13.29360000  4.16483000
  13.32220000  3.26164000  6.56781000
   9.96567000  9.91085000  1.04289000
   7.01998000  9.86759000  6.06425000
   0.85752900  1.15776000  3.31416000
  11.58180000  4.61140000  5.69233000
   7.25945000  1.77776000  0.98443500
   6.73140000 11.28550000  0.09764230
   1.37100000  5.36274000  9.21845000
   3.23463000 11.34060000  6.50726000
   0.33862000  9.54114000  3.43250000
   6.39558000  7.74647000  9.15818000
   8.26606000  8.92271000  2.59329000
  12.88070000 11.83950000  8.11906000
   9.44528000 12.34210000  4.61745000
  14.00800000  1.41959000  5.26851000
   0.60372600  8.95561000  7.17757000
  11.10820000  8.46319000  7.37073000
   0.53826800 14.42280000  6.63510000
   1.08183000  5.85230000  2.30912000
   1.72695000 12.76560000  9.70185000
  13.58040000 10.53520000  1.86326000
  11.71370000 12.94150000  4.34431000
   1.33006000 12.41860000  5.32188000
  13.22750000  9.37476000  8.36643000
  14.43590000  7.25142000  3.84996000



--------------------------------------------------------------------------------------------------------


 k-point     1 :   0.0000 0.0000 0.0000  plane waves:  202865
 k-point     2 :   0.5000 0.0000 0.0000  plane waves:  203054
 k-point     3 :   0.0000 0.5000 0.0000  plane waves:  203054
 k-point     4 :   0.5000 0.5000 0.0000  plane waves:  203020
 k-point     5 :   0.0000 0.0000 0.3333  plane waves:  203009
 k-point     6 :   0.5000 0.0000 0.3333  plane waves:  202964
 k-point     7 :   0.0000 0.5000 0.3333  plane waves:  202964
 k-point     8 :   0.5000 0.5000 0.3333  plane waves:  203012

 maximum and minimum number of plane-waves per node :     12746    12630

 maximum number of plane-waves:    203054
 maximum index in each direction: 
   IXMAX=   41   IYMAX=   41   IZMAX=   28
   IXMIN=  -41   IYMIN=  -41   IZMIN=  -28


 parallel 3D FFT for wavefunctions:
    minimum data exchange during FFTs selected (reduces bandwidth)
 parallel 3D FFT for charge:
    minimum data exchange during FFTs selected (reduces bandwidth)


 total amount of memory used by VASP MPI-rank0   189274. kBytes
=======================================================================

   base                                    :      30000. kBytes
   nonl-proj                               :      36135. kBytes
   fftplans                                :      40941. kBytes
   grid                                    :      31575. kBytes
   one-center                              :         24. kBytes
   wavefun                                 :      50599. kBytes

     INWAV:  cpu time      8.8897: real time      8.8936
 Broyden mixing: mesh for mixing (old mesh)
   NGX = 83   NGY = 83   NGZ = 57
  (NGX  =336   NGY  =336   NGZ  =240)
  gives a total of 392673 points

 initial charge density was supplied:
 number of electron     365.9999999 magnetization 
 keeping initial charge density in first step


--------------------------------------------------------------------------------------------------------


 Maximum index for augmentation-charges        11524 (set IRDMAX)


--------------------------------------------------------------------------------------------------------


 First call to EWALD:  gamma=   0.137
 Maximum number of real-space cells   2x   2x   3
 Maximum number of reciprocal cells   3x   3x   2

    FEWALD:  cpu time      0.0170: real time      0.0170


--------------------------------------- Ionic step        1  -------------------------------------------




--------------------------------------- Iteration      1(   1)  ---------------------------------------


    POTLOK:  cpu time      0.7205: real time      0.7219
    SETDIJ:  cpu time      1.4863: real time      1.4873
    EDDIAG:  cpu time     21.0064: real time     21.0246
     EDDAV:  cpu time    101.4679: real time    101.5559
       DOS:  cpu time      0.0102: real time      0.0102
    CHARGE:  cpu time      9.3004: real time      9.3083
    MIXING:  cpu time      0.0240: real time      0.0247
    --------------------------------------------
      LOOP:  cpu time    134.0158: real time    134.1330

 eigenvalue-minimisations  :  4184
 total energy-change (2. order) :-0.9784025E+03  (-0.1071755E+01)
 number of electron     365.9999999 magnetization 
 augmentation part      -18.0987966 magnetization 

 Broyden mixing:
  rms(total) = 0.11961E+01    rms(broyden)= 0.46721E+02
  rms(prec ) = 0.12922E+01
  weight for this iteration     100.00
  WARNING: grid for Broyden might be to small

 Free energy of the ion-electron system (eV)
  ---------------------------------------------------
  alpha Z        PSCENC =       132.75229407
  Ewald energy   TEWEN  =     -7534.27877492
  -Hartree energ DENC   =     -2507.04687584
  -exchange      EXHF   =         0.00000000
  -V(xc)+E(xc)   XCENC  =      -313.54795979
  PAW double counting   =     33082.98133410   -32246.27170645
  entropy T*S    EENTRO =        -0.09439428
  eigenvalues    EBANDS =      -625.16146035
  atomic energy  EATOM  =      9032.26506786
  Solvation  Ediel_sol  =         0.00000000
  ---------------------------------------------------
  free energy    TOTEN  =      -978.40247561 eV

  energy without entropy =     -978.30808133  energy(sigma->0) =     -978.35527847


--------------------------------------------------------------------------------------------------------




--------------------------------------- Iteration      1(   2)  ---------------------------------------


    POTLOK:  cpu time      0.7123: real time      0.7353
    SETDIJ:  cpu time      1.4824: real time      1.4830
    EDDIAG:  cpu time     20.8784: real time     20.8964
     EDDAV:  cpu time     98.7043: real time     98.7922
       DOS:  cpu time      0.0037: real time      0.0037
    CHARGE:  cpu time      9.1566: real time      9.1645
    MIXING:  cpu time      0.0170: real time      0.0172
    --------------------------------------------
      LOOP:  cpu time    130.9547: real time    131.0923

 eigenvalue-minimisations  :  3992
 total energy-change (2. order) : 0.6575716E+02  (-0.1055667E+01)
 number of electron     365.9999999 magnetization 
 augmentation part      -18.0295869 magnetization 

 Broyden mixing:
  rms(total) = 0.79793E+00    rms(broyden)= 0.26793E+02
  rms(prec ) = 0.85228E+00
  weight for this iteration     100.00
  WARNING: grid for Broyden might be to small

 eigenvalues of (default mixing * dielectric matrix)
  average eigenvalue GAMMA=   0.6355
  0.6355

 Free energy of the ion-electron system (eV)
  ---------------------------------------------------
  alpha Z        PSCENC =       132.75229407
  Ewald energy   TEWEN  =     -7534.27877492
  -Hartree energ DENC   =     -2495.79663666
  -exchange      EXHF   =         0.00000000
  -V(xc)+E(xc)   XCENC  =      -306.24000237
  PAW double counting   =     39669.36959536   -38832.39442070
  entropy T*S    EENTRO =        -0.10170586
  eigenvalues    EBANDS =      -578.22073688
  atomic energy  EATOM  =      9032.26506786
  Solvation  Ediel_sol  =         0.00000000
  ---------------------------------------------------
  free energy    TOTEN  =      -912.64532009 eV

  energy without entropy =     -912.54361423  energy(sigma->0) =     -912.59446716


--------------------------------------------------------------------------------------------------------




--------------------------------------- Iteration      1(   3)  ---------------------------------------


    POTLOK:  cpu time      0.7070: real time      0.7308
    SETDIJ:  cpu time      1.4795: real time      1.4801
    EDDIAG:  cpu time     20.9625: real time     20.9801
     EDDAV:  cpu time     98.5874: real time     98.6765
       DOS:  cpu time      0.0035: real time      0.0035
    CHARGE:  cpu time      9.1988: real time      9.2069
    MIXING:  cpu time      0.0142: real time      0.0142
    --------------------------------------------
      LOOP:  cpu time    130.9529: real time    131.0921

 eigenvalue-minimisations  :  3968
 total energy-change (2. order) :-0.2945089E+01  (-0.8269193E+00)
 number of electron     365.9999999 magnetization 
 augmentation part      -17.9763693 magnetization 

 Broyden mixing:
  rms(total) = 0.49317E+00    rms(broyden)= 0.19812E+02
  rms(prec ) = 0.59894E+00
  weight for this iteration     100.00
  WARNING: grid for Broyden might be to small

 eigenvalues of (default mixing * dielectric matrix)
  average eigenvalue GAMMA=   0.7058
  0.7876  0.6239

 Free energy of the ion-electron system (eV)
  ---------------------------------------------------
  alpha Z        PSCENC =       132.75229407
  Ewald energy   TEWEN  =     -7534.27877492
  -Hartree energ DENC   =     -2500.06237828
  -exchange      EXHF   =         0.00000000
  -V(xc)+E(xc)   XCENC  =      -310.61712997
  PAW double counting   =     44992.18228557   -44155.29156523
  entropy T*S    EENTRO =        -0.04454812
  eigenvalues    EBANDS =      -572.49566050
  atomic energy  EATOM  =      9032.26506786
  Solvation  Ediel_sol  =         0.00000000
  ---------------------------------------------------
  free energy    TOTEN  =      -915.59040952 eV

  energy without entropy =     -915.54586141  energy(sigma->0) =     -915.56813547


--------------------------------------------------------------------------------------------------------




--------------------------------------- Iteration      1(   4)  ---------------------------------------


    POTLOK:  cpu time      0.7014: real time      0.7252
    SETDIJ:  cpu time      1.4817: real time      1.4823
    EDDIAG:  cpu time     20.9261: real time     20.9448
     EDDAV:  cpu time    108.1703: real time    108.2713
       DOS:  cpu time      0.0037: real time      0.0037
    CHARGE:  cpu time      9.2141: real time      9.2217
    MIXING:  cpu time      0.0146: real time      0.0146
    --------------------------------------------
      LOOP:  cpu time    140.5118: real time    140.6637

 eigenvalue-minimisations  :  4640
 total energy-change (2. order) :-0.3897502E+00  (-0.5237631E+00)
 number of electron     365.9999999 magnetization 
 augmentation part      -17.9733414 magnetization 

 Broyden mixing:
  rms(total) = 0.28276E+00    rms(broyden)= 0.67526E+01
  rms(prec ) = 0.53432E+00
  weight for this iteration     100.00
  WARNING: grid for Broyden might be to small

 eigenvalues of (default mixing * dielectric matrix)
  average eigenvalue GAMMA=   0.7974
  1.1745  0.6351  0.5826

 Free energy of the ion-electron system (eV)
  ---------------------------------------------------
  alpha Z        PSCENC =       132.75229407
  Ewald energy   TEWEN  =     -7534.27877492
  -Hartree energ DENC   =     -2503.60319091
  -exchange      EXHF   =         0.00000000
  -V(xc)+E(xc)   XCENC  =      -311.04312411
  PAW double counting   =     51187.45825228   -50350.62402318
  entropy T*S    EENTRO =        -0.03711425
  eigenvalues    EBANDS =      -568.86954659
  atomic energy  EATOM  =      9032.26506786
  Solvation  Ediel_sol  =         0.00000000
  ---------------------------------------------------
  free energy    TOTEN  =      -915.98015975 eV

  energy without entropy =     -915.94304550  energy(sigma->0) =     -915.96160263


--------------------------------------------------------------------------------------------------------




--------------------------------------- Iteration      1(   5)  ---------------------------------------


    POTLOK:  cpu time      0.7058: real time      0.7291
    SETDIJ:  cpu time      1.4808: real time      1.4814
    EDDIAG:  cpu time     20.9416: real time     20.9601
     EDDAV:  cpu time    106.2047: real time    106.2994
       DOS:  cpu time      0.0036: real time      0.0036
    CHARGE:  cpu time      9.1926: real time      9.2007
    MIXING:  cpu time      0.0146: real time      0.0146
    --------------------------------------------
      LOOP:  cpu time    138.5436: real time    138.6890

 eigenvalue-minimisations  :  4504
 total energy-change (2. order) : 0.1875361E+00  (-0.1613795E+00)
 number of electron     365.9999999 magnetization 
 augmentation part      -17.9706249 magnetization 

 Broyden mixing:
  rms(total) = 0.48745E-01    rms(broyden)= 0.23679E+01
  rms(prec ) = 0.76751E-01
  weight for this iteration     100.00
  WARNING: grid for Broyden might be to small

 eigenvalues of (default mixing * dielectric matrix)
  average eigenvalue GAMMA=   0.8846
  1.8251  0.7534  0.6233  0.3367

 Free energy of the ion-electron system (eV)
  ---------------------------------------------------
  alpha Z        PSCENC =       132.75229407
  Ewald energy   TEWEN  =     -7534.27877492
  -Hartree energ DENC   =     -2506.45546417
  -exchange      EXHF   =         0.00000000
  -V(xc)+E(xc)   XCENC  =      -311.44968420
  PAW double counting   =     52936.22988612   -52099.40449517
  entropy T*S    EENTRO =        -0.09507331
  eigenvalues    EBANDS =      -565.35637992
  atomic energy  EATOM  =      9032.26506786
  Solvation  Ediel_sol  =         0.00000000
  ---------------------------------------------------
  free energy    TOTEN  =      -915.79262364 eV

  energy without entropy =     -915.69755033  energy(sigma->0) =     -915.74508698


--------------------------------------------------------------------------------------------------------




--------------------------------------- Iteration      1(   6)  ---------------------------------------


    POTLOK:  cpu time      0.7791: real time      0.8058
    SETDIJ:  cpu time      1.5036: real time      1.5045
    EDDIAG:  cpu time     21.0382: real time     21.0556
     EDDAV:  cpu time    101.8473: real time    101.9431
       DOS:  cpu time      0.0041: real time      0.0041
    CHARGE:  cpu time      9.2274: real time      9.2615
    MIXING:  cpu time      0.0165: real time      0.0165
    --------------------------------------------
      LOOP:  cpu time    134.4161: real time    134.5911

 eigenvalue-minimisations  :  4200
 total energy-change (2. order) :-0.1278919E-01  (-0.1520502E-01)
 number of electron     365.9999999 magnetization 
 augmentation part      -17.9717056 magnetization 

 Broyden mixing:
  rms(total) = 0.27945E-01    rms(broyden)= 0.28446E+00
  rms(prec ) = 0.35455E-01
  weight for this iteration     100.00
  WARNING: grid for Broyden might be to small

 eigenvalues of (default mixing * dielectric matrix)
  average eigenvalue GAMMA=   0.9979
  2.4445  0.9248  0.3402  0.6401  0.6401

 Free energy of the ion-electron system (eV)
  ---------------------------------------------------
  alpha Z        PSCENC =       132.75229407
  Ewald energy   TEWEN  =     -7534.27877492
  -Hartree energ DENC   =     -2506.51608835
  -exchange      EXHF   =         0.00000000
  -V(xc)+E(xc)   XCENC  =      -311.84045121
  PAW double counting   =     52645.86371692   -51809.01555960
  entropy T*S    EENTRO =        -0.10094148
  eigenvalues    EBANDS =      -564.93467610
  atomic energy  EATOM  =      9032.26506786
  Solvation  Ediel_sol  =         0.00000000
  ---------------------------------------------------
  free energy    TOTEN  =      -915.80541283 eV

  energy without entropy =     -915.70447135  energy(sigma->0) =     -915.75494209


--------------------------------------------------------------------------------------------------------




--------------------------------------- Iteration      1(   7)  ---------------------------------------


    POTLOK:  cpu time      0.7070: real time      0.7300
    SETDIJ:  cpu time      1.4812: real time      1.4818
    EDDIAG:  cpu time     21.0062: real time     21.0250
     EDDAV:  cpu time    113.5842: real time    113.6893
       DOS:  cpu time      0.0046: real time      0.0046
    CHARGE:  cpu time      9.2303: real time      9.2376
    MIXING:  cpu time      0.0151: real time      0.0371
    --------------------------------------------
      LOOP:  cpu time    146.0286: real time    146.2054

 eigenvalue-minimisations  :  4992
 total energy-change (2. order) :-0.9031220E-03  (-0.7965330E-03)
 number of electron     365.9999999 magnetization 
 augmentation part      -17.9712003 magnetization 

 Broyden mixing:
  rms(total) = 0.21632E-01    rms(broyden)= 0.73289E-01
  rms(prec ) = 0.24426E-01
  weight for this iteration     100.00
  WARNING: grid for Broyden might be to small

 eigenvalues of (default mixing * dielectric matrix)
  average eigenvalue GAMMA=   0.9692
  2.5182  1.0143  0.3445  0.6968  0.6207  0.6207

 Free energy of the ion-electron system (eV)
  ---------------------------------------------------
  alpha Z        PSCENC =       132.75229407
  Ewald energy   TEWEN  =     -7534.27877492
  -Hartree energ DENC   =     -2506.66582429
  -exchange      EXHF   =         0.00000000
  -V(xc)+E(xc)   XCENC  =      -311.82093420
  PAW double counting   =     52644.49113455   -51807.63400461
  entropy T*S    EENTRO =        -0.10125699
  eigenvalues    EBANDS =      -564.81401742
  atomic energy  EATOM  =      9032.26506786
  Solvation  Ediel_sol  =         0.00000000
  ---------------------------------------------------
  free energy    TOTEN  =      -915.80631595 eV

  energy without entropy =     -915.70505896  energy(sigma->0) =     -915.75568746


--------------------------------------------------------------------------------------------------------




--------------------------------------- Iteration      1(   8)  ---------------------------------------


    POTLOK:  cpu time      0.7017: real time      0.7280
    SETDIJ:  cpu time      1.4802: real time      1.4808
    EDDIAG:  cpu time     21.0451: real time     21.0643
     EDDAV:  cpu time    107.7651: real time    107.8618
       DOS:  cpu time      0.0039: real time      0.0268
    CHARGE:  cpu time      9.1955: real time      9.2046
    MIXING:  cpu time      0.0151: real time      0.0151
    --------------------------------------------
      LOOP:  cpu time    140.2066: real time    140.3816

 eigenvalue-minimisations  :  4584
 total energy-change (2. order) :-0.8135790E-03  (-0.1535590E-03)
 number of electron     365.9999999 magnetization 
 augmentation part      -17.9705453 magnetization 

 Broyden mixing:
  rms(total) = 0.16744E-01    rms(broyden)= 0.16304E+00
  rms(prec ) = 0.20595E-01
  weight for this iteration     100.00
  WARNING: grid for Broyden might be to small

 eigenvalues of (default mixing * dielectric matrix)
  average eigenvalue GAMMA=   0.9617
  2.5486  1.1750  0.8492  0.3401  0.6416  0.6416  0.5360

 Free energy of the ion-electron system (eV)
  ---------------------------------------------------
  alpha Z        PSCENC =       132.75229407
  Ewald energy   TEWEN  =     -7534.27877492
  -Hartree energ DENC   =     -2506.91787784
  -exchange      EXHF   =         0.00000000
  -V(xc)+E(xc)   XCENC  =      -311.79563249
  PAW double counting   =     52629.02423633   -51792.15861981
  entropy T*S    EENTRO =        -0.10122402
  eigenvalues    EBANDS =      -564.59659870
  atomic energy  EATOM  =      9032.26506786
  Solvation  Ediel_sol  =         0.00000000
  ---------------------------------------------------
  free energy    TOTEN  =      -915.80712953 eV

  energy without entropy =     -915.70590552  energy(sigma->0) =     -915.75651752


--------------------------------------------------------------------------------------------------------




--------------------------------------- Iteration      1(   9)  ---------------------------------------


    POTLOK:  cpu time      0.7044: real time      0.7271
    SETDIJ:  cpu time      1.5233: real time      1.5252
    EDDIAG:  cpu time     21.0040: real time     21.0226
     EDDAV:  cpu time    105.9280: real time    106.0231
       DOS:  cpu time      0.0047: real time      0.0047
    CHARGE:  cpu time      9.2465: real time      9.2539
    MIXING:  cpu time      0.0153: real time      0.0153
    --------------------------------------------
      LOOP:  cpu time    138.4263: real time    138.5721

 eigenvalue-minimisations  :  4472
 total energy-change (2. order) :-0.1578982E-03  (-0.1861840E-03)
 number of electron     365.9999999 magnetization 
 augmentation part      -17.9693963 magnetization 

 Broyden mixing:
  rms(total) = 0.47963E-02    rms(broyden)= 0.91974E-01
  rms(prec ) = 0.69300E-02
  weight for this iteration     100.00
  WARNING: grid for Broyden might be to small

 eigenvalues of (default mixing * dielectric matrix)
  average eigenvalue GAMMA=   1.0307
  2.5688  1.2767  1.2767  0.9374  0.3392  0.6414  0.6414  0.5640

 Free energy of the ion-electron system (eV)
  ---------------------------------------------------
  alpha Z        PSCENC =       132.75229407
  Ewald energy   TEWEN  =     -7534.27877492
  -Hartree energ DENC   =     -2507.26124749
  -exchange      EXHF   =         0.00000000
  -V(xc)+E(xc)   XCENC  =      -311.66290066
  PAW double counting   =     52634.48814285   -51797.60892416
  entropy T*S    EENTRO =        -0.10086476
  eigenvalues    EBANDS =      -564.40008020
  atomic energy  EATOM  =      9032.26506786
  Solvation  Ediel_sol  =         0.00000000
  ---------------------------------------------------
  free energy    TOTEN  =      -915.80728743 eV

  energy without entropy =     -915.70642267  energy(sigma->0) =     -915.75685505


--------------------------------------------------------------------------------------------------------




--------------------------------------- Iteration      1(  10)  ---------------------------------------


    POTLOK:  cpu time      0.7020: real time      0.7253
    SETDIJ:  cpu time      1.4819: real time      1.4825
    EDDIAG:  cpu time     21.0278: real time     21.0449
     EDDAV:  cpu time    102.8818: real time    102.9754
       DOS:  cpu time      0.0034: real time      0.0034
    CHARGE:  cpu time      9.1825: real time      9.1918
    MIXING:  cpu time      0.0155: real time      0.0155
    --------------------------------------------
      LOOP:  cpu time    135.2947: real time    135.4386

 eigenvalue-minimisations  :  4256
 total energy-change (2. order) :-0.1190222E-03  (-0.4356112E-04)
 number of electron     365.9999999 magnetization 
 augmentation part      -17.9693250 magnetization 

 Broyden mixing:
  rms(total) = 0.20036E-02    rms(broyden)= 0.66085E-01
  rms(prec ) = 0.32193E-02
  weight for this iteration     100.00
  WARNING: grid for Broyden might be to small

 eigenvalues of (default mixing * dielectric matrix)
  average eigenvalue GAMMA=   1.0590
  2.5549  2.1752  1.0328  0.3388  0.7784  0.7784  0.6562  0.6081  0.6081

 Free energy of the ion-electron system (eV)
  ---------------------------------------------------
  alpha Z        PSCENC =       132.75229407
  Ewald energy   TEWEN  =     -7534.27877492
  -Hartree energ DENC   =     -2507.32068847
  -exchange      EXHF   =         0.00000000
  -V(xc)+E(xc)   XCENC  =      -311.64384563
  PAW double counting   =     52636.92775063   -51800.04312503
  entropy T*S    EENTRO =        -0.10115981
  eigenvalues    EBANDS =      -564.36492515
  atomic energy  EATOM  =      9032.26506786
  Solvation  Ediel_sol  =         0.00000000
  ---------------------------------------------------
  free energy    TOTEN  =      -915.80740645 eV

  energy without entropy =     -915.70624664  energy(sigma->0) =     -915.75682655


--------------------------------------------------------------------------------------------------------




--------------------------------------- Iteration      1(  11)  ---------------------------------------


    POTLOK:  cpu time      0.7227: real time      0.7260
    SETDIJ:  cpu time      1.4779: real time      1.4798
    EDDIAG:  cpu time     21.0371: real time     21.0556
     EDDAV:  cpu time    109.6190: real time    109.7128
       DOS:  cpu time      0.0062: real time      0.0062
    CHARGE:  cpu time      9.2171: real time      9.2253
    MIXING:  cpu time      0.0156: real time      0.0156
    --------------------------------------------
      LOOP:  cpu time    142.0957: real time    142.2212

 eigenvalue-minimisations  :  4728
 total energy-change (2. order) :-0.1154510E-04  (-0.7606741E-05)
 number of electron     365.9999999 magnetization 
 augmentation part      -17.9693917 magnetization 

 Broyden mixing:
  rms(total) = 0.11362E-02    rms(broyden)= 0.18341E-01
  rms(prec ) = 0.17232E-02
  weight for this iteration     100.00
  WARNING: grid for Broyden might be to small

 eigenvalues of (default mixing * dielectric matrix)
  average eigenvalue GAMMA=   1.1315
  2.8487  2.4980  1.0761  0.9581  0.9581  0.3389  0.7728  0.6519  0.6247  0.5878

 Free energy of the ion-electron system (eV)
  ---------------------------------------------------
  alpha Z        PSCENC =       132.75229407
  Ewald energy   TEWEN  =     -7534.27877492
  -Hartree energ DENC   =     -2507.30904537
  -exchange      EXHF   =         0.00000000
  -V(xc)+E(xc)   XCENC  =      -311.65290722
  PAW double counting   =     52634.64941743   -51797.76369169
  entropy T*S    EENTRO =        -0.10114756
  eigenvalues    EBANDS =      -564.36863059
  atomic energy  EATOM  =      9032.26506786
  Solvation  Ediel_sol  =         0.00000000
  ---------------------------------------------------
  free energy    TOTEN  =      -915.80741800 eV

  energy without entropy =     -915.70627044  energy(sigma->0) =     -915.75684422


--------------------------------------------------------------------------------------------------------




--------------------------------------- Iteration      1(  12)  ---------------------------------------


    POTLOK:  cpu time      0.7071: real time      0.7327
    SETDIJ:  cpu time      1.4784: real time      1.4789
    EDDIAG:  cpu time     21.0124: real time     21.0300
     EDDAV:  cpu time    105.7069: real time    105.7952
       DOS:  cpu time      0.0050: real time      0.0050
    CHARGE:  cpu time      9.1909: real time      9.1994
    MIXING:  cpu time      0.0161: real time      0.0161
    --------------------------------------------
      LOOP:  cpu time    138.1168: real time    138.2573

 eigenvalue-minimisations  :  4440
 total energy-change (2. order) :-0.9234471E-05  (-0.1852583E-05)
 number of electron     365.9999999 magnetization 
 augmentation part      -17.9694069 magnetization 

 Broyden mixing:
  rms(total) = 0.55667E-03    rms(broyden)= 0.19886E-01
  rms(prec ) = 0.93949E-03
  weight for this iteration     100.00
  WARNING: grid for Broyden might be to small

 eigenvalues of (default mixing * dielectric matrix)
  average eigenvalue GAMMA=   1.1453
  3.0024  2.5805  1.3757  0.3389  0.9276  0.8896  0.8896  0.7164  0.6536  0.6319
  0.5920

 Free energy of the ion-electron system (eV)
  ---------------------------------------------------
  alpha Z        PSCENC =       132.75229407
  Ewald energy   TEWEN  =     -7534.27877492
  -Hartree energ DENC   =     -2507.29974230
  -exchange      EXHF   =         0.00000000
  -V(xc)+E(xc)   XCENC  =      -311.65718915
  PAW double counting   =     52630.38103175   -51793.49445367
  entropy T*S    EENTRO =        -0.10103661
  eigenvalues    EBANDS =      -564.37462426
  atomic energy  EATOM  =      9032.26506786
  Solvation  Ediel_sol  =         0.00000000
  ---------------------------------------------------
  free energy    TOTEN  =      -915.80742723 eV

  energy without entropy =     -915.70639062  energy(sigma->0) =     -915.75690893


--------------------------------------------------------------------------------------------------------




--------------------------------------- Iteration      1(  13)  ---------------------------------------


    POTLOK:  cpu time      0.7018: real time      0.7288
    SETDIJ:  cpu time      1.4821: real time      1.4827
    EDDIAG:  cpu time     20.9757: real time     20.9945
     EDDAV:  cpu time    101.5268: real time    101.6211
       DOS:  cpu time      0.0067: real time      0.0067
    CHARGE:  cpu time      9.2136: real time      9.2215
    MIXING:  cpu time      0.0160: real time      0.0160
    --------------------------------------------
      LOOP:  cpu time    133.9228: real time    134.0714

 eigenvalue-minimisations  :  4152
 total energy-change (2. order) :-0.3037065E-05  (-0.8951520E-06)
 number of electron     365.9999999 magnetization 
 augmentation part      -17.9694221 magnetization 

 Broyden mixing:
  rms(total) = 0.20341E-03    rms(broyden)= 0.69854E-02
  rms(prec ) = 0.29486E-03
  weight for this iteration     100.00
  WARNING: grid for Broyden might be to small

 eigenvalues of (default mixing * dielectric matrix)
  average eigenvalue GAMMA=   1.1946
  3.2424  2.6566  1.8631  1.1069  0.9493  0.9493  0.3389  0.7749  0.6455  0.6215
  0.5934  0.5934

 Free energy of the ion-electron system (eV)
  ---------------------------------------------------
  alpha Z        PSCENC =       132.75229407
  Ewald energy   TEWEN  =     -7534.27877492
  -Hartree energ DENC   =     -2507.29361744
[...]
   0.237E+01 -.120E+02 0.264E+02   -.621E+01 0.111E+02 -.265E+02   0.342E+01 0.147E+01 -.261E+00   -.105E-02 0.867E-03 -.109E-02
   0.450E+02 -.938E+02 -.780E+01   -.440E+02 0.990E+02 0.655E+01   -.145E+01 -.484E+01 0.166E+01   0.636E-03 0.958E-03 0.184E-04
   0.387E+02 0.118E+02 0.267E+01   -.366E+02 -.121E+02 -.229E+01   -.186E+01 0.924E+00 -.212E+00   0.176E-02 0.253E-03 -.662E-03
   -.807E+02 0.303E+02 0.240E+02   0.798E+02 -.291E+02 -.230E+02   0.768E+00 -.124E+01 -.767E+00   -.476E-03 -.633E-03 -.111E-03
   -.300E+02 0.277E+02 0.177E+02   0.317E+02 -.263E+02 -.154E+02   -.941E+00 -.118E+00 -.229E+01   -.636E-03 0.693E-03 0.126E-02
   -.514E+02 0.433E+02 -.481E+01   0.493E+02 -.423E+02 0.666E+01   0.373E+01 -.119E+01 -.249E+01   -.235E-02 -.862E-03 0.215E-03
   -.850E+01 0.720E+02 0.224E+02   0.497E+01 -.735E+02 -.219E+02   0.369E+01 0.923E+00 -.149E+01   0.153E-02 -.123E-02 -.285E-03
   0.366E+02 0.737E+02 -.449E+01   -.349E+02 -.727E+02 0.421E+01   -.185E+00 -.115E+01 0.672E+00   0.331E-02 -.335E-02 0.522E-03
   -.114E+02 -.161E+02 -.130E+02   0.807E+01 0.167E+02 0.118E+02   0.360E+01 -.137E+01 0.911E+00   -.870E-03 -.526E-04 -.844E-04
   0.221E+02 0.175E+02 0.229E+01   -.242E+02 -.162E+02 -.276E+01   0.226E+01 -.242E+01 0.136E+01   0.818E-03 -.307E-03 -.101E-03
   -.338E+02 -.617E+02 0.466E+01   0.321E+02 0.600E+02 -.418E+01   0.204E+01 0.163E+01 -.658E+00   -.768E-03 0.761E-03 0.711E-04
   -.450E+02 0.434E+02 0.725E+01   0.446E+02 -.432E+02 -.900E+01   -.117E+00 -.276E+00 0.127E+01   -.123E-02 -.731E-03 -.144E-05
   0.473E+02 0.585E+02 -.946E+01   -.469E+02 -.556E+02 0.635E+01   -.650E+00 -.360E+01 0.444E+01   -.623E-03 -.862E-03 -.662E-03
   -.173E+02 -.427E+02 0.632E+01   0.174E+02 0.417E+02 -.486E+01   0.114E+01 0.464E+00 -.115E+01   -.504E-03 0.693E-03 0.171E-03
   -.468E+02 0.401E+02 -.529E+02   0.490E+02 -.389E+02 0.499E+02   -.290E+01 -.944E+00 0.300E+01   -.122E-02 -.881E-03 -.542E-04
   -.271E+02 -.102E+02 0.398E+01   0.280E+02 0.103E+02 -.414E+01   -.641E+00 -.193E+00 -.296E+00   -.414E-03 0.118E-02 -.554E-03
   0.129E+02 -.895E-02 0.322E+01   -.118E+02 -.161E+01 -.262E+01   -.115E+01 0.220E+01 -.657E+00   -.168E-02 -.552E-03 0.164E-03
   0.104E+02 -.825E+01 0.220E+01   -.945E+01 0.803E+01 -.238E+01   -.153E+01 0.388E+00 0.462E+00   -.474E-03 0.135E-04 -.150E-04
   -.433E+02 -.106E+02 -.233E+01   0.407E+02 0.954E+01 0.211E+01   0.203E+01 0.123E+01 0.826E+00   -.125E-02 0.714E-03 0.561E-03
   0.116E+02 0.216E+02 0.170E+00   -.106E+02 -.244E+02 -.243E+00   -.885E+00 0.257E+01 0.509E+00   -.114E-02 -.519E-03 -.163E-03
   -.338E+02 0.643E+02 -.564E+01   0.345E+02 -.626E+02 0.664E+01   -.266E+00 -.147E+01 -.102E+01   -.208E-02 -.872E-03 0.426E-04
 -----------------------------------------------------------------------------------------------
   -.818E+01 -.164E+02 -.103E+02   0.171E-12 -.213E-13 -.169E-13   0.819E+01 0.164E+02 0.103E+02   -.100E-01 0.645E-02 -.309E-02


 POSITION                                       TOTAL-FORCE (eV/Angst)
 -----------------------------------------------------------------------------------
      3.91598      4.23676      1.43344        -1.297286      1.115125     -2.950742
      6.39219      4.52219      0.87423        -0.514202     -3.066148      0.058204
      3.56512      4.54758      0.66587         1.441264     -1.271929      2.976617
      3.66049      2.56653      3.17246        -0.451149     -0.900789      0.126522
      4.51373      7.54747      1.41657        -0.449709     -2.050061      1.431609
      8.39693      4.67447      9.19371         0.633472     -0.404605     -1.220656
      7.02546      6.73802      0.06790        -0.005243      0.974715     -0.960857
      4.04623      5.17119      7.27592        -0.582725      0.116715     -0.890244
      8.25783      4.25536      6.72352         0.466977     -0.058249      0.345455
      4.42613      2.94713      6.20897         0.163305      0.806410     -0.100495
      4.31731      3.34840      8.31876         0.169130     -0.232254      0.518518
      3.57806      8.38553      7.32953         0.066167      0.023807      0.209133
      5.63630      4.63023      3.57053        -0.309803      0.533120      0.844087
      9.61678      3.90380      1.57773         0.862857     -0.042536     -0.153031
      4.39115      2.92035      8.94795         0.079495      0.465646     -0.407259
      7.08925      5.75594      6.45023         0.368588      0.479176     -0.326920
      8.11358      5.70513      2.58483        -0.158276     -0.110207      0.024272
      2.85908      5.35139      9.06322        -0.300685     -0.241983      0.012541
      3.78796      4.93752      4.70078         1.758773     -0.313092      0.767902
      6.51261      5.18753      0.85313         0.470557      2.991776     -0.076627
      2.52443      5.64773      2.56087        -0.114700      0.089733      0.322787
      2.01795      6.57527      6.05454         0.642670     -0.133417     -0.387877
      5.86417      4.24985      3.00843         0.357262     -0.574892     -0.772881
      5.87465      6.98856      7.92317         0.478100      0.410310      0.778562
      6.50625      5.35725      6.60013        -0.739369     -0.290672      0.000496
      6.39585      8.66020      5.94461        -1.125927     -2.597539     -0.326575
      3.15920      5.03246      4.41939        -1.739155      0.253459     -0.785164
      7.93699      3.04792      5.08715         0.192327     -0.811511     -0.243158
      3.59139      5.21098      6.64955         0.707921     -0.025897      0.930882
     10.48990      3.67161      5.36336        -0.397184     -0.432044      0.327834
      5.29856     11.24710      5.25507        -0.866212     -0.031902     -0.717829
     11.19370      9.29803      5.34478        -0.647296      0.751019     -1.336390
      5.13703      0.36877      0.69507        -0.044423      0.571417      0.521762
      4.53702     10.07960      3.31364         0.677671      0.280406      0.714944
     12.41770      2.55831      8.68067        -0.748862     -0.902636      0.303869
      8.67165      0.85468      2.77727        -0.216950      0.174060     -0.836240
      0.90215      7.22531      0.45422         0.493101      0.827404     -0.529373
      0.38476     10.61860     10.09380         0.510923      0.280905     -0.629462
      7.36339     14.14770      7.85262         0.123073     -0.592252     -0.411952
      2.65055      0.72969      7.57270         0.711043     -1.250085     -0.502414
      8.23523      1.53996      4.90938        -0.783149      0.939826      0.894180
     13.02580     12.73810      2.52524         1.519749     -1.325522      0.425420
      9.63635      9.80505      8.71906         1.420133      0.253622      0.661238
      8.09233     13.16600      3.08714        -0.911130      0.572874     -0.782421
     12.64930      4.21809      0.20693        -0.244995     -0.307660      0.208437
     10.04160     13.58360     10.06360         0.594100     -0.622991      0.459274
      0.80649      1.76853      0.90527         0.250737      0.458811      1.035303
      0.65260     13.43940      3.23582         0.211083     -0.783811     -0.236029
     11.05640      5.62294      3.60205        -0.097949      0.383468     -0.085855
      2.37585     12.67290      1.79886        -0.077234      0.150781      1.112167
     12.47550     11.37450      5.78756         0.795800     -1.424537      0.466854
      9.35815     13.21190      6.79104         0.064624      0.705268      0.065531
      3.59499     12.95950      8.19375        -0.724451      0.720298     -0.136280
     11.98840      8.85363      1.75259        -0.548586      1.284772     -1.365428
      2.86154      1.18377      9.88860         0.223725     -0.920463      0.146518
      0.30410      4.12342      0.83741         0.729972     -0.350836      0.267335
      4.20748     14.05510      2.69783        -0.309046     -0.089445     -0.720456
      8.91931      6.66716      3.37833        -0.401742     -0.046996     -0.206082
     13.22020      7.85506      0.08711         0.409557     -0.109828     -1.167108
     11.89110      0.65372      4.72430        -0.798693      0.243605     -0.032852
     12.70720      5.95672      8.84085        -0.925257      0.472407      0.500424
      2.76344      9.50221      7.91301        -0.443819     -0.318855     -0.701282
      4.26866      1.55860      5.85284        -0.876694     -1.393551      0.757050
     14.43620      5.18594      7.51633         0.273084      0.165797     -1.038961
      7.39580      9.93437      8.42166        -0.680666     -1.402076     -0.116792
     10.05140      2.13701      8.18437         0.786453      0.317628      0.812350
      8.86698      9.96415      4.77565         1.694796      0.579496     -1.618846
      3.09016      1.23605      3.79253         1.690594      1.377057     -0.063028
      0.59893      6.89135      6.04677        -0.651378      0.103281      0.430040
     13.46720      0.87067     10.02670         0.742071     -0.405362     -1.805234
     14.38160     13.63580      8.70761        -0.449156      0.583001     -0.083335
      2.43513      9.13800      0.12429         0.001628      0.032648      0.550157
     12.08930      7.73966      3.64978         0.469340     -0.745321      1.449323
     10.81760      6.00558      7.44366         0.373709      0.170265      0.152412
      5.71944     13.26200      9.29467        -0.683743     -0.633815     -0.106276
      2.48708     10.32340      2.35650        -0.885512     -0.146361     -0.221987
      4.74138      8.45887      0.39673        -0.201533      0.903443     -0.305901
     12.08850     14.26800      1.23163        -2.305941      1.221650     -0.871863
      9.21288      4.29403      7.87187        -1.053226      0.915677      1.444081
      6.34428      0.33799      5.87568         0.022465      0.672086     -0.691970
     11.11270      3.80441      1.97011        -0.697065     -0.043994     -0.084470
     10.09530      0.94491      6.24544        -0.291453     -1.074790     -0.382216
      0.01452     10.41280      5.46453        -0.000174      1.425673      0.432880
      8.71780     11.99250      1.11191         0.792922      0.634765      0.320924
      6.17258      9.67177      1.78374        -0.460846      0.535198     -0.408388
      8.56275      0.75314      9.48323         0.547968      0.398063     -0.452837
     11.07670      1.39892      2.59141        -0.408349     -0.211417      0.417029
     10.65520     11.99600      8.38767        -1.659296      0.633828      0.292385
      5.89290     13.29360      4.16483         0.577281     -0.504717      0.274072
     13.32220      3.26164      6.56781         0.485055      0.710947      0.490928
      9.96567      9.91085      1.04289        -1.186740     -0.619756      0.006839
      7.01998      9.86759      6.06425         0.254598      2.288735      1.276857
      0.85753      1.15776      3.31416        -0.518050      0.086659     -0.083792
     11.58180      4.61140      5.69233        -0.340166      0.527693     -0.379858
      7.25945      1.77776      0.98444        -0.403866     -0.157308      0.471208
      6.73140     11.28550      0.09764         0.196990      0.604533      0.141201
      1.37100      5.36274      9.21845        -0.143692     -0.170967      0.221162
      3.23463     11.34060      6.50726         0.763114      1.306738     -0.061421
      0.33862      9.54114      3.43250         1.827079     -0.248996     -0.765133
      6.39558      7.74647      9.15818         0.306547     -0.553607     -1.067359
      8.26606      8.92271      2.59329         1.506479     -0.219909      0.461117
     12.88070     11.83950      8.11906         0.365842     -0.890701     -0.283655
      9.44528     12.34210      4.61745         0.231457     -1.223606      0.968217
     14.00800      1.41959      5.26851         0.404611     -0.029741     -0.192964
      0.60373      8.95561      7.17757        -0.527435     -0.023716     -0.457505
     11.10820      8.46319      7.37073        -0.314952     -0.858023      1.555811
      0.53827     14.42280      6.63510         1.354401     -0.537846      0.273280
      1.08183      5.85230      2.30912        -0.873127      0.269636      0.006220
      1.72695     12.76560      9.70185         0.212029     -0.196608     -0.461931
     13.58040     10.53520      1.86326        -0.183682      0.676371     -0.091202
     11.71370     12.94150      4.34431        -0.648373      0.174992      0.311192
      1.33006     12.41860      5.32188        -0.549992      0.178509      0.691434
     13.22750      9.37476      8.36643         0.121085     -0.019295      0.496283
     14.43590      7.25142      3.84996         0.374562      0.121820     -0.066267
 -----------------------------------------------------------------------------------
    total drift:                               -0.004439     -0.000717      0.003844


--------------------------------------------------------------------------------------------------------



  FREE ENERGIE OF THE ION-ELECTRON SYSTEM (eV)
  ---------------------------------------------------
  free  energy   TOTEN  =      -915.80743031 eV

  energy  without entropy=     -915.70633110  energy(sigma->0) =     -915.75688071



--------------------------------------------------------------------------------------------------------


    POTLOK:  cpu time      2.1752: real time      2.1762


--------------------------------------------------------------------------------------------------------


     LOOP+:  cpu time   2108.3184: real time   2110.5897
    4ORBIT:  cpu time      0.0000: real time      0.0000



 total charge

# of ion       s       p       d       tot
------------------------------------------
    1        0.517   0.017   0.000   0.533
    2        0.663   0.047   0.000   0.710
    3        0.520   0.017   0.000   0.537
    4        0.534   0.012   0.000   0.546
    5        0.617   0.021   0.000   0.639
    6        0.527   0.011   0.000   0.538
    7        0.530   0.013   0.000   0.544
    8        0.595   0.028   0.000   0.623
    9        0.566   0.017   0.000   0.583
   10        0.589   0.018   0.000   0.607
   11        0.595   0.030   0.000   0.625
   12        0.562   0.015   0.000   0.577
   13        0.637   0.037   0.000   0.673
   14        0.535   0.014   0.000   0.549
   15        0.600   0.030   0.000   0.630
   16        0.630   0.037   0.000   0.667
   17        0.568   0.016   0.000   0.585
   18        0.560   0.016   0.000   0.575
   19        0.651   0.042   0.000   0.693
   20        0.670   0.046   0.000   0.716
   21        0.563   0.017   0.000   0.580
   22        0.585   0.017   0.000   0.603
   23        0.631   0.038   0.000   0.668
   24        0.549   0.013   0.000   0.563
   25        0.632   0.036   0.000   0.669
   26        0.629   0.023   0.000   0.651
   27        0.652   0.042   0.000   0.694
   28        0.543   0.013   0.000   0.556
   29        0.590   0.029   0.000   0.619
   30        0.577   0.017   0.000   0.594
   31        0.748   0.918   0.000   1.666
   32        0.757   0.911   0.000   1.669
   33        0.757   0.856   0.000   1.613
   34        0.786   0.894   0.000   1.680
   35        0.749   0.914   0.000   1.663
   36        0.748   0.923   0.000   1.670
   37        0.757   0.931   0.000   1.688
   38        0.838   0.767   0.000   1.605
   39        0.750   0.921   0.000   1.671
   40        0.758   0.856   0.000   1.614
   41        0.743   0.959   0.000   1.702
   42        0.751   0.986   0.000   1.737
   43        0.752   0.918   0.000   1.670
   44        0.753   0.956   0.000   1.709
   45        0.748   0.976   0.000   1.724
   46        0.756   0.911   0.000   1.667
   47        0.751   0.889   0.000   1.639
   48        0.755   0.923   0.000   1.678
   49        0.750   0.902   0.000   1.652
   50        0.759   0.898   0.000   1.658
   51        0.759   0.923   0.000   1.682
   52        0.755   0.897   0.000   1.652
   53        0.761   0.874   0.000   1.635
   54        0.753   0.987   0.000   1.739
   55        0.789   0.791   0.000   1.581
   56        0.752   0.930   0.000   1.682
   57        0.749   0.921   0.000   1.670
   58        0.773   0.870   0.000   1.643
   59        0.754   0.936   0.000   1.690
   60        0.748   0.952   0.000   1.700
   61        0.755   0.967   0.000   1.722
   62        0.755   0.951   0.000   1.706
   63        0.742   0.940   0.000   1.683
   64        0.749   0.957   0.000   1.706
   65        0.747   0.948   0.000   1.695
   66        0.747   0.946   0.000   1.693
   67        0.750   0.909   0.000   1.659
   68        0.739   0.963   0.000   1.702
   69        0.742   0.988   0.000   1.730
   70        0.751   0.952   0.000   1.703
   71        0.756   0.911   0.000   1.668
   72        0.733   0.894   0.000   1.627
   73        0.754   0.946   0.000   1.700
   74        0.738   0.936   0.000   1.674
   75        0.750   0.917   0.000   1.667
   76        0.760   0.880   0.000   1.640
   77        0.762   1.030   0.000   1.792
   78        0.752   0.965   0.000   1.717
   79        0.735   0.957   0.000   1.693
   80        0.744   0.919   0.000   1.663
   81        0.742   0.903   0.000   1.645
   82        0.751   0.942   0.000   1.693
   83        0.758   0.978   0.000   1.736
   84        0.756   0.914   0.000   1.671
   85        0.746   0.958   0.000   1.705
   86        0.756   0.926   0.000   1.682
   87        0.752   0.883   0.000   1.635
   88        0.749   0.941   0.000   1.691
   89        0.748   0.904   0.000   1.652
   90        0.746   0.914   0.000   1.660
   91        0.749   0.878   0.000   1.627
   92        0.749   1.026   0.000   1.776
   93        0.750   0.931   0.000   1.682
   94        0.749   0.964   0.000   1.713
   95        0.816   0.809   0.000   1.625
   96        0.755   0.924   0.000   1.679
   97        0.744   0.982   0.000   1.726
   98        0.752   0.899   0.000   1.650
   99        0.759   0.947   0.000   1.706
  100        0.732   0.960   0.000   1.692
  101        0.750   0.859   0.000   1.610
  102        0.750   0.922   0.000   1.672
  103        0.753   0.972   0.000   1.725
  104        0.745   0.920   0.000   1.665
  105        0.750   0.972   0.000   1.721
  106        0.759   0.913   0.000   1.671
  107        0.752   0.896   0.000   1.648
  108        0.744   0.957   0.000   1.701
  109        0.751   0.911   0.000   1.662
  110        0.753   0.975   0.000   1.728
  111        0.753   0.994   0.000   1.747
  112        0.752   0.870   0.000   1.622
  113        0.757   0.881   0.000   1.638
  114        0.748   0.924   0.000   1.672
--------------------------------------------------
tot         80.914  78.447   0.000 159.361


 total amount of memory used by VASP MPI-rank0   189274. kBytes
=======================================================================

   base                                    :      30000. kBytes
   nonl-proj                               :      36135. kBytes
   fftplans                                :      40941. kBytes
   grid                                    :      31575. kBytes
   one-center                              :         24. kBytes
   wavefun                                 :      50599. kBytes

  
  
 General timing and accounting informations for this job:
 ========================================================
  
                  Total CPU time used (sec):     2178.264
                            User time (sec):     2170.807
                          System time (sec):        7.458
                         Elapsed time (sec):     2180.690
  
                   Maximum memory used (kb):      379324.
                   Average memory used (kb):          N/A
  
                          Minor page faults:       247103
                          Major page faults:         1153
                 Voluntary context switches:         2392
