ITEM: TIMESTEP
366194
ITEM: NUMBER OF ATOMS
14000
ITEM: BOX BOUNDS pp pp pp
-1.5900858449095892e+00 5.9511269451086790e+01
-1.5900858449095892e+00 5.9511269451086790e+01
-1.5900858449095892e+00 7.2296001588713636e+01
ITEM: ATOMS id type xs ys zs
1 2 0.370057 0.0324117 0.582543
2 2 0.102858 0.106348 0.40938
3 2 0.265367 0.907741 0.100243
4 2 0.099481 0.00455173 0.343196
5 2 0.102566 0.102621 0.957725
6 2 0.347685 0.424201 0.163312
7 2 0.391579 0.233983 0.375835
8 2 0.667172 0.886296 0.253032
9 2 0.199627 0.986328 0.776781
10 2 0.516289 0.231941 0.442726
11 2 0.455361 0.111378 0.564585
12 2 0.85466 0.444038 0.415504
13 2 0.0641547 0.278827 0.312673
14 2 0.249416 0.250357 0.12688
15 2 0.130624 0.482181 0.748847
16 2 0.258773 0.4019 0.442625
17 2 0.16054 0.298539 0.90353
18 2 0.419335 0.234047 0.222544
19 2 0.433327 0.449658 0.53989
20 2 0.827155 0.415809 0.737476
21 2 0.951122 0.302537 0.0712902
22 2 0.124122 0.178479 0.972792
23 2 0.713732 0.438616 0.907428
24 2 0.0847077 0.2795 0.410201
25 2 0.399676 0.240264 0.959689
26 2 0.618488 0.388864 0.6049
27 2 0.300098 0.120818 0.895742
28 2 0.38755 0.109848 0.463999
29 2 0.996763 0.189288 0.902121
30 2 0.282216 0.145316 0.50921
31 2 0.182727 0.0678832 0.296588
32 2 0.0287552 0.471388 0.345294
33 2 0.364936 0.146588 0.0387435
34 2 0.754222 0.642756 0.0595965
35 2 0.270114 0.171493 0.394672
36 2 0.333751 0.193887 0.388476
37 2 0.114628 0.0148844 0.445663
38 2 0.927153 0.624491 0.34822
39 2 0.248079 0.449528 0.0481231
40 2 0.871297 0.83367 0.401757
41 2 0.797502 0.209124 0.41329
42 2 0.448575 0.3976 0.34023
43 2 0.292756 0.361022 0.724738
44 2 0.739855 0.236303 0.622763
45 2 0.174501 0.935317 0.544765
46 2 0.440086 0.530577 0.541265
47 2 0.043597 0.404688 0.912493
48 2 0.329829 0.29194 0.450887
49 2 0.137863 0.896985 0.923423
50 2 0.20661 0.158404 0.424173
51 2 0.820905 0.339474 0.47781
52 2 0.380953 0.209461 0.352286
53 2 0.221882 0.229674 0.391813
54 2 0.320775 0.511512 0.894085
55 2 0.0233383 0.412971 0.810479
56 2 0.684567 0.296064 0.0171546
57 2 0.506712 0.44511 0.939176
58 2 0.329084 0.482933 0.199829
59 2 0.940271 0.0856969 0.813893
60 2 0.755773 0.361793 0.362266
61 2 0.385042 0.250534 0.0117795
62 2 0.166952 0.420499 0.191137
63 2 0.0660573 0.29756 0.0155168
64 2 0.732512 0.115015 0.226205
65 2 0.187867 0.475813 0.359468
66 2 0.356377 0.505935 0.212672
67 2 0.341772 0.430821 0.564432
68 2 0.281246 0.492645 0.412037
69 2 0.710848 0.551534 0.654678
70 2 0.152801 0.450597 0.99168
71 2 0.8008 0.371659 0.476586
72 2 0.144591 0.371559 0.379475
73 2 0.318984 0.0160905 0.95948
74 2 0.158323 0.282029 0.932065
75 2 0.228694 0.394633 0.673724
76 2 0.680315 0.32852 0.631154
77 2 0.0208823 0.310483 0.318401
78 2 0.0606469 0.115133 0.493173
79 2 0.114636 0.658395 0.28774
80 2 0.594227 0.921263 0.225292
81 2 0.222244 0.151956 0.305482
82 2 0.204005 0.423155 0.902158
83 2 0.444882 0.342712 0.982779
84 2 0.14783 0.449777 0.180089
85 2 0.330279 0.231445 0.179124
86 2 0.290741 0.152363 0.0221052
87 2 0.258676 0.114358 0.407016
88 2 0.294836 0.134088 0.36112
89 2 0.281059 0.293057 0.514768
90 2 0.0211175 0.202318 0.0377885
91 2 0.0485952 0.23381 0.469309
92 2 0.287446 0.578392 0.591212
93 2 0.283585 0.258106 0.407977
94 2 0.45339 0.194073 0.616206
95 2 0.361163 0.0250999 0.313431
96 2 0.272472 0.0565826 0.409485
97 2 0.66083 0.148525 0.397949
98 2 0.53602 0.396627 0.909075
99 2 0.993147 0.421311 0.559137
100 2 0.140457 0.20659 0.929834
101 2 0.297647 0.213913 0.188658
102 2 0.616105 0.0632324 0.411937
103 2 0.673519 0.0902822 0.236115
104 2 0.694231 0.956923 0.423386
105 2 0.40642 0.171753 0.382275
106 2 0.299517 0.620717 0.561145
107 2 0.152658 0.151742 0.974804
108 2 0.254525 0.516471 0.339896
109 2 0.294393 0.389711 0.0212853
110 2 0.331536 0.41195 0.0875981
111 2 0.972711 0.1728 0.795898
112 2 0.158324 0.229962 0.45209
113 2 0.435458 0.473238 0.564768
114 2 0.367898 0.989862 0.32372
115 2 0.198934 0.367886 0.994409
116 2 0.301229 0.506231 0.532355
117 2 0.772894 0.434745 0.283103
118 2 0.133836 0.436751 0.371117
119 2 0.292564 0.828975 0.488433
120 2 0.696651 0.135291 0.28274
121 2 0.832767 0.862814 0.783583
122 2 0.142008 0.952122 0.324777
123 2 0.970852 0.244012 0.0236666
124 2 0.364594 0.34017 0.34417
125 2 0.310548 0.0270279 0.443085
126 2 0.45318 0.490348 0.678088
127 2 0.152884 0.601065 0.977524
128 2 0.116259 0.104922 0.2859
129 2 0.259621 0.385566 0.55263
130 2 0.182505 0.281818 0.981915
131 2 0.430287 0.915538 0.419072
132 2 0.265584 0.0625359 0.462054
133 2 0.179767 0.117043 0.731621
134 2 0.442548 0.460359 0.456327
135 2 0.293077 0.0773457 0.215017
136 2 0.377938 0.463786 0.33958
137 2 0.777373 0.176355 0.94207
138 2 0.580265 0.463492 0.360418
139 2 0.186832 0.219171 0.385077
140 2 0.416354 0.0421578 0.813347
141 2 0.25858 0.0151312 0.213428
142 2 0.3629 0.996118 0.575177
143 2 0.0419545 0.256423 0.0443785
144 2 0.706052 0.240456 0.915769
145 2 0.500595 0.547756 0.348577
146 2 0.285459 0.136173 0.792683
147 2 0.464357 0.0158745 0.309598
148 2 0.122563 0.233055 0.911109
149 2 0.0590728 0.193305 0.99281
150 2 0.537962 0.0888274 0.297347
151 2 0.574079 0.42596 0.942307
152 2 0.540639 0.136105 0.205093
153 2 0.165113 0.40776 0.410662
154 2 0.27995 0.240509 0.170394
155 2 0.819557 0.32926 0.0805717
156 2 0.0720667 0.142639 0.350213
157 2 0.0596824 0.334243 0.353413
158 2 0.378145 0.789755 0.614676
159 2 0.332271 0.178445 0.340796
160 2 0.741337 0.368196 0.911912
161 2 0.398198 0.832392 0.219191
162 2 0.16379 0.274586 0.317361
163 2 0.050049 0.385445 0.379958
164 2 0.3523 0.147513 0.551417
165 2 0.795057 0.328288 0.0547494
166 2 0.312272 0.156869 0.493197
167 2 0.131737 0.619567 0.453128
168 2 0.607983 0.960441 0.591537
169 2 0.209742 0.518877 0.424391
170 2 0.650303 0.584188 0.304096
171 2 0.0470992 0.164125 0.885715
172 2 0.961164 0.189289 0.91409
173 2 0.508499 0.232363 0.702313
174 2 0.235156 0.497941 0.442359
175 2 0.303599 0.0452293 0.818675
176 2 0.147925 0.332956 0.00134677
177 2 0.489765 0.362241 0.304675
178 2 0.289963 0.250543 0.638273
179 2 0.303739 0.390141 0.471797
180 2 0.314226 0.983244 0.123676
181 2 0.397002 0.865596 0.408209
182 2 0.315293 0.493424 0.480137
183 2 0.301983 0.362641 0.134147
184 2 0.30131 0.432684 0.335679
185 2 0.126352 0.233446 0.248665
186 2 0.449171 0.395202 0.21116
187 2 0.305306 0.403094 0.414585
188 2 0.288488 0.211624 0.884588
189 2 0.910968 0.533862 0.963659
190 2 0.312919 0.0293996 0.340095
191 2 0.249476 0.779742 0.446924
192 2 0.792972 0.146296 0.925066
193 2 0.117053 0.594541 0.316161
194 2 0.534463 0.183805 0.613835
195 2 0.195397 0.406055 0.993617
196 2 0.486456 0.403276 0.202669
197 2 0.0944247 0.278217 0.877909
198 2 0.39028 0.135975 0.998748
199 2 0.544057 0.336896 0.303546
200 2 0.156928 0.234661 0.0111255
201 2 0.459215 0.0721484 0.255356
202 2 0.732096 0.497717 0.914826
203 2 0.468647 0.74955 0.44082
204 2 0.218566 0.00623774 0.462419
205 2 0.350856 0.357377 0.371801
206 2 0.255823 0.0364447 0.361844
207 2 0.63843 0.119786 0.179425
208 2 0.240756 0.226029 0.0870739
209 2 0.201017 0.359183 0.964335
210 2 0.459573 0.135083 0.194029
211 2 0.100725 0.375424 0.343896
212 2 0.300178 0.939115 0.864329
213 2 0.815271 0.203714 0.53015
214 2 0.162197 0.215533 0.984098
215 2 0.266655 0.445586 0.853749
216 2 0.428178 0.418301 0.193186
217 2 0.169665 0.344724 0.389541
218 2 0.0884372 0.99538 0.464166
219 2 0.379506 0.81715 0.956149
220 2 0.111242 0.965049 0.422779
221 2 0.27115 0.0576948 0.53187
222 2 0.101227 0.211862 0.45122
223 2 0.206465 0.356767 0.823635
224 2 0.110169 0.86535 0.240594
225 2 0.60315 0.0240327 0.326771
226 2 0.973237 0.238037 0.239357
227 2 0.487522 0.170127 0.696802
228 2 0.098072 0.759705 0.00924692
229 2 0.957745 0.162442 0.326691
230 2 0.497521 0.0395012 0.721007
231 2 0.510144 0.336191 0.287437
232 2 0.445368 0.0215727 0.408028
233 2 0.972974 0.516001 0.332616
234 2 0.0762594 0.977885 0.41839
235 2 0.515856 0.0903772 0.940164
236 2 0.593969 0.181701 0.816845
237 2 0.32971 0.414355 0.352378
238 2 0.832072 0.984655 0.557472
239 2 0.0485435 0.81585 0.215455
240 2 0.628892 0.428429 0.364602
241 2 0.252002 0.373063 0.420376
242 2 0.438878 0.919378 0.986268
243 2 0.573201 0.341796 0.909482
244 2 0.0316436 0.249013 0.0131788
245 2 0.715218 0.230549 0.964528
246 2 0.965058 0.144369 0.954557
247 2 0.673252 0.195199 0.440192
248 2 0.110779 0.721774 0.461109
249 2 0.516132 0.120144 0.336917
250 2 0.260513 0.907913 0.783221
251 2 0.414528 0.465194 0.333076
252 2 0.451765 0.283727 0.175913
253 2 0.199308 0.125501 0.347903
254 2 0.971193 0.0801262 0.492556
255 2 0.82206 0.64497 0.471557
256 2 0.000184675 0.355862 0.365331
257 2 0.372625 0.0244191 0.245964
258 2 0.635291 0.256437 0.257987
259 2 0.356128 0.380095 0.0937788
260 2 0.149624 0.990158 0.549138
261 2 0.980444 0.225033 0.861052
262 2 0.423804 0.037235 0.4826
263 2 0.0779307 0.635205 0.0310194
264 2 0.940937 0.215815 0.403588
265 2 0.119367 0.878559 0.898824
266 2 0.212052 0.369692 0.0780348
267 2 0.300456 0.136584 0.243749
268 2 0.374179 0.50342 0.585537
269 2 0.285177 0.376588 0.373472
270 2 0.171549 0.320277 0.0246012
271 2 0.28338 0.805875 0.328697
272 2 0.0480785 0.185351 0.936577
273 2 0.207901 0.012511 0.241659
274 2 0.304452 0.0133909 0.905308
275 2 0.441473 0.387287 0.644462
276 2 0.320268 0.407181 0.746591
277 2 0.295179 0.099243 0.790631
278 2 0.0531173 0.192031 0.413404
279 2 0.702941 0.104452 0.379729
280 2 0.261141 0.404632 0.365662
281 2 0.163835 0.229764 0.244919
282 2 0.517332 0.290908 0.364935
283 2 0.556201 0.728455 0.602195
284 2 0.120675 0.0768362 0.370125
285 2 0.294098 0.177643 0.176174
286 2 0.244068 0.51285 0.0176488
287 2 0.0608541 0.230855 0.99911
288 2 0.814965 0.220536 0.030979
289 2 0.0414132 0.0992489 0.223124
290 2 0.076182 0.278217 0.377877
291 2 0.502515 0.206182 0.420391
292 2 0.212961 0.370126 0.13696
293 2 0.680408 0.10937 0.43805
294 2 0.110663 0.315202 0.0601532
295 2 0.0834341 0.907522 0.604354
296 2 0.885656 0.362741 0.330802
297 2 0.407706 0.301469 0.326138
298 2 0.754816 0.190014 0.869926
299 2 0.0953046 0.639775 0.801053
300 2 0.349652 0.208961 0.897535
301 2 0.990264 0.252169 0.718987
302 2 0.404441 0.0973449 0.389763
303 2 0.282039 0.86952 0.451032
304 2 0.894222 0.0698448 0.280086
305 2 0.542018 0.0941693 0.328959
306 2 0.473254 0.507203 0.259078
307 2 0.246241 0.504332 0.585433
308 2 0.949656 0.418265 0.911864
309 2 0.872633 0.281408 0.561582
310 2 0.5835 0.712431 0.420038
311 2 0.313406 0.247672 0.122305
312 2 0.144355 0.241192 0.521773
313 2 0.433093 0.268546 0.43806
314 2 0.403813 0.332478 0.344533
315 2 0.418728 0.834378 0.375439
316 2 0.371246 0.289267 0.520283
317 2 0.15006 0.946124 0.833912
318 2 0.114032 0.0162955 0.026511
319 2 0.3629 0.0337321 0.000164638
320 2 0.268067 0.321869 0.838593
321 2 0.642915 0.357718 0.33543
322 2 0.231249 0.0625298 0.44839
323 2 0.499162 0.060311 0.353908
324 2 0.382871 0.155618 0.403845
325 2 0.0579404 0.50263 0.276376
326 2 0.196424 0.191377 0.344397
327 2 0.355221 0.103593 0.86926
328 2 0.594274 0.424468 0.750073
329 2 0.057544 0.335891 0.426429
330 2 0.54283 0.301364 0.114729
331 2 0.126837 0.251631 0.276636
332 2 0.488783 0.566837 0.55698
333 2 0.440563 0.359631 0.198116
334 2 0.561052 0.27336 0.4823
335 2 0.239766 0.202392 0.062705
336 2 0.105951 0.104261 0.903699
337 2 0.248199 0.224323 0.851892
338 2 0.978659 0.156828 0.022853
339 2 0.448831 0.116573 0.77113
340 2 0.459218 0.93377 0.329341
341 2 0.256309 0.296185 0.143997
342 2 0.66907 0.0148221 0.357388
343 2 0.193381 0.671642 0.335291
344 2 0.467848 0.896553 0.32544
345 2 0.717919 0.0840659 0.320534
346 2 0.503249 0.0802819 0.473303
347 2 0.301916 0.0334659 0.412366
348 2 0.146028 0.0967879 0.462172
349 2 0.456924 0.488166 0.438417
350 2 0.403368 0.380923 0.596099
351 2 0.37152 0.857865 0.343325
352 2 0.994847 0.460869 0.269413
353 2 0.721958 0.252901 0.309283
354 2 0.244757 0.177305 0.471669
355 2 0.132358 0.137877 0.275409
356 2 0.285378 0.0903242 0.420671
357 2 0.538019 0.893572 0.246973
358 2 0.496089 0.0351822 0.0427013
359 2 0.261025 0.126262 0.929421
360 2 0.524131 0.439678 0.31082
361 2 0.303338 0.436187 0.398346
362 2 0.0313738 0.286729 0.00459778
363 2 0.728439 0.147891 0.183537
364 2 0.52375 0.229457 0.286302
365 2 0.998371 0.39493 0.630223
366 2 0.243769 0.446997 0.338998
367 2 0.260129 0.726001 0.916658
368 2 0.526862 0.792516 0.973186
369 2 0.996531 0.47975 0.38591
370 2 0.345099 0.127516 0.956574
371 2 0.228192 0.990319 0.8948
372 2 0.762903 0.599905 0.837569
373 2 0.13498 0.985634 0.519647
374 2 0.393431 0.412101 0.438595
375 2 0.402097 0.0288945 0.943412
376 2 0.267613 0.42011 0.096607
377 2 0.693073 0.160894 0.308094
378 2 0.50191 0.416962 0.24538
379 2 0.390031 0.139877 0.338956
380 2 0.62295 0.248938 0.34436
381 2 0.351553 0.371114 0.835514
382 2 0.495817 0.353525 0.23791
383 2 0.991657 0.599611 0.994488
384 2 0.0682668 0.105472 0.899081
385 2 0.096682 0.609352 0.0506891
386 2 0.694462 0.136245 0.172025
387 2 0.554433 0.289991 0.178452
388 2 0.113085 0.197525 0.342517
389 2 0.431766 0.361107 0.33299
390 2 0.574039 0.195216 0.481143
391 2 0.345543 0.993394 0.809711
392 2 0.525659 0.990262 0.311872
393 2 0.213524 0.894463 0.334874
394 2 0.995147 0.281643 0.316784
395 2 0.247934 0.97443 0.610028
396 2 0.405053 0.339193 0.731866
397 2 0.373388 0.360681 0.585406
398 2 0.472659 0.665004 0.340102
399 2 0.455498 0.154802 0.168306
400 2 0.722483 0.327031 0.528238
401 2 0.0379249 0.850895 0.953008
402 2 0.959097 0.487748 0.825995
403 2 0.769703 0.0328549 0.590357
404 2 0.406285 0.326395 0.375198
405 2 0.395443 0.238526 0.851166
406 2 0.709144 0.345452 0.388695
407 2 0.200188 0.858663 0.339818
408 2 0.153492 0.171073 0.836867
409 2 0.346838 0.155843 0.454338
410 2 0.0909618 0.177226 0.0463487
411 2 0.382599 0.147031 0.838484
412 2 0.158652 0.985122 0.493883
413 2 0.639739 0.202993 0.454796
414 2 0.401915 0.122809 0.412188
415 2 0.160001 0.517646 0.0616303
416 2 0.510621 0.0629476 0.819647
417 2 0.153652 0.158195 0.326393
418 2 0.418305 0.0817605 0.349032
419 2 0.159881 0.285144 0.0295182
420 2 0.298359 0.136417 0.13984
421 2 0.571975 0.797052 0.231878
422 2 0.0511208 0.989245 0.189665
423 2 0.474886 0.0766133 0.333336
424 2 0.168637 0.34279 0.444657
425 2 0.294249 0.360749 0.102276
426 2 0.34181 0.369784 0.947828
427 2 0.121565 0.0541374 0.0288443
428 2 0.817361 0.664672 0.389539
429 2 0.313536 0.00360771 0.170641
430 2 0.606594 0.285156 0.13269
431 2 0.244708 0.0694299 0.314344
432 2 0.938178 0.774503 0.62882
433 2 0.466323 0.485419 0.508972
434 2 0.139257 0.125428 0.0297138
435 2 0.865767 0.00848246 0.298018
436 2 0.128859 0.612679 0.999961
437 2 0.483804 0.874965 0.44361
438 2 0.143097 0.317065 0.387449
439 2 0.111077 0.368394 0.395315
440 2 0.190461 0.481191 0.131802
441 2 0.336105 0.745683 0.450872
442 2 0.409813 0.187485 0.28661
443 2 0.758081 0.383842 0.389165
444 2 0.46851 0.267542 0.790636
445 2 0.650828 0.240826 0.398487
446 2 0.148949 0.418519 0.217754
447 2 0.069988 0.138824 0.29198
448 2 0.210763 0.42521 0.117719
449 2 0.162762 0.112691 0.435601
450 2 0.266927 0.329325 0.947128
451 2 0.342592 0.44196 0.292581
452 2 0.0986776 0.391697 0.275476
453 2 0.310434 0.242896 0.518032
454 2 0.876038 0.413241 0.364225
455 2 0.828867 0.454278 0.292861
456 2 0.401149 0.149259 0.970428
457 2 0.725862 0.730724 0.0900627
458 2 0.110237 0.334087 0.00676809
459 2 0.0794789 0.86851 0.603692
460 2 0.501393 0.927564 0.285643
461 2 0.706216 0.320844 0.0331638
462 2 0.532571 0.326621 0.740591
463 2 0.85889 0.626446 0.432001
464 2 0.933877 0.389873 0.555867
465 2 0.590364 0.00910454 0.221079
466 2 0.111636 0.957064 0.574593
467 2 0.199013 0.16013 0.280325
468 2 0.44331 0.266172 0.363609
469 2 0.337652 0.953359 0.399352
470 2 0.0831653 0.894771 0.152157
471 2 0.286264 0.214378 0.998919
472 2 0.208981 0.425386 0.0861975
473 2 0.776094 0.825108 0.458205
474 2 0.227874 0.0580059 0.794222
475 2 0.300091 0.301535 0.703771
476 2 0.0571942 0.268611 0.261425
477 2 0.163775 0.0666856 0.542233
478 2 0.198137 0.956602 0.279451
479 2 0.478069 0.697926 0.357877
480 2 0.714579 0.411177 0.88581
481 2 0.17223 0.425809 0.946826
482 2 0.900039 0.17348 0.249376
483 2 0.230934 0.249575 0.639039
484 2 0.661472 0.28826 0.826322
485 2 0.392556 0.466632 0.195448
486 2 0.0624014 0.222361 0.933693
487 2 0.363356 0.60182 0.425975
488 2 0.463511 0.882861 0.274457
489 2 0.336423 0.264353 0.377939
490 2 0.428032 0.294759 0.460975
491 2 0.323039 0.744005 0.308977
492 2 0.685492 0.774803 0.911525
493 2 0.169487 0.474504 0.848672
494 2 0.211505 0.26391 0.433077
495 2 0.344261 0.206596 0.359599
496 2 0.0135663 0.0942105 0.272235
497 2 0.470602 0.750072 0.766341
498 2 0.90763 0.187077 0.302129
499 2 0.207861 0.185971 0.465184
500 2 0.516988 0.171687 0.271259
501 2 0.803142 0.356399 0.894892
502 2 0.100551 0.272364 0.316922
503 2 0.713747 0.184459 0.924017
504 2 0.224747 0.667725 0.0135213
505 2 0.782896 0.285385 0.860756
506 2 0.100496 0.213341 0.388498
507 2 0.142719 0.966129 0.469689
508 2 0.170563 0.339418 0.592745
509 2 0.0790253 0.106118 0.276902
510 2 0.636711 0.848957 0.605675
511 2 0.960159 0.379435 0.994732
512 2 0.0721222 0.224728 0.408869
513 2 0.281131 0.550252 0.0455964
514 2 0.492288 0.41311 0.55933
515 2 0.133639 0.956006 0.385512
516 2 0.479965 0.792945 0.477067
517 2 0.257402 0.174559 0.163729
518 2 0.771561 0.0655152 0.236406
519 2 0.057614 0.470852 0.0429872
520 2 0.76353 0.902517 0.427684
521 2 0.438836 0.341504 0.885037
522 2 0.282647 0.0978166 0.186983
523 2 0.175759 0.273155 0.88195
524 2 0.454989 0.0832895 0.28574
525 2 0.069645 0.374242 0.462647
526 2 0.262778 0.533499 0.485571
527 2 0.358157 0.178661 0.0541253
528 2 0.521173 0.172844 0.917116
529 2 0.350561 0.120824 0.46575
530 2 0.275203 0.440108 0.444521
531 2 0.812071 0.0766172 0.280816
532 2 0.787097 0.0366284 0.867695
533 2 0.473704 0.167978 0.575001
534 2 0.285878 0.962989 0.238242
535 2 0.441111 0.861315 0.87073
536 2 0.99073 0.235816 0.373549
537 2 0.112518 0.00951036 0.26703
538 2 0.118594 0.543482 0.419561
539 2 0.0622244 0.763584 0.433504
540 2 0.999357 0.637175 0.997081
541 2 0.365766 0.0974033 0.270875
542 2 0.370458 0.833723 0.64606
543 2 0.390183 0.879042 0.614269
544 2 0.0386742 0.354321 0.0225779
545 2 0.600164 0.36547 0.488203
546 2 0.906584 0.307064 0.961117
547 2 0.0411168 0.303309 0.344438
548 2 0.0477447 0.616343 0.0191909
549 2 0.182305 0.700703 0.391372
550 2 0.77411 0.419335 0.844805
551 2 0.120634 0.167596 0.293438
552 2 0.0645363 0.407924 0.0351553
553 2 0.242027 0.0401188 0.424177
554 2 0.15195 0.30373 0.715521
555 2 0.182482 0.47533 0.994711
556 2 0.340019 0.272881 0.0848162
557 2 0.545162 0.319131 0.917645
558 2 0.250518 0.154796 0.108295
559 2 0.84105 0.558077 0.0368538
560 2 0.432762 0.201812 0.309448
561 2 0.0149208 0.501575 0.0526666
562 2 0.0814413 0.109225 0.467346
563 2 0.305126 0.194862 0.32282
564 2 0.0827027 0.265851 0.657713
565 2 0.498784 0.312764 0.508884
566 2 0.94342 0.12056 0.936872
567 2 0.413306 0.330657 0.995966
568 2 0.371834 0.404407 0.181392
569 2 0.322778 0.0223378 0.309305
570 2 0.163076 0.160315 0.597694
571 2 0.283926 0.470949 0.000885028
572 2 0.264859 0.0670221 0.37905
573 2 0.669752 0.359587 0.731231
574 2 0.0946296 0.11025 0.588645
575 2 0.457798 0.545908 0.00568937
576 2 0.150509 0.0684192 0.410921
577 2 0.322487 0.161027 0.157587
578 2 0.27683 0.103929 0.60267
579 2 0.36971 0.966465 0.478913
580 2 0.529793 0.173322 0.50265
581 2 0.0459275 0.415643 0.261306
582 2 0.244893 0.180386 0.957639
583 2 0.459965 0.932255 0.432836
584 2 0.930649 0.204357 0.000750531
585 2 0.214474 0.0893773 0.301475
586 2 0.165487 0.152973 0.381137
587 2 0.520674 0.143598 0.15736
588 2 0.512142 0.56487 0.0259819
589 2 0.143463 0.286443 0.420164
590 2 0.141567 0.454997 0.689948
591 2 0.163843 0.560962 0.764835
592 2 0.0627178 0.449367 0.389429
593 2 0.360941 0.76987 0.657297
594 2 0.0737515 0.355227 0.328631
595 2 0.0473272 0.21571 0.361463
596 2 0.854959 0.137991 0.197882
597 2 0.00342243 0.338626 0.0262868
598 2 0.356519 0.996831 0.366267
599 2 0.421168 0.141874 0.599467
600 2 0.346981 0.0939856 0.920557
601 2 0.269794 0.934813 0.146409
602 2 0.0173226 0.133449 0.924815
603 2 0.45957 0.283068 0.318498
604 2 0.978404 0.0179644 0.890204
605 2 0.190217 0.483619 0.588853
606 2 0.310506 0.949928 0.718398
607 2 0.41692 0.269985 0.176158
608 2 0.548448 0.084491 0.553042
609 2 0.853673 0.464507 0.316221
610 2 0.353701 0.210327 0.611261
611 2 0.317675 0.454385 0.313591
612 2 0.0914767 0.400719 0.949082
613 2 0.470784 0.401589 0.626036
614 2 0.285809 0.290878 0.365783
615 2 0.923664 0.299532 0.989653
616 2 0.494323 0.866739 0.0373836
617 2 0.293223 0.495635 0.628338
618 2 0.33456 0.288902 0.71475
619 2 0.307661 0.137246 0.27548
620 2 0.951248 0.574545 0.446743
621 2 0.706755 0.342301 0.482067
622 2 0.816948 0.30848 0.817376
623 2 0.199341 0.30202 0.0839773
624 2 0.292724 0.624261 0.316569
625 2 0.205936 0.495195 0.659044
626 2 0.095682 0.221344 0.500788
627 2 0.0214631 0.243976 0.354257
628 2 0.172995 0.403045 0.0475782
629 2 0.540102 0.35682 0.378535
630 2 0.206659 0.11887 0.521409
631 2 0.209935 0.299751 0.492288
632 2 0.285707 0.159322 0.294021
633 2 0.625595 0.0748957 0.348466
634 2 0.860828 0.158962 0.429997
635 2 0.396395 0.055078 0.249715
636 2 0.055114 0.514743 0.378148
637 2 0.517728 0.602988 0.900359
638 2 0.339582 0.562276 0.375609
639 2 0.49855 0.226137 0.76341
640 2 0.433828 0.306635 0.510227
641 2 0.263769 0.396946 0.822335
642 2 0.873873 0.973548 0.283633
643 2 0.299199 0.46046 0.423527
644 2 0.201563 0.326069 0.947795
645 2 0.222333 0.28111 0.064633
646 2 0.891029 0.335973 0.0891653
647 2 0.202588 0.335198 0.0666458
648 2 0.335534 0.079776 0.319608
649 2 0.893978 0.200899 0.00832685
650 2 0.86881 0.929573 0.154031
651 2 0.603126 0.621049 0.753411
652 2 0.0318483 0.883483 0.905689
653 2 0.494986 0.434327 0.533669
654 2 0.740604 0.249648 0.89962
655 2 0.163613 0.172372 0.763338
656 2 0.331776 0.147704 0.360515
657 2 0.210322 0.0405228 0.5239
658 2 0.371301 0.353797 0.175508
659 2 0.35004 0.211459 0.441301
660 2 0.598429 0.530501 0.371719
661 2 0.302017 0.688168 0.520915
662 2 0.565397 0.0965267 0.893734
663 2 0.463533 0.091986 0.717508
664 2 0.212366 0.649765 0.3563
665 2 0.263461 0.345136 0.998922
666 2 0.592418 0.177311 0.2175
667 2 0.264672 0.172345 0.425878
668 2 0.857715 0.435327 0.446106
669 2 0.174948 0.703991 0.339969
670 2 0.0215565 0.498545 0.366206
671 2 0.449235 0.507816 0.211959
672 2 0.344601 0.156978 0.391175
673 2 0.173312 0.515302 0.537598
674 2 0.16339 0.398501 0.681526
675 2 0.111981 0.3091 0.321038
676 2 0.759255 0.204549 0.542861
677 2 0.995689 0.228901 0.263254
678 2 0.981784 0.320578 0.982054
679 2 0.320363 0.378329 0.360477
680 2 0.525458 0.386592 0.796
681 2 0.331456 0.252858 0.862556
682 2 0.933065 0.403896 0.809225
683 2 0.51467 0.794909 0.361378
684 2 0.162393 0.0388269 0.243284
685 2 0.367811 0.446544 0.846097
686 2 0.934109 0.193347 0.251883
687 2 0.190894 0.653687 0.0236156
688 2 0.149048 0.329368 0.969645
689 2 0.393598 0.442069 0.992487
690 2 0.321598 0.209696 0.123879
691 2 0.691152 0.392485 0.473756
692 2 0.399848 0.174795 0.351073
693 2 0.0661943 0.2938 0.919548
694 2 0.287537 0.0914574 0.452098
695 2 0.188355 0.0187768 0.416888
696 2 0.0313931 0.491047 0.906883
697 2 0.212134 0.00247496 0.618064
698 2 0.095061 0.352865 0.278198
699 2 0.97398 0.195519 0.33476
700 2 0.15173 0.970811 0.180335
701 2 0.0886577 0.0555443 0.373001
702 2 0.0881084 0.384946 0.373586
703 2 0.431972 0.787729 0.904235
704 2 0.399181 0.26288 0.985348
705 2 0.163262 0.554882 0.0541077
706 2 0.0809512 0.406608 0.249102
707 2 0.144978 0.595026 0.338208
708 2 0.05115 0.363323 0.871702
709 2 0.228949 0.0803753 0.843641
710 2 0.420722 0.639074 0.235345
711 2 0.233438 0.358246 0.50271
712 2 0.0763699 0.518418 0.351832
713 2 0.326002 0.990715 0.267887
714 2 0.515079 0.286128 0.133012
715 2 0.702591 0.77827 0.654568
716 2 0.224536 0.0351595 0.263095
717 2 0.0140818 0.464644 0.454474
718 2 0.284517 0.484912 0.949775
719 2 0.918369 0.322815 0.48047
720 2 0.786336 0.851179 0.436407
721 2 0.44236 0.16778 0.392797
722 2 0.194353 0.64939 0.856226
723 2 0.106088 0.147108 0.364638
724 2 0.419357 0.480767 0.72962
725 2 0.0798576 0.936138 0.1934
726 2 0.454967 0.460988 0.3633
727 2 0.182626 0.443977 0.453008
728 2 0.391933 0.154423 0.19449
729 2 0.841435 0.811761 0.449108
730 2 0.387153 0.395612 0.357187
731 2 0.0124627 0.1359 0.51962
732 2 0.400707 0.441524 0.388094
733 2 0.463267 0.295068 0.23032
734 2 0.27903 0.261689 0.108597
735 2 0.874445 0.492051 0.300698
736 2 0.577286 0.055494 0.408843
737 2 0.725021 0.274049 0.264548
738 2 0.274598 0.44163 0.0258021
739 2 0.148958 0.329059 0.815677
740 2 0.229563 0.44481 0.86292
741 2 0.204478 0.538657 0.612708
742 2 0.319976 0.296323 0.908002
743 2 0.970983 0.352244 0.89429
744 2 0.999853 0.239651 0.969522
745 2 0.414151 0.139312 0.468543
746 2 0.270403 0.12128 0.465034
747 2 0.0609402 0.0166097 0.960111
748 2 0.782938 0.0537296 0.328091
749 2 0.42041 0.233522 0.326425
750 2 0.38429 0.245629 0.669828
751 2 0.0431763 0.248397 0.308116
752 2 0.389219 0.354655 0.981441
753 2 0.267525 0.236242 0.546543
754 2 0.442233 0.102247 0.534413
755 2 0.385531 0.554713 0.406264
756 2 0.423355 0.178244 0.234195
757 2 0.431931 0.626429 0.552421
758 2 0.831901 0.986595 0.254046
759 2 0.0599637 0.573013 0.367066
760 2 0.48203 0.150989 0.215725
761 2 0.0550355 0.263713 0.796209
762 2 0.948863 0.385816 0.380736
763 2 0.369423 0.428177 0.900465
764 2 0.446728 0.603956 0.335106
765 2 0.175488 0.419238 0.500571
766 2 0.00153514 0.893473 0.128208
767 2 0.966703 0.639089 0.876286
768 2 0.0224743 0.463263 0.0530681
769 2 0.340795 0.280653 0.0403631
770 2 0.168364 0.340388 0.051198
771 2 0.238858 0.0950842 0.383641
772 2 0.275586 0.209875 0.0525802
773 2 0.869807 0.112819 0.519309
774 2 0.155373 0.209468 0.63344
775 2 0.285746 0.954372 0.48754
776 2 0.218476 0.243694 0.83818
777 2 0.0249656 0.949755 0.153188
778 2 0.341958 0.548505 0.324332
779 2 0.056061 0.0428292 0.263799
780 2 0.386329 0.326744 0.931917
781 2 0.582103 0.382621 0.515148
782 2 0.026956 0.361159 0.292256
783 2 0.965923 0.460638 0.996303
784 2 0.255329 0.127491 0.984359
785 2 0.115582 0.374623 0.0412522
786 2 0.362805 0.293285 0.197227
787 2 0.309032 0.977302 0.763413
788 2 0.485306 0.398677 0.496716
789 2 0.132966 0.405814 0.267881
790 2 0.276971 0.675892 0.415473
791 2 0.230574 0.144232 0.0255869
792 2 0.286862 0.296398 0.483761
793 2 0.0454079 0.0818849 0.844292
794 2 0.459643 0.943834 0.359627
795 2 0.0437717 0.33565 0.973951
796 2 0.341956 0.299991 0.501157
797 2 0.306062 0.546683 0.189528
798 2 0.163183 0.780561 0.961805
799 2 0.203907 0.121581 0.317152
800 2 0.719363 0.8771 0.385456
801 2 0.470619 0.953972 0.0199936
802 2 0.552999 0.337984 0.243332
803 2 0.263782 0.504662 0.135575
804 2 0.0763577 0.209022 0.475812
805 2 0.217349 0.0968368 0.438756
806 2 0.339115 0.276403 0.985312
807 2 0.156793 0.437882 0.0464398
808 2 0.347266 0.41357 0.609049
809 2 0.035553 0.183724 0.966893
810 2 0.213815 0.341744 0.158208
811 2 0.383652 0.352121 0.530322
812 2 0.3254 0.0537362 0.182273
813 2 0.0358885 0.108889 0.599898
814 2 0.357455 0.375478 0.509742
815 2 0.249804 0.0100846 0.444359
816 2 0.0178076 0.450112 0.0231008
817 2 0.189671 0.306732 0.718524
818 2 0.118236 0.496253 0.982764
819 2 0.195177 0.839495 0.552209
820 2 0.0902012 0.23964 0.0187617
821 2 0.681017 0.273427 0.864874
822 2 0.50429 0.148973 0.490594
823 2 0.00212073 0.223541 0.0165956
824 2 0.499502 0.261359 0.658455
825 2 0.389709 0.0774508 0.738773
826 2 0.797273 0.439732 0.0365662
827 2 0.141446 0.546637 0.901958
828 2 0.472376 0.626007 0.380839
829 2 0.17123 0.0499339 0.462016
830 2 0.12066 0.406265 0.527179
831 2 0.030887 0.178955 0.272734
832 2 0.296607 0.193707 0.3807
833 2 0.957058 0.176693 0.00180874
834 2 0.695249 0.799282 0.416156
835 2 0.713711 0.217984 0.858584
836 2 0.378359 0.380415 0.386079
837 2 0.105787 0.174608 0.387739
838 2 0.583135 0.502288 0.999421
839 2 0.330086 0.890586 0.891278
840 2 0.493379 0.318218 0.189129
841 2 0.623184 0.463488 0.549252
842 2 0.966276 0.256318 0.976746
843 2 0.208654 0.660186 0.286801
844 2 0.532412 0.149357 0.321178
845 2 0.907851 0.204621 0.417855
846 2 0.480384 0.831374 0.390116
847 2 0.112634 0.991818 0.91818
848 2 0.161922 0.14884 0.495603
849 2 0.459912 0.361096 0.519953
850 2 0.815235 0.211753 0.778789
851 2 0.382518 0.0819573 0.486369
852 2 0.548281 0.326767 0.334421
853 2 0.0561949 0.23441 0.615931
854 2 0.13905 0.43345 0.640012
855 2 0.342169 0.133493 0.4941
856 2 0.399134 0.154045 0.0252577
857 2 0.995222 0.310438 0.933356
858 2 0.325936 0.375062 0.880465
859 2 0.187868 0.354461 0.470313
860 2 0.621429 0.0400013 0.183785
861 2 0.247487 0.0525553 0.602811
862 2 0.120775 0.418088 0.780119
863 2 0.396398 0.708783 0.831835
864 2 0.11722 0.341425 0.955237
865 2 0.772653 0.281886 0.363074
866 2 0.269403 0.347465 0.358004
867 2 0.442178 0.526327 0.404122
868 2 0.919492 0.124978 0.773926
869 2 0.521363 0.504613 0.50428
870 2 0.188571 0.239867 0.0314459
871 2 0.929488 0.383083 0.242436
872 2 0.976106 0.196501 0.739928
873 2 0.508707 0.300276 0.53829
874 2 0.924376 0.160929 0.342158
875 2 0.446506 0.205687 0.221692
876 2 0.292955 0.351336 0.0196786
877 2 0.224998 0.280298 0.129787
878 2 0.138798 0.301325 0.627255
879 2 0.974328 0.282384 0.0207472
880 2 0.27556 0.214458 0.779181
881 2 0.188447 0.84346 0.596906
882 2 0.216127 0.254985 0.152526
883 2 0.165274 0.389384 0.873689
884 2 0.234624 0.108717 0.540092
885 2 0.931546 0.448316 0.449329
886 2 0.22254 0.370536 0.92044
887 2 0.999113 0.302984 0.270014
888 2 0.978505 0.297222 0.383045
889 2 0.892878 0.186536 0.220548
890 2 0.576169 0.20231 0.320987
891 2 0.0655723 0.902823 0.459199
892 2 0.243837 0.420794 0.0708969
893 2 0.986867 0.141411 0.337977
894 2 0.9292 0.965103 0.476467
895 2 0.734064 0.339374 0.849253
896 2 0.143087 0.496876 0.467916
897 2 0.0521451 0.310081 0.298815
898 2 0.20005 0.131639 0.00626801
899 2 0.224864 0.181074 0.325816
900 2 0.253239 0.261703 0.157708
901 2 0.166188 0.286557 0.0744962
902 2 0.281096 0.408797 0.491928
903 2 0.384984 0.196865 0.47771
904 2 0.643099 0.375207 0.833889