ITEM: TIMESTEP
459757
ITEM: NUMBER OF ATOMS
14000
ITEM: BOX BOUNDS pp pp pp
-1.5900858449095892e+00 5.9511269451086790e+01
-1.5900858449095892e+00 5.9511269451086790e+01
-1.5900858449095892e+00 7.7653070075473167e+01
ITEM: ATOMS id type xs ys zs
1 2 0.369894 0.0323887 0.585609
2 2 0.10284 0.106623 0.423742
3 2 0.262971 0.919887 0.142769
4 2 0.0994016 0.0049014 0.361925
5 2 0.100094 0.10218 0.932659
6 2 0.358056 0.410464 0.126071
7 2 0.391573 0.234139 0.393189
8 2 0.666762 0.888163 0.279653
9 2 0.199459 0.985851 0.766094
10 2 0.516285 0.232146 0.455512
11 2 0.455299 0.111408 0.568942
12 2 0.854705 0.444275 0.429236
13 2 0.0639971 0.279166 0.333174
14 2 0.262676 0.217602 0.0933422
15 2 0.130756 0.482091 0.739899
16 2 0.258802 0.402053 0.45465
17 2 0.159544 0.298788 0.883192
18 2 0.418691 0.232934 0.248079
19 2 0.433242 0.449701 0.545591
20 2 0.827181 0.415726 0.729001
21 2 0.95012 0.301991 0.0400408
22 2 0.121508 0.178737 0.946714
23 2 0.714144 0.439167 0.884901
24 2 0.084685 0.279827 0.424126
25 2 0.398453 0.23889 0.935378
26 2 0.618458 0.38887 0.60603
27 2 0.299411 0.120752 0.877161
28 2 0.387524 0.109937 0.475456
29 2 0.995689 0.189326 0.881834
30 2 0.282046 0.145375 0.517125
31 2 0.183516 0.0689013 0.320659
32 2 0.0288212 0.471466 0.363271
33 2 0.35974 0.163888 0.00589885
34 2 0.747864 0.638407 0.0236586
35 2 0.270011 0.171714 0.410564
36 2 0.333664 0.193996 0.405055
37 2 0.114548 0.0150778 0.457647
38 2 0.9271 0.624671 0.366463
39 2 0.248142 0.445358 0.019966
40 2 0.871425 0.833932 0.416837
41 2 0.797547 0.209413 0.427528
42 2 0.44896 0.398362 0.360084
43 2 0.292681 0.360946 0.717579
44 2 0.739928 0.236241 0.622577
45 2 0.174369 0.935208 0.550089
46 2 0.440047 0.530656 0.546979
47 2 0.0434465 0.404523 0.892005
48 2 0.32975 0.292243 0.462683
49 2 0.137372 0.896294 0.902399
50 2 0.206563 0.158637 0.437748
51 2 0.820924 0.339652 0.487383
52 2 0.380938 0.209483 0.371378
53 2 0.221912 0.230031 0.407473
54 2 0.32096 0.510779 0.875772
55 2 0.0234488 0.413062 0.796804
56 2 0.693809 0.284395 0.996867
57 2 0.507118 0.444761 0.917282
58 2 0.33434 0.484453 0.226523
59 2 0.93984 0.0854602 0.800176
60 2 0.755563 0.362095 0.379897
61 2 0.3811 0.239978 0.981853
62 2 0.142248 0.446862 0.179566
63 2 0.0643499 0.297434 0.987727
64 2 0.732059 0.115292 0.253505
65 2 0.188058 0.475835 0.376616
66 2 0.360442 0.505938 0.241228
67 2 0.341721 0.430865 0.568301
68 2 0.281293 0.492767 0.426233
69 2 0.710913 0.551611 0.652224
70 2 0.15281 0.44973 0.966742
71 2 0.800817 0.371833 0.486238
72 2 0.144651 0.371806 0.395312
73 2 0.318435 0.0162876 0.936536
74 2 0.156885 0.282346 0.909642
75 2 0.228659 0.394596 0.669997
76 2 0.68028 0.328522 0.630384
77 2 0.0206355 0.310706 0.338513
78 2 0.0605614 0.115267 0.501704
79 2 0.114547 0.658653 0.310113
80 2 0.593602 0.922945 0.253454
81 2 0.222617 0.152615 0.327204
82 2 0.20396 0.422867 0.883016
83 2 0.444065 0.340765 0.958199
84 2 0.156694 0.452126 0.150764
85 2 0.320675 0.239804 0.143894
86 2 0.286592 0.144091 0.995482
87 2 0.258606 0.114492 0.422139
88 2 0.294858 0.134288 0.379508
89 2 0.280939 0.293168 0.522027
90 2 0.0191571 0.202028 0.00834385
91 2 0.0485192 0.234049 0.479311
92 2 0.2874 0.578357 0.593328
93 2 0.28359 0.258311 0.422712
94 2 0.453242 0.194076 0.616797
95 2 0.361462 0.02465 0.336642
96 2 0.272411 0.0566732 0.424599
97 2 0.66099 0.148725 0.413789
98 2 0.536089 0.396556 0.888997
99 2 0.993198 0.421434 0.562966
100 2 0.138692 0.206287 0.906945
101 2 0.329089 0.203618 0.152665
102 2 0.616258 0.0634363 0.427017
103 2 0.673098 0.0904546 0.263105
104 2 0.694484 0.957257 0.437592
105 2 0.406224 0.171718 0.399411
106 2 0.299441 0.620656 0.565364
107 2 0.149746 0.151637 0.948485
108 2 0.255031 0.516636 0.358918
109 2 0.293599 0.385962 0.99437
110 2 0.330461 0.403844 0.0577734
111 2 0.972137 0.172598 0.783143
112 2 0.158269 0.230251 0.463408
113 2 0.435396 0.473303 0.568747
114 2 0.368124 0.989293 0.345873
115 2 0.198085 0.366984 0.96848
116 2 0.301124 0.50622 0.538421
117 2 0.772269 0.435116 0.306058
118 2 0.133949 0.436811 0.387225
119 2 0.292468 0.828842 0.497889
120 2 0.69644 0.135517 0.306399
121 2 0.832821 0.862692 0.772544
122 2 0.141972 0.952417 0.345237
123 2 0.969392 0.243812 0.995456
124 2 0.364689 0.340644 0.363304
125 2 0.31047 0.027052 0.455996
126 2 0.45307 0.490306 0.674263
127 2 0.153415 0.599659 0.953332
128 2 0.116307 0.105474 0.308902
129 2 0.259509 0.385655 0.557189
130 2 0.180314 0.282021 0.955682
131 2 0.430288 0.91543 0.433787
132 2 0.2654 0.0625702 0.473391
133 2 0.179389 0.11699 0.723706
134 2 0.442581 0.460543 0.468009
135 2 0.297465 0.0749235 0.249959
136 2 0.379042 0.464463 0.359174
137 2 0.777186 0.17639 0.919772
138 2 0.580336 0.463979 0.378727
139 2 0.186869 0.219581 0.401104
140 2 0.416139 0.0419895 0.800399
141 2 0.260161 0.0161726 0.243688
142 2 0.362788 0.996087 0.57879
143 2 0.0396239 0.256002 0.0146775
144 2 0.705828 0.240339 0.89514
145 2 0.500576 0.548729 0.368832
146 2 0.285045 0.135795 0.780588
147 2 0.464747 0.0152962 0.332702
148 2 0.121153 0.232913 0.889785
149 2 0.0565896 0.193668 0.966023
150 2 0.538192 0.0884543 0.320911
151 2 0.574463 0.425944 0.919334
152 2 0.539892 0.134982 0.235013
153 2 0.165158 0.407927 0.42449
154 2 0.282043 0.245301 0.149844
155 2 0.818562 0.328896 0.0481598
156 2 0.0720427 0.142932 0.368548
157 2 0.0597207 0.334509 0.370913
158 2 0.378143 0.789611 0.615422
159 2 0.332805 0.178507 0.360618
160 2 0.741567 0.367842 0.890478
161 2 0.396508 0.834006 0.247842
162 2 0.163722 0.274923 0.33753
163 2 0.0500385 0.385631 0.395675
164 2 0.352154 0.147513 0.556407
165 2 0.794422 0.328147 0.0238471
166 2 0.312134 0.156947 0.502266
167 2 0.131707 0.619527 0.46426
168 2 0.608044 0.960385 0.593963
169 2 0.209641 0.518847 0.437496
170 2 0.651362 0.584831 0.3263
171 2 0.045987 0.163915 0.866487
172 2 0.960174 0.189212 0.893057
173 2 0.508333 0.232285 0.696859
174 2 0.235058 0.497984 0.454325
175 2 0.303342 0.0449672 0.805093
176 2 0.146378 0.332742 0.974535
177 2 0.489983 0.362781 0.32769
178 2 0.289802 0.250568 0.637038
179 2 0.303717 0.390334 0.481934
180 2 0.317048 0.990772 0.160761
181 2 0.397039 0.865403 0.423654
182 2 0.315214 0.493531 0.489814
183 2 0.301785 0.350776 0.0998581
184 2 0.301964 0.433167 0.354966
185 2 0.125792 0.233596 0.273703
186 2 0.452516 0.398956 0.242011
187 2 0.305447 0.40333 0.428587
188 2 0.28804 0.211047 0.866265
189 2 0.9117 0.533577 0.939434
190 2 0.313175 0.0293433 0.360567
191 2 0.249236 0.77958 0.459098
192 2 0.792683 0.146246 0.903985
193 2 0.116973 0.594579 0.336395
194 2 0.534405 0.183812 0.614589
195 2 0.194881 0.405058 0.968351
196 2 0.489895 0.40528 0.234635
197 2 0.0936378 0.278246 0.85938
198 2 0.388516 0.139562 0.972838
199 2 0.544149 0.336835 0.326752
200 2 0.15336 0.234817 0.981452
201 2 0.459698 0.0710388 0.282572
202 2 0.732468 0.497716 0.894076
203 2 0.468734 0.74955 0.453784
204 2 0.218359 0.00624397 0.473654
205 2 0.351051 0.357826 0.389038
206 2 0.255984 0.0365286 0.38035
207 2 0.637397 0.119363 0.210149
208 2 0.26857 0.189449 0.0517133
209 2 0.200206 0.3586 0.940412
210 2 0.459615 0.131912 0.225442
211 2 0.100725 0.375601 0.361902
212 2 0.300066 0.938719 0.847639
213 2 0.815357 0.203853 0.53633
214 2 0.159731 0.215569 0.956603
215 2 0.266682 0.445201 0.837917
216 2 0.432244 0.420554 0.22391
217 2 0.169685 0.344983 0.404851
218 2 0.0883308 0.995528 0.474811
219 2 0.379596 0.816887 0.933339
220 2 0.111184 0.96517 0.436307
221 2 0.271008 0.0576733 0.538279
222 2 0.10116 0.212189 0.46249
223 2 0.2063 0.356656 0.809435
224 2 0.109717 0.86624 0.266822
225 2 0.603332 0.0242162 0.347997
226 2 0.972997 0.238429 0.265178
227 2 0.487403 0.170036 0.691835
228 2 0.0980492 0.758502 0.982283
229 2 0.957685 0.162661 0.346505
230 2 0.497396 0.0393598 0.714451
231 2 0.510133 0.336333 0.31199
232 2 0.445436 0.0214493 0.423477
233 2 0.972866 0.516143 0.351676
234 2 0.0762445 0.978047 0.432089
235 2 0.51541 0.0904871 0.91861
236 2 0.593698 0.181552 0.803468
237 2 0.330096 0.414798 0.370774
238 2 0.83214 0.98473 0.561831
239 2 0.0479054 0.816733 0.242738
240 2 0.628897 0.428959 0.382455
241 2 0.252026 0.373292 0.433875
242 2 0.43859 0.919581 0.961552
243 2 0.573167 0.341665 0.889504
244 2 0.029629 0.248907 0.985457
245 2 0.715625 0.229882 0.940023
246 2 0.963592 0.144246 0.930787
247 2 0.673358 0.195452 0.452929
248 2 0.110637 0.721753 0.471881
249 2 0.516285 0.11999 0.357707
250 2 0.260465 0.907594 0.772147
251 2 0.415712 0.466048 0.353318
252 2 0.44765 0.286178 0.207023
253 2 0.19941 0.126052 0.366853
254 2 0.971163 0.0802452 0.501145
255 2 0.822173 0.645127 0.48169
256 2 0.000153656 0.356056 0.382167
257 2 0.373992 0.0227181 0.275211
258 2 0.634436 0.256215 0.284
259 2 0.355021 0.371477 0.0617481
260 2 0.149511 0.990139 0.554121
261 2 0.979711 0.224953 0.843664
262 2 0.423713 0.0372997 0.4928
263 2 0.0784527 0.633955 0.00342864
264 2 0.940908 0.216097 0.418185
265 2 0.119114 0.877827 0.879429
266 2 0.21108 0.365275 0.0468598
267 2 0.301659 0.132251 0.27436
268 2 0.374128 0.503447 0.588029
269 2 0.285403 0.376854 0.390249
270 2 0.169543 0.319589 0.996113
271 2 0.283269 0.805651 0.349229
272 2 0.0463909 0.185377 0.913713
273 2 0.209416 0.0132083 0.269381
274 2 0.303953 0.0129666 0.885871
275 2 0.441385 0.387299 0.642951
276 2 0.320222 0.407053 0.737979
277 2 0.294848 0.0988902 0.778751
278 2 0.0530658 0.192277 0.427263
279 2 0.703113 0.104765 0.396684
280 2 0.261471 0.404914 0.382851
281 2 0.163288 0.230149 0.270226
282 2 0.517102 0.29105 0.383315
283 2 0.55629 0.728442 0.603826
284 2 0.120729 0.077136 0.38729
285 2 0.312768 0.189186 0.17793
286 2 0.245914 0.510333 0.991883
287 2 0.0587053 0.231072 0.97206
288 2 0.814394 0.220048 0.00262943
289 2 0.0412139 0.100147 0.249547
290 2 0.0761553 0.278568 0.393987
291 2 0.502434 0.206303 0.43484
292 2 0.212243 0.359715 0.100563
293 2 0.680538 0.10962 0.451038
294 2 0.108193 0.314675 0.0300194
295 2 0.0833877 0.907396 0.605407
296 2 0.885273 0.362971 0.350383
297 2 0.407407 0.301674 0.346925
298 2 0.754561 0.189775 0.852539
299 2 0.0955902 0.639319 0.788615
300 2 0.348803 0.208592 0.87795
301 2 0.990007 0.252011 0.711737
302 2 0.404473 0.0973684 0.406562
303 2 0.281812 0.869361 0.463193
304 2 0.894113 0.0702618 0.303257
305 2 0.542184 0.0940675 0.350272
306 2 0.475766 0.50866 0.285416
307 2 0.246192 0.504333 0.587781
308 2 0.949848 0.418086 0.891179
309 2 0.87269 0.281571 0.565358
310 2 0.583696 0.712709 0.434366
311 2 0.315347 0.238644 0.0894298
312 2 0.144253 0.241322 0.528302
313 2 0.432992 0.268745 0.451057
314 2 0.403733 0.332749 0.363963
315 2 0.418788 0.834243 0.393083
316 2 0.371162 0.289397 0.527335
317 2 0.149669 0.945568 0.81901
318 2 0.108924 0.0163503 0.997339
319 2 0.362108 0.0355151 0.973649
320 2 0.26787 0.321765 0.823398
321 2 0.642657 0.35805 0.35532
322 2 0.231077 0.062639 0.460632
323 2 0.499558 0.0601404 0.373653
324 2 0.382693 0.155629 0.419504
325 2 0.0578123 0.502141 0.298796
326 2 0.196608 0.191858 0.363334
327 2 0.354632 0.1033 0.852179
328 2 0.594136 0.424366 0.741001
329 2 0.0575364 0.336173 0.439154
330 2 0.553059 0.285336 0.16774
331 2 0.12638 0.252154 0.299656
332 2 0.488764 0.566911 0.561613
333 2 0.446133 0.362781 0.232763
334 2 0.56095 0.273609 0.492164
335 2 0.241839 0.214385 0.0184837
336 2 0.104704 0.10375 0.883058
337 2 0.247854 0.223931 0.835542
338 2 0.976963 0.15626 0.99437
339 2 0.448635 0.116392 0.761033
340 2 0.459426 0.933467 0.350655
341 2 0.25699 0.283515 0.106263
342 2 0.669203 0.0151809 0.376159
343 2 0.193331 0.671728 0.35458
344 2 0.467992 0.896318 0.346898
345 2 0.71797 0.0844765 0.341602
346 2 0.503238 0.0803358 0.484128
347 2 0.301773 0.0334647 0.427421
348 2 0.145855 0.0970371 0.473004
349 2 0.456989 0.488527 0.451522
350 2 0.40327 0.380943 0.597905
351 2 0.371507 0.857513 0.363244
352 2 0.994126 0.460949 0.292748
353 2 0.721559 0.253101 0.330725
354 2 0.244628 0.177453 0.48207
355 2 0.132452 0.138383 0.299051
356 2 0.285247 0.0904466 0.434959
357 2 0.538035 0.893976 0.273682
358 2 0.495308 0.0357578 0.0141854
359 2 0.259548 0.125886 0.907384
360 2 0.527131 0.440771 0.332792
361 2 0.303542 0.436454 0.413494
362 2 0.0297524 0.286657 0.977611
363 2 0.727461 0.147976 0.213754
364 2 0.523044 0.229105 0.310579
365 2 0.998394 0.395012 0.629214
366 2 0.244308 0.44731 0.357956
367 2 0.260682 0.724616 0.89614
368 2 0.527048 0.792765 0.94975
369 2 0.996577 0.479903 0.401261
370 2 0.342762 0.12766 0.93345
371 2 0.22761 0.989679 0.875958
372 2 0.762559 0.599594 0.821595
373 2 0.13485 0.985644 0.526637
374 2 0.393531 0.412353 0.451302
375 2 0.401526 0.029374 0.921839
376 2 0.267803 0.413774 0.0661161
377 2 0.692917 0.161146 0.329967
378 2 0.503925 0.418205 0.273607
379 2 0.389791 0.139598 0.359069
380 2 0.622905 0.248855 0.364067
381 2 0.351467 0.370814 0.820867
382 2 0.494199 0.356258 0.269831
383 2 0.99198 0.598979 0.968835
384 2 0.0670612 0.105039 0.878946
385 2 0.0970507 0.607809 0.0217376
386 2 0.693351 0.136369 0.203237
387 2 0.545884 0.283396 0.208679
388 2 0.112974 0.197917 0.361208
389 2 0.431672 0.361742 0.353679
390 2 0.573961 0.195356 0.491171
391 2 0.345417 0.993137 0.796953
392 2 0.525761 0.990175 0.334407
393 2 0.213432 0.894483 0.354806
394 2 0.994907 0.281838 0.337152
395 2 0.247866 0.97428 0.610948
396 2 0.404929 0.339087 0.724297
397 2 0.373315 0.360683 0.587935
398 2 0.472744 0.665749 0.359893
399 2 0.454096 0.149273 0.200459
400 2 0.722588 0.327119 0.534546
401 2 0.0371736 0.850056 0.929707
402 2 0.959252 0.487579 0.811375
403 2 0.76979 0.0329202 0.592565
404 2 0.406246 0.326608 0.392508
405 2 0.395133 0.238358 0.835234
406 2 0.709112 0.34577 0.404717
407 2 0.199963 0.85873 0.359231
408 2 0.152925 0.170805 0.821306
409 2 0.346903 0.155961 0.46627
410 2 0.0888278 0.177228 0.015613
411 2 0.382159 0.146739 0.823412
412 2 0.158553 0.985119 0.502678
413 2 0.639869 0.203221 0.466569
414 2 0.401867 0.122931 0.427352
415 2 0.161103 0.515662 0.0330319
416 2 0.510367 0.062838 0.806351
417 2 0.153768 0.158948 0.346505
418 2 0.418338 0.0817899 0.368825
419 2 0.15476 0.285498 0.9995
420 2 0.329686 0.141144 0.156453
421 2 0.571764 0.798617 0.259286
422 2 0.0494102 0.989139 0.218956
423 2 0.475122 0.0763437 0.35472
424 2 0.168597 0.342987 0.45632
425 2 0.294032 0.351881 0.0700775
426 2 0.341581 0.368984 0.925853
427 2 0.116685 0.0540484 0.999323
428 2 0.817471 0.664847 0.405383
429 2 0.314611 0.0060624 0.204018
430 2 0.56875 0.278504 0.12833
431 2 0.245652 0.0698628 0.336273
432 2 0.938276 0.774462 0.628084
433 2 0.466362 0.48557 0.517001
434 2 0.133879 0.125729 0.998407
435 2 0.86573 0.0089212 0.3201
436 2 0.129359 0.611101 0.97423
437 2 0.483751 0.874968 0.4565
438 2 0.143116 0.317341 0.402861
439 2 0.111058 0.368677 0.409991
440 2 0.192168 0.47803 0.0998099
441 2 0.336052 0.745651 0.462923
442 2 0.409852 0.187535 0.310842
443 2 0.758016 0.384108 0.404968
444 2 0.468284 0.267353 0.77906
445 2 0.650872 0.24105 0.414136
446 2 0.133791 0.434288 0.208703
447 2 0.0699608 0.138892 0.314164
448 2 0.212624 0.420881 0.0852406
449 2 0.162654 0.112981 0.448311
450 2 0.266053 0.328799 0.924404
451 2 0.343921 0.442651 0.315049
452 2 0.0977315 0.391534 0.296939
453 2 0.310217 0.243012 0.525151
454 2 0.875856 0.413514 0.381431
455 2 0.828376 0.454655 0.314977
456 2 0.399562 0.149553 0.945613
457 2 0.718029 0.726865 0.120657
458 2 0.108839 0.333617 0.979832
459 2 0.079449 0.868387 0.60476
460 2 0.50144 0.927423 0.30987
461 2 0.708076 0.319245 0.996963
462 2 0.532406 0.326487 0.73234
463 2 0.85898 0.62657 0.444723
464 2 0.933963 0.390035 0.559947
465 2 0.589959 0.00980414 0.249448
466 2 0.111564 0.956976 0.577622
467 2 0.199244 0.1613 0.303812
468 2 0.443255 0.266383 0.381857
469 2 0.3376 0.953074 0.415526
470 2 0.0828729 0.896665 0.184178
471 2 0.283504 0.218595 0.973747
472 2 0.209013 0.421438 0.0559355
473 2 0.776286 0.825351 0.469617
474 2 0.227551 0.0575443 0.782081
475 2 0.299978 0.301495 0.698039
476 2 0.0565669 0.268534 0.285453
477 2 0.163703 0.0666914 0.547644
478 2 0.198239 0.956968 0.303502
479 2 0.478251 0.698352 0.376573
480 2 0.714786 0.410424 0.866006
481 2 0.172206 0.425211 0.924694
482 2 0.899633 0.173871 0.274511
483 2 0.230788 0.249596 0.637669
484 2 0.661257 0.288003 0.811938
485 2 0.398551 0.469552 0.225301
486 2 0.0610567 0.222249 0.911113
487 2 0.363263 0.601997 0.439747
488 2 0.463698 0.882761 0.299297
489 2 0.336414 0.26463 0.39491
490 2 0.427966 0.29499 0.472361
491 2 0.323076 0.74384 0.330808
492 2 0.6858 0.774817 0.891838
493 2 0.169561 0.474191 0.833112
494 2 0.2115 0.264188 0.445757
495 2 0.344275 0.206767 0.37821
496 2 0.0137575 0.0944345 0.295458
497 2 0.470732 0.749929 0.75673
498 2 0.907464 0.187385 0.323655
499 2 0.207767 0.186157 0.475908
500 2 0.516538 0.171083 0.296711
501 2 0.803246 0.356148 0.875223
502 2 0.100412 0.272827 0.337232
503 2 0.713594 0.184111 0.902773
504 2 0.224689 0.666457 0.98686
505 2 0.782623 0.285178 0.843624
506 2 0.100465 0.213675 0.404038
507 2 0.14253 0.966171 0.480155
508 2 0.1705 0.339474 0.594393
509 2 0.0792315 0.106235 0.299995
510 2 0.636761 0.84896 0.607115
511 2 0.959902 0.379375 0.968602
512 2 0.0720706 0.224984 0.42302
513 2 0.282758 0.545738 0.0185418
514 2 0.492213 0.413222 0.563778
515 2 0.133508 0.956162 0.401725
516 2 0.47998 0.792917 0.487524
517 2 0.283437 0.179981 0.160704
518 2 0.771229 0.0660056 0.262957
519 2 0.057413 0.469985 0.014254
520 2 0.763823 0.902783 0.44133
521 2 0.43873 0.341107 0.867087
522 2 0.297859 0.100877 0.227269
523 2 0.174759 0.273033 0.86342
524 2 0.455816 0.0824749 0.310761
525 2 0.0696595 0.374498 0.472916
526 2 0.262689 0.533564 0.494684
527 2 0.344699 0.198601 0.00115805
528 2 0.520745 0.172882 0.89702
529 2 0.350542 0.120906 0.476889
530 2 0.275263 0.440227 0.456462
531 2 0.811927 0.0771166 0.304215
532 2 0.786792 0.036449 0.850772
533 2 0.473623 0.168012 0.578565
534 2 0.285977 0.962764 0.265663
535 2 0.44127 0.861197 0.853944
536 2 0.990651 0.236085 0.390118
537 2 0.112704 0.0101431 0.29028
538 2 0.118523 0.543521 0.432866
539 2 0.0621344 0.76362 0.446058
540 2 0.999748 0.63651 0.971314
541 2 0.367574 0.0969524 0.299541
542 2 0.370486 0.833546 0.644629
543 2 0.390145 0.878897 0.615109
544 2 0.0375967 0.35428 0.994544
545 2 0.600227 0.365664 0.497529
546 2 0.90623 0.307072 0.937014
547 2 0.0409573 0.303598 0.36277
548 2 0.0481731 0.615527 0.992124
549 2 0.182126 0.700727 0.406895
550 2 0.774246 0.419255 0.828632
551 2 0.120562 0.16805 0.315845
552 2 0.0640267 0.407253 0.00669594
553 2 0.241885 0.0402029 0.438128
554 2 0.151816 0.30371 0.70873
555 2 0.182849 0.473974 0.969964
556 2 0.342147 0.264013 0.0503688
557 2 0.545215 0.319074 0.897525
558 2 0.277827 0.1655 0.103068
559 2 0.842507 0.558144 0.00646445
560 2 0.432629 0.201785 0.332129
561 2 0.0148696 0.50085 0.0231417
562 2 0.0813374 0.109373 0.477635
563 2 0.305873 0.195514 0.343896
564 2 0.082571 0.265908 0.654723
565 2 0.49871 0.312975 0.516919
566 2 0.942253 0.12026 0.914397
567 2 0.412626 0.327856 0.970303
568 2 0.361759 0.387033 0.149213
569 2 0.323335 0.0218186 0.332092
570 2 0.162893 0.160342 0.599125
571 2 0.284686 0.468719 0.97546
572 2 0.264919 0.067174 0.396255
573 2 0.669641 0.35953 0.72346
574 2 0.0944838 0.110295 0.590721
575 2 0.458511 0.545314 0.979688
576 2 0.150481 0.0687165 0.425389
577 2 0.334104 0.156911 0.183472
578 2 0.276698 0.103903 0.604065
579 2 0.36959 0.966361 0.489378
580 2 0.529733 0.173474 0.511408
581 2 0.0436062 0.415366 0.285576
582 2 0.243009 0.180242 0.932984
583 2 0.459975 0.932248 0.446518
584 2 0.929388 0.204287 0.974002
585 2 0.215441 0.0899826 0.324343
586 2 0.165459 0.153313 0.397564
587 2 0.518606 0.140635 0.189221
588 2 0.513205 0.563919 0.998442
589 2 0.14345 0.286803 0.433437
590 2 0.141634 0.455 0.685012
591 2 0.163962 0.560676 0.75495
592 2 0.0628169 0.449456 0.404402
593 2 0.360946 0.769712 0.655065
594 2 0.0737468 0.355381 0.34763
595 2 0.0472534 0.215998 0.378853
596 2 0.854212 0.138383 0.226642
597 2 0.00242203 0.338593 0.998081
598 2 0.356509 0.996592 0.385182
599 2 0.42102 0.141861 0.60131
600 2 0.346035 0.093947 0.900093
601 2 0.27131 0.944136 0.176063
602 2 0.0160456 0.133336 0.902884
603 2 0.459163 0.283457 0.339777
604 2 0.977595 0.0176336 0.871253
605 2 0.190184 0.483658 0.590857
606 2 0.310471 0.949674 0.711901
607 2 0.416041 0.266337 0.200811
608 2 0.548377 0.0844449 0.558235
609 2 0.853317 0.464821 0.336702
610 2 0.353589 0.210362 0.612092
611 2 0.318506 0.454892 0.334396
612 2 0.0910867 0.40055 0.926273
613 2 0.470727 0.401599 0.625832
614 2 0.285982 0.291136 0.383309
615 2 0.922906 0.299419 0.963718
616 2 0.493807 0.867299 0.00935572
617 2 0.293195 0.495581 0.627808
618 2 0.334409 0.288832 0.7083
619 2 0.31064 0.136626 0.303619
620 2 0.951376 0.574603 0.458228
621 2 0.706827 0.342507 0.491653
622 2 0.81685 0.308189 0.803313
623 2 0.196168 0.297029 0.0528846
624 2 0.292994 0.624362 0.337556
625 2 0.205933 0.495144 0.656326
626 2 0.0956385 0.221505 0.508685
627 2 0.0213629 0.244246 0.372118
628 2 0.172699 0.400767 0.019164
629 2 0.54023 0.357067 0.395846
630 2 0.206517 0.118898 0.528349
631 2 0.209842 0.299966 0.500897
632 2 0.286307 0.159443 0.317807
633 2 0.625698 0.075091 0.368041
634 2 0.860978 0.15922 0.443043
635 2 0.397272 0.0538494 0.278208
636 2 0.0551596 0.51481 0.393957
637 2 0.517875 0.602668 0.881289
638 2 0.339739 0.562562 0.392811
639 2 0.498369 0.226012 0.75375
640 2 0.433738 0.306871 0.518172
641 2 0.263693 0.396726 0.808526
642 2 0.873699 0.973976 0.30669
643 2 0.299312 0.460658 0.436996
644 2 0.200548 0.325833 0.924644
645 2 0.213142 0.279132 0.0297533
646 2 0.890139 0.335412 0.0566385
647 2 0.200549 0.33088 0.0366516
648 2 0.336441 0.0796132 0.341033
649 2 0.892777 0.200709 0.981023
650 2 0.867567 0.929901 0.185702
651 2 0.603193 0.621088 0.744381
652 2 0.0314597 0.882759 0.885878
653 2 0.494984 0.434484 0.539898
654 2 0.740346 0.249563 0.880074
655 2 0.163239 0.172221 0.753054
656 2 0.331853 0.14772 0.378932
657 2 0.210238 0.0404805 0.530774
658 2 0.36956 0.338868 0.138025
659 2 0.349826 0.211735 0.454198
660 2 0.598464 0.531016 0.389895
661 2 0.301899 0.688127 0.527935
662 2 0.565063 0.0965175 0.875347
663 2 0.463432 0.0918857 0.711147
664 2 0.212296 0.649831 0.374188
665 2 0.262511 0.342788 0.973036
666 2 0.590444 0.176922 0.246101
667 2 0.264536 0.172513 0.439628
668 2 0.85782 0.435529 0.457755
669 2 0.174861 0.704087 0.358891
670 2 0.0216112 0.498602 0.382821
671 2 0.453011 0.508863 0.240947
672 2 0.344509 0.157054 0.40753
673 2 0.173273 0.515296 0.543022
674 2 0.163429 0.398495 0.677155
675 2 0.112018 0.309545 0.340738
676 2 0.75937 0.204542 0.548243
677 2 0.995528 0.229402 0.287453
678 2 0.980815 0.320494 0.956711
679 2 0.320655 0.37876 0.378309
680 2 0.525298 0.386458 0.783902
681 2 0.330853 0.252495 0.84555
682 2 0.932458 0.40373 0.795852
683 2 0.514776 0.795134 0.379981
684 2 0.167325 0.0422545 0.27157
685 2 0.367847 0.446166 0.830908
686 2 0.933756 0.193671 0.276775
687 2 0.191242 0.651864 0.996763
688 2 0.147755 0.329413 0.945033
689 2 0.39391 0.440828 0.967448
690 2 0.321908 0.204648 0.101401
691 2 0.691254 0.392645 0.483883
692 2 0.399525 0.174599 0.370374
693 2 0.0652334 0.293844 0.898172
694 2 0.287422 0.0914902 0.464215
695 2 0.188237 0.0188819 0.431152
696 2 0.0315965 0.490667 0.88701
697 2 0.212049 0.00227531 0.618446
698 2 0.0938455 0.352773 0.299932
699 2 0.973834 0.195758 0.354044
700 2 0.150708 0.976609 0.211935
701 2 0.0887068 0.0558156 0.389894
702 2 0.0880965 0.385112 0.389625
703 2 0.432301 0.787462 0.885249
704 2 0.398043 0.258853 0.960242
705 2 0.164979 0.552898 0.0255025
706 2 0.0777354 0.405686 0.273445
707 2 0.144883 0.59508 0.357003
708 2 0.0507124 0.363383 0.853809
709 2 0.228427 0.0800125 0.828002
710 2 0.42138 0.639598 0.2622
711 2 0.233381 0.358395 0.510599
712 2 0.0764142 0.518354 0.369402
713 2 0.326925 0.988902 0.293655
714 2 0.518813 0.272305 0.16152
715 2 0.702666 0.778297 0.652438
716 2 0.22568 0.0354773 0.289811
717 2 0.0142664 0.464793 0.465192
718 2 0.284843 0.48383 0.927909
719 2 0.918431 0.32307 0.489709
720 2 0.786547 0.851478 0.449366
721 2 0.442209 0.16789 0.409195
722 2 0.194726 0.648589 0.840041
723 2 0.106133 0.147456 0.381888
724 2 0.419284 0.480652 0.72226
725 2 0.0789571 0.937228 0.222824
726 2 0.455677 0.461973 0.381635
727 2 0.182596 0.444128 0.46404
728 2 0.394558 0.151028 0.22549
729 2 0.841617 0.811954 0.460982
730 2 0.38757 0.396231 0.375488
731 2 0.0123998 0.136042 0.52628
732 2 0.401103 0.441838 0.404324
733 2 0.46271 0.294439 0.258258
734 2 0.281425 0.242777 0.0755467
735 2 0.874107 0.492336 0.322192
736 2 0.577473 0.0556409 0.424331
737 2 0.724194 0.274166 0.288983
738 2 0.274929 0.438327 0.999159
739 2 0.148762 0.329028 0.801899
740 2 0.229572 0.444398 0.846402
741 2 0.204458 0.538645 0.613135
742 2 0.319457 0.296067 0.888061
743 2 0.970654 0.352462 0.874384
744 2 0.998735 0.239681 0.944737
745 2 0.41409 0.139421 0.479609
746 2 0.270253 0.121387 0.476079
747 2 0.0584825 0.0160949 0.93597
748 2 0.782939 0.0541678 0.348368
749 2 0.420215 0.233632 0.34759
750 2 0.384182 0.24552 0.666529
751 2 0.0430259 0.248672 0.32916
752 2 0.38898 0.352581 0.956996
753 2 0.267401 0.236332 0.551675
754 2 0.442137 0.102296 0.540883
755 2 0.385645 0.555046 0.421421
756 2 0.423896 0.177062 0.262404
757 2 0.431914 0.626449 0.557452
758 2 0.831689 0.98716 0.279277
759 2 0.0600166 0.57302 0.383629
760 2 0.481212 0.149444 0.245417
761 2 0.0546376 0.26361 0.783557
762 2 0.948834 0.386023 0.396654
763 2 0.3695 0.427469 0.88165
764 2 0.446938 0.604947 0.355519
765 2 0.175436 0.419352 0.508437
766 2 0.000796749 0.893396 0.161586
767 2 0.967042 0.638689 0.858428
768 2 0.0221632 0.462521 0.0234592
769 2 0.34245 0.276805 0.0096833
770 2 0.166747 0.337895 0.0217795
771 2 0.238877 0.0952596 0.400312
772 2 0.277195 0.216648 0.00350835
773 2 0.869847 0.11295 0.526233
774 2 0.15519 0.209519 0.632297
775 2 0.285608 0.954322 0.497055
776 2 0.218059 0.243412 0.822922
777 2 0.0237844 0.949869 0.184835
778 2 0.342695 0.548884 0.345212
779 2 0.0568411 0.0428454 0.286988
780 2 0.386347 0.325542 0.911073
781 2 0.582132 0.382782 0.522614
782 2 0.0263744 0.361211 0.313958
783 2 0.966146 0.460335 0.970067
784 2 0.252229 0.127511 0.95767
785 2 0.114819 0.3736 0.0123178
786 2 0.36183 0.288054 0.168213
787 2 0.308953 0.976991 0.753799
788 2 0.485319 0.398839 0.505548
789 2 0.129963 0.407169 0.285971
790 2 0.27673 0.675866 0.429592
791 2 0.225232 0.144379 0.993863
792 2 0.286676 0.296626 0.493135
793 2 0.0447728 0.08152 0.828351
794 2 0.459755 0.943886 0.378783
795 2 0.0425672 0.335708 0.949171
796 2 0.341912 0.30004 0.509436
797 2 0.307678 0.53717 0.225714
798 2 0.162861 0.777719 0.936749
799 2 0.20428 0.12243 0.338221
800 2 0.719512 0.877591 0.402216
801 2 0.470108 0.954343 0.992917
802 2 0.55242 0.336985 0.270819
803 2 0.272096 0.511315 0.119845
804 2 0.0762752 0.20926 0.485399
805 2 0.217146 0.0969254 0.451569
806 2 0.337657 0.275168 0.959453
807 2 0.15637 0.435668 0.0177888
808 2 0.347169 0.413617 0.609845
809 2 0.033616 0.183724 0.941883
810 2 0.212976 0.329566 0.118842
811 2 0.383553 0.352248 0.536664
812 2 0.33011 0.0523418 0.218065
813 2 0.035793 0.108812 0.601046
814 2 0.357377 0.375614 0.517455
815 2 0.24963 0.0100864 0.456876
816 2 0.0175967 0.449683 0.995442
817 2 0.189518 0.30669 0.711613
818 2 0.118685 0.495447 0.95844
819 2 0.195073 0.839423 0.557002
820 2 0.0877084 0.239605 0.99059
821 2 0.680877 0.273193 0.847789
822 2 0.504256 0.14912 0.500165
823 2 0.000334788 0.223244 0.988583
824 2 0.499326 0.261359 0.656024
825 2 0.389515 0.0772851 0.730922
826 2 0.798093 0.439819 0.00704748
827 2 0.141817 0.545955 0.882932
828 2 0.472446 0.626664 0.398133
829 2 0.171133 0.0500647 0.473036
830 2 0.120636 0.406381 0.533209
831 2 0.030621 0.179232 0.296373
832 2 0.296574 0.193927 0.397629
833 2 0.955485 0.176422 0.974895
834 2 0.695407 0.799595 0.430639
835 2 0.713455 0.217747 0.842001
836 2 0.37863 0.380845 0.402338
837 2 0.105754 0.17494 0.403428
838 2 0.58411 0.502815 0.972419
839 2 0.330436 0.890299 0.872513
840 2 0.490646 0.317489 0.221196
841 2 0.62326 0.463601 0.554254
842 2 0.965271 0.256271 0.951612
843 2 0.208649 0.660376 0.309394
844 2 0.532387 0.149196 0.343013
845 2 0.907847 0.204886 0.431501
846 2 0.480427 0.831428 0.406737
847 2 0.111564 0.991126 0.897122
848 2 0.161811 0.148937 0.504148
849 2 0.459833 0.361318 0.527159
850 2 0.814946 0.211494 0.767455
851 2 0.382416 0.0819993 0.496219
852 2 0.548327 0.326646 0.355301
853 2 0.0560915 0.234444 0.615832
854 2 0.139032 0.433456 0.638472
855 2 0.342017 0.133586 0.503282
856 2 0.391805 0.170973 0.989917
857 2 0.994469 0.31061 0.911097
858 2 0.325867 0.374649 0.862744
859 2 0.187803 0.354641 0.480266
860 2 0.620431 0.0408193 0.214412
861 2 0.247363 0.0524635 0.604198
862 2 0.12087 0.417946 0.768846
863 2 0.39658 0.708374 0.817704
864 2 0.116114 0.341629 0.931651
865 2 0.772493 0.282163 0.380692
866 2 0.269637 0.34773 0.375807
867 2 0.442216 0.526646 0.419579
868 2 0.919007 0.124648 0.762861
869 2 0.52145 0.504829 0.512571
870 2 0.184102 0.241308 0.999722
871 2 0.928385 0.383087 0.267831
872 2 0.975479 0.196138 0.731045
873 2 0.508621 0.30036 0.544267
874 2 0.924357 0.16118 0.360981
875 2 0.445919 0.204646 0.249965
876 2 0.291979 0.347489 0.992724
877 2 0.229093 0.265275 0.0920846
878 2 0.13872 0.301377 0.626534
879 2 0.973196 0.282141 0.992736
880 2 0.275268 0.214249 0.768156
881 2 0.188373 0.843313 0.598631
882 2 0.237194 0.235565 0.11004
883 2 0.165127 0.389127 0.856229
884 2 0.234449 0.108764 0.545803
885 2 0.931698 0.448516 0.46059
886 2 0.222168 0.370223 0.899705
887 2 0.998384 0.302969 0.293533
888 2 0.978459 0.297475 0.398847
889 2 0.892309 0.1869 0.247641
890 2 0.575929 0.202101 0.342558
891 2 0.0655211 0.902872 0.470124
892 2 0.24399 0.416382 0.041606
893 2 0.986828 0.141619 0.357024
894 2 0.92928 0.965208 0.486243
895 2 0.733917 0.339059 0.833061
896 2 0.143011 0.496821 0.477952
897 2 0.0518264 0.310292 0.320139
898 2 0.195755 0.130894 0.977237
899 2 0.225249 0.181525 0.346243
900 2 0.267663 0.253815 0.122895
901 2 0.161998 0.284121 0.0437578
902 2 0.28101 0.408942 0.500667
903 2 0.384942 0.197089 0.487998
904 2 0.642938 0.374987 0.818906
905 2 0.122699 0.435865 0.358031