 vasp.6.5.0 16Dec24 (build Jan 20 2025 08:32:48) complex                         
 executed on        HPECrayEX_GCC date 2025.07.28  19:24:54
 running  128 mpi-ranks, with    1 threads/rank, on    1 nodes
 distrk:  each k-point on  128 cores,    1 groups
 distr:  one band on NCORE=  16 cores,    8 groups


--------------------------------------------------------------------------------------------------------


 INCAR:
   SYSTEM = a-Si SPC
   NCORE = 16
   ISTART = 1
   ICHARG = 1
   ISPIN = 1
   ISYM = 1
   EDIFF = 1E-6
   NELM = 150
   EDIFFG = -0.01
   NSW = 0
   ISIF = 2
   IBRION = -1
   PREC = Accurate
   ENCUT = 1200
   KSPACING = 0.23
   KGAMMA = .TRUE.
   METAGGA = SCAN
   LASPH = .TRUE.
   LDIAG = .FALSE.
   LMIXTAU = .TRUE.
   ADDGRID = .TRUE.
   ALGO = Normal
   ISMEAR = 0
   SIGMA = 0.1
   LORBIT = 11
   NEDOS = 2000
   LWAVE = .FALSE.
   LCHARG = .FALSE.

 POTCAR:    PAW_PBE H 15Jun2001                   
 POTCAR:    PAW_PBE Si 05Jan2001                  
 POTCAR:    PAW_PBE H 15Jun2001                   
   SHA256 =  030f79b5d3ab3cf0e668861823c8fb652ff669f3e15e46930bd03bfd63a607b6 H/POTCAR              
   COPYR  = (c) Copyright 15Jun2001 Georg Kresse                                                    
   COPYR  = This file is part of the software VASP. Any use, copying, and all other rights are regul
   COPYR  = If you do not have a valid VASP license, you may not use, copy or distribute this file. 
   VRHFIN =H: ultrasoft test                                                                        
   LEXCH  = PE                                                                                      
   EATOM  =    12.4884 eV,    0.9179 Ry                                                             
                                                                                                    
   TITEL  = PAW_PBE H 15Jun2001                                                                     
   LULTRA =        F    use ultrasoft PP ?                                                          
   IUNSCR =        0    unscreen: 0-lin 1-nonlin 2-no                                               
   RPACOR =    0.000    partial core radius                                                         
   POMASS =    1.000; ZVAL   =    1.000    mass and valenz                                          
   RCORE  =    1.100    outmost cutoff radius                                                       
   RWIGS  =    0.700; RWIGS  =    0.370    wigner-seitz radius (au A)                               
   ENMAX  =  250.000; ENMIN  =  200.000 eV                                                          
   RCLOC  =    0.701    cutoff for local pot                                                        
   LCOR   =        T    correct aug charges                                                         
   LPAW   =        T    paw PP                                                                      
   EAUG   =  400.000                                                                                
   RMAX   =    1.123    core radius for proj-oper                                                   
   RAUG   =    1.200    factor for augmentation sphere                                              
   RDEP   =    1.112    radius for radial grids                                                     
   RDEPT  =    0.926    core radius for aug-charge                                                  
                                                                                                    
   Atomic configuration                                                                             
    2 entries                                                                                       
     n  l   j            E        occ.                                                              
     1  0  0.50        -6.4927   1.0000                                                             
     2  1  0.50        -3.4015   0.0000                                                             
   Description                                                                                      
     l       E           TYP  RCUT    TYP  RCUT                                                     
     0     -6.4927494     23  1.100                                                                 
     0      6.8029130     23  1.100                                                                 
     1     -4.0817478     23  1.100                                                                 
  local pseudopotential read in
  atomic valenz-charges read in
  non local Contribution for L=           0  read in
    real space projection operators read in
  non local Contribution for L=           0  read in
    real space projection operators read in
  non local Contribution for L=           1  read in
    real space projection operators read in
    PAW grid and wavefunctions read in

   number of l-projection  operators is LMAX  =           3
   number of lm-projection operators is LMMAX =           5

 POTCAR:    PAW_PBE Si 05Jan2001                  
   SHA256 =  79d9987ad8750f624c4d6acb2a16d13abf6a777132adc04dc6c8399be72b42bb Si/POTCAR             
   COPYR  = (c) Copyright 05Jan2001 Georg Kresse                                                    
   COPYR  = This file is part of the software VASP. Any use, copying, and all other rights are regul
   COPYR  = If you do not have a valid VASP license, you may not use, copy or distribute this file. 
   VRHFIN =Si: s2p2                                                                                 
   LEXCH  = PE                                                                                      
   EATOM  =   103.0669 eV,    7.5752 Ry                                                             
                                                                                                    
   TITEL  = PAW_PBE Si 05Jan2001                                                                    
   LULTRA =        F    use ultrasoft PP ?                                                          
   IUNSCR =        1    unscreen: 0-lin 1-nonlin 2-no                                               
   RPACOR =    1.500    partial core radius                                                         
   POMASS =   28.085; ZVAL   =    4.000    mass and valenz                                          
   RCORE  =    1.900    outmost cutoff radius                                                       
   RWIGS  =    2.480; RWIGS  =    1.312    wigner-seitz radius (au A)                               
   ENMAX  =  245.345; ENMIN  =  184.009 eV                                                          
   ICORE  =        2    local potential                                                             
   LCOR   =        T    correct aug charges                                                         
   LPAW   =        T    paw PP                                                                      
   EAUG   =  322.069                                                                                
   DEXC   =    0.000                                                                                
   RMAX   =    1.950    core radius for proj-oper                                                   
   RAUG   =    1.300    factor for augmentation sphere                                              
   RDEP   =    1.993    radius for radial grids                                                     
   RDEPT  =    1.837    core radius for aug-charge                                                  
                                                                                                    
   Atomic configuration                                                                             
    6 entries                                                                                       
     n  l   j            E        occ.                                                              
     1  0  0.50     -1785.8828   2.0000                                                             
     2  0  0.50      -139.4969   2.0000                                                             
     2  1  1.50       -95.5546   6.0000                                                             
     3  0  0.50       -10.8127   2.0000                                                             
     3  1  0.50        -4.0811   2.0000                                                             
     3  2  1.50        -4.0817   0.0000                                                             
   Description                                                                                      
     l       E           TYP  RCUT    TYP  RCUT                                                     
     0    -10.8127223     23  1.900                                                                 
     0     -7.6451159     23  1.900                                                                 
     1     -4.0811372     23  1.900                                                                 
     1      2.4879257     23  1.900                                                                 
     2     -4.0817478      7  1.900                                                                 
  local pseudopotential read in
  partial core-charges read in
  partial kinetic energy density read in
  atomic valenz-charges read in
  non local Contribution for L=           0  read in
    real space projection operators read in
  non local Contribution for L=           0  read in
    real space projection operators read in
  non local Contribution for L=           1  read in
    real space projection operators read in
  non local Contribution for L=           1  read in
    real space projection operators read in
    PAW grid and wavefunctions read in

   number of l-projection  operators is LMAX  =           4
   number of lm-projection operators is LMMAX =           8

 -----------------------------------------------------------------------------
|                                                                             |
|               ----> ADVICE to this user running VASP <----                  |
|                                                                             |
|     You have a (more or less) 'large supercell' and for larger cells it     |
|     might be more efficient to use real-space projection operators.         |
|     Therefore, try LREAL= Auto in the INCAR file.                           |
|     Mind: For very accurate calculation, you might also keep the            |
|     reciprocal projection scheme (i.e. LREAL=.FALSE.).                      |
|                                                                             |
 -----------------------------------------------------------------------------

 -----------------------------------------------------------------------------
|                                                                             |
|               ----> ADVICE to this user running VASP <----                  |
|                                                                             |
|     You enforced a specific xc type in the INCAR file but a different       |
|     type was found in the POTCAR file.                                      |
|     I HOPE YOU KNOW WHAT YOU ARE DOING!                                     |
|                                                                             |
 -----------------------------------------------------------------------------

  PAW_PBE H 15Jun2001                   :
 energy of atom  1       EATOM=  -12.4884
 kinetic energy error for atom=    0.0000 (will be added to EATOM!!)
  PAW_PBE Si 05Jan2001                  :
 energy of atom  2       EATOM= -103.0669
 kinetic energy error for atom=    0.0001 (will be added to EATOM!!)


 POSCAR:  H Si
  positions in cartesian coordinates
  No initial velocities read in


 exchange-correlation table for SCAN
   RHO(1)=    0.500       N(1)  =     2000
   RHO(2)=  100.500       N(2)  =     4000



--------------------------------------------------------------------------------------------------------


 ion  position               nearest neighbor table
   1  0.267  0.392  0.662-  14 0.74
   2  0.347  0.395  0.454-  30 1.49
   3  0.164  0.249  0.536-  51 1.49
   4  0.387  0.538  0.656-  12 0.74
   5  0.199  0.313  0.414-  20 0.80  89 1.98
   6  0.217  0.486  0.420-  86 1.49
   7  0.114  0.264  0.664- 111 1.49
   8  0.386  0.369  0.630-  83 1.49
   9  0.043  0.523  0.590-  53 1.50
  10  0.486  0.775  0.348-  74 1.49
  11  0.285  0.324  0.520-  98 1.48
  12  0.384  0.531  0.682-   4 0.74
  13  0.075  0.422  0.472-  67 1.49
  14  0.236  0.431  0.668-   1 0.74
  15  0.158  0.413  0.591-  22 0.74
  16  0.062  0.588  0.474- 104 1.49
  17  0.144  0.500  0.345-  86 1.48
  18  0.223  0.247  0.327-  89 1.48
  19  0.254  0.525  0.533-  82 1.49
  20  0.171  0.323  0.437-   5 0.80
  21  0.840  0.599  0.636-  99 1.50
  22  0.195  0.445  0.584-  15 0.74
  23  0.207  0.563  0.653-  87 1.50
  24  0.454  0.950  0.633-  73 2.29  85 2.32  31 2.35
  25  0.792  0.943  0.646- 119 2.34  80 2.36  59 2.46  84 2.85
  26  0.837  0.201  0.416-  66 2.28  95 2.32  40 2.34  81 2.35 100 2.91
  27  0.512  0.069  0.504- 112 2.30  96 2.33  33 2.37  31 2.41
  28  0.059  0.864  0.618-  76 2.33 119 2.36 117 2.36  92 2.42
  29  0.676  0.674  0.374-  71 2.26  42 2.29  46 2.37
  30  0.423  0.411  0.420-   2 1.49  36 2.28 103 2.32  37 2.35
  31  0.478  0.079  0.585-  61 2.32  24 2.35  58 2.38  27 2.41
  32  0.004  0.016  0.381-  66 2.26  39 2.30 102 2.33
  33  0.439  0.200  0.472-  37 2.29  27 2.37  45 2.40  98 2.40
  34  0.666  0.502  0.548- 113 2.29 107 2.31  56 2.31  35 2.41  55 2.72  99 3.08
  35  0.598  0.577  0.613-  55 2.36  68 2.37  34 2.41  44 2.46  56 3.13
  36  0.483  0.551  0.436-  30 2.28  56 2.30  71 2.31 114 2.40
  37  0.533  0.295  0.430-  33 2.29 101 2.30  30 2.35 116 2.39
  38  0.395  0.836  0.532- 112 2.31  97 2.33 108 2.33  85 2.35
  39  0.963  0.888  0.423-  32 2.30  52 2.31  77 2.34 110 2.36
  40  0.734  0.167  0.475-  90 2.31  96 2.31 101 2.33  26 2.34
  41  0.233  0.090  0.632- 111 2.30  76 2.33  58 2.35
  42  0.809  0.688  0.416-  29 2.29  72 2.33  52 2.35  64 2.41  46 3.10
  43  0.250  0.932  0.403-  50 2.25  47 2.28  49 2.34
  44  0.452  0.541  0.575-  56 2.35  82 2.42  83 2.42  35 2.46
  45  0.357  0.161  0.403-  89 2.33  49 2.35 106 2.36  33 2.40
  46  0.619  0.778  0.431-  74 2.32  70 2.33  29 2.37  78 2.40  42 3.10
  47  0.406  0.936  0.404-  43 2.28  74 2.29 106 2.30 112 2.33
  48  0.864  0.471  0.466-  72 2.32  67 2.32  91 2.32 113 2.32
  49  0.226  0.082  0.429-  62 2.34  43 2.34  45 2.35 102 2.35
  50  0.185  0.806  0.371-  43 2.25  77 2.30 118 2.31
  51  0.080  0.209  0.557-   3 1.49 111 2.32  93 2.34  57 2.39
  52  0.835  0.834  0.385-  39 2.31  42 2.35 105 2.48  78 2.65
  53  0.985  0.447  0.608-   9 1.50  93 2.34  99 2.35
  54  0.867  0.445  0.347- 100 2.30  81 2.45  72 2.45
  55  0.685  0.449  0.637-  35 2.36  79 2.49  99 2.51  34 2.72 107 2.86
  56  0.542  0.566  0.509-  36 2.30  34 2.31  44 2.35  70 2.36  35 3.13
  57  0.052  0.073  0.513-  65 2.30 102 2.37  51 2.39  60 2.39
  58  0.327  0.134  0.570-  41 2.35  98 2.36  31 2.38  62 2.41
  59  0.719  0.076  0.610-  61 2.34  90 2.36  25 2.46 109 2.53  84 2.55
  60  0.162  0.954  0.526-  62 2.29  76 2.33  57 2.39  94 2.40
  61  0.586  0.158  0.628-  31 2.32  79 2.33  59 2.34
  62  0.279  0.049  0.503-  60 2.29 112 2.29  49 2.34  58 2.41
  63  0.879  0.786  0.536-  64 2.31 110 2.33  92 2.38  80 2.38
  64  0.782  0.687  0.498- 113 2.30  63 2.31  70 2.38  42 2.41
  65  0.910  0.024  0.537-  57 2.30  90 2.31 110 2.34 119 2.39
  66  0.856  0.061  0.382-  32 2.26  26 2.28 105 2.28
  67  0.986  0.373  0.477-  13 1.49  48 2.32  93 2.32  95 2.33
  68  0.663  0.720  0.633-  73 2.31  80 2.36  35 2.37
  69  0.829  0.278  0.576-  90 2.29  93 2.31 109 2.36 107 2.38
  70  0.621  0.707  0.502- 108 2.29  46 2.33  56 2.36  64 2.38
  71  0.634  0.544  0.411-  29 2.26  36 2.31  91 2.37
  72  0.907  0.563  0.404-  48 2.32  42 2.33 104 2.33  54 2.45
  73  0.574  0.849  0.623-  24 2.29  68 2.31 108 2.31  84 2.39  80 3.04
  74  0.475  0.795  0.398-  10 1.49  47 2.29  46 2.32 114 2.36
  75  0.354  0.720  0.639-  85 2.33  87 2.33  82 3.03
  76  0.194  0.945  0.605-  28 2.33  60 2.33  41 2.33  85 2.35
  77  0.078  0.776  0.428-  50 2.30  39 2.34 104 2.35  94 2.35
  78  0.718  0.907  0.445-  96 2.37  46 2.40 110 2.42 105 2.43  52 2.65
  79  0.589  0.316  0.613- 107 2.27  61 2.33  83 2.37  55 2.49
  80  0.773  0.815  0.597-  84 2.36  25 2.36  68 2.36  63 2.38  73 3.04
  81  0.768  0.319  0.373-  91 2.34  26 2.35 116 2.39  54 2.45 100 2.64
  82  0.302  0.602  0.557-  19 1.49  87 2.38  97 2.38  44 2.42  75 3.03
  83  0.446  0.377  0.589-   8 1.49  79 2.37  98 2.41  44 2.42
  84  0.671  0.928  0.570-  80 2.36  73 2.39 108 2.47  59 2.55  25 2.85
  85  0.333  0.863  0.606-  24 2.32  75 2.33  38 2.35  76 2.35
  86  0.176  0.552  0.386-  17 1.48   6 1.49 118 2.31 104 2.34
  87  0.215  0.647  0.623-  23 1.50  75 2.33  82 2.38 117 2.38
  88  0.607  0.082  0.379- 106 2.33  96 2.35 116 2.35 105 2.52
  89  0.285  0.281  0.364-  18 1.48   5 1.98 103 2.30  45 2.33
  90  0.799  0.136  0.546-  69 2.29  40 2.31  65 2.31  59 2.36 109 3.04
  91  0.728  0.419  0.433-  48 2.32 101 2.32  81 2.34  71 2.37
  92  0.037  0.762  0.553- 117 2.31  63 2.38  94 2.40  28 2.42
  93  0.973  0.328  0.554-  69 2.31  67 2.32  51 2.34  53 2.34
  94  0.154  0.799  0.498-  77 2.35  92 2.40  60 2.40  97 2.48
  95  0.986  0.254  0.423-  26 2.32  67 2.33 102 2.36 100 2.40
  96  0.638  0.046  0.456-  40 2.31  27 2.33  88 2.35  78 2.37
  97  0.305  0.720  0.500-  38 2.33  82 2.38 114 2.44  94 2.48
  98  0.368  0.275  0.536-  11 1.48  58 2.36  33 2.40  83 2.41
  99  0.837  0.510  0.610-  21 1.50  53 2.35 113 2.37  55 2.51  34 3.08
 100  0.942  0.305  0.348-  54 2.30  95 2.40  81 2.64  26 2.91
 101  0.658  0.308  0.478- 107 2.29  37 2.30  91 2.32  40 2.33
 102  0.068  0.117  0.435-  32 2.33  49 2.35  95 2.36  57 2.37
 103  0.356  0.418  0.348-  89 2.30  30 2.32
 104  0.051  0.617  0.425-  16 1.49  72 2.33  86 2.34  77 2.35
 105  0.734  0.967  0.367-  66 2.28  78 2.43  52 2.48  88 2.52
 106  0.453  0.060  0.361-  47 2.30  88 2.33  45 2.36
 107  0.687  0.345  0.554-  79 2.27 101 2.29  34 2.31  69 2.38  55 2.86
 108  0.551  0.818  0.546-  70 2.29  73 2.31  38 2.33  84 2.47
 109  0.826  0.193  0.646- 115 2.28  69 2.36  59 2.53  90 3.04
 110  0.863  0.909  0.486-  63 2.33  65 2.34  39 2.36  78 2.42
 111  0.103  0.180  0.635-   7 1.49 115 2.28  41 2.30  51 2.32
 112  0.404  0.961  0.483-  62 2.29  27 2.30  38 2.31  47 2.33
 113  0.813  0.547  0.531-  34 2.29  64 2.30  48 2.32  99 2.37
 114  0.380  0.678  0.428- 118 2.31  74 2.36  36 2.40  97 2.44
 115  0.962  0.115  0.643- 111 2.28 109 2.28 119 2.29
 116  0.624  0.241  0.367-  88 2.35  37 2.39  81 2.39
 117  0.061  0.703  0.626-  92 2.31  28 2.36  87 2.38
 118  0.272  0.673  0.370-  86 2.31 114 2.31  50 2.31
 119  0.937  0.971  0.614- 115 2.29  25 2.34  28 2.36  65 2.39

  LATTYP: Found a simple tetragonal cell.
 ALAT       =    14.5699491063
 C/A-ratio  =     1.9893191382
  
  Lattice vectors:
  
 A1 = (  14.5699491063,   0.0000000000,   0.0000000000)
 A2 = (   0.0000000000,  14.5699491063,   0.0000000000)
 A3 = (   0.0000000000,   0.0000000000,  28.9842786000)


Analysis of symmetry for initial positions (statically):
=====================================================================
 Subroutine PRICEL returns:
 Original cell was already a primitive cell.
 

 Routine SETGRP: Setting up the symmetry group for a 
 simple tetragonal supercell.


 Subroutine GETGRP returns: Found  1 space group operations
 (whereof  1 operations were pure point group operations)
 out of a pool of 16 trial point group operations.


The static configuration has the point symmetry C_1 .


Analysis of symmetry for dynamics (positions and initial velocities):
=====================================================================
 Subroutine PRICEL returns:
 Original cell was already a primitive cell.
 

 Routine SETGRP: Setting up the symmetry group for a 
 simple tetragonal supercell.


 Subroutine GETGRP returns: Found  1 space group operations
 (whereof  1 operations were pure point group operations)
 out of a pool of 16 trial point group operations.


The dynamic configuration has the point symmetry C_1 .


 Subroutine INISYM returns: Found  1 space group operations
 (whereof  1 operations are pure point group operations),
 and found     1 'primitive' translations


----------------------------------------------------------------------------------------

                                     Primitive cell                                     

  volume of cell :    6152.8817

  direct lattice vectors                    reciprocal lattice vectors
    14.569949106  0.000000000  0.000000000     0.068634420  0.000000000  0.000000000
     0.000000000 14.569949106  0.000000000     0.000000000  0.068634420  0.000000000
     0.000000000  0.000000000 28.984278600     0.000000000  0.000000000  0.034501462

  length of vectors
    14.569949106 14.569949106 28.984278600     0.068634420  0.068634420  0.034501462

  position of ions in fractional coordinates (direct lattice)
     0.267207044  0.392230437  0.661551513
     0.346698021  0.395213533  0.454047030
     0.164062609  0.248768231  0.536291551
     0.386614506  0.537865103  0.656340664
     0.198607765  0.312577636  0.414053973
     0.216690279  0.486411472  0.420098628
     0.114137676  0.264436357  0.663625096
     0.386328567  0.369274840  0.630392445
     0.043237242  0.523379899  0.590232567
     0.485634685  0.775303922  0.347961483
     0.284722747  0.324431507  0.520325826
     0.383923239  0.530843455  0.681730096
     0.074743784  0.421727675  0.472173815
     0.235878577  0.430829492  0.667512890
     0.157834641  0.412582270  0.590831455
     0.061946662  0.588449633  0.474497989
     0.144342889  0.500096977  0.345291761
     0.223363408  0.247323227  0.327286184
     0.254310754  0.524690464  0.533425298
     0.171165358  0.323274965  0.437191161
     0.840248034  0.598977924  0.636217632
     0.195198310  0.444988878  0.584343050
     0.207062941  0.563482400  0.652762448
     0.454394876  0.950033288  0.632660718
     0.792495894  0.943090346  0.646479307
     0.837482350  0.200977073  0.415580736
     0.511595839  0.069057389  0.504052873
     0.058656921  0.863932195  0.618163377
     0.675761422  0.674199748  0.374483599
     0.422501680  0.411042487  0.420335810
     0.477882853  0.078900112  0.585152480
     0.003809818  0.016314322  0.380974755
     0.438519835  0.199540169  0.471857506
     0.665679497  0.501523878  0.547897398
     0.597555757  0.576564077  0.613470955
     0.483481449  0.551325500  0.436129293
     0.532651852  0.294507550  0.430036665
     0.394506626  0.835931353  0.531815778
     0.963158552  0.888274820  0.422710842
     0.733928956  0.167151053  0.474962565
     0.233164449  0.090387970  0.632187497
     0.809275582  0.687580539  0.415724312
     0.249863743  0.931677745  0.403254821
     0.451879812  0.540538001  0.574944976
     0.356769375  0.160602126  0.402882998
     0.618803097  0.778369626  0.430618707
     0.406092097  0.936465111  0.403996588
     0.863583316  0.471344942  0.465625369
     0.225575805  0.082494034  0.428721230
     0.185256504  0.806212575  0.371484976
     0.079583235  0.208766594  0.556942857
     0.834866012  0.834400401  0.384714815
     0.984673997  0.446597088  0.608157098
     0.867476392  0.444831379  0.346887196
     0.685044326  0.448686564  0.637197008
     0.542445987  0.565910472  0.509256799
     0.051936083  0.073068096  0.513012962
     0.326981877  0.133846120  0.570157143
     0.718856308  0.076298908  0.610015717
     0.161814126  0.954146386  0.526187639
     0.585691966  0.158412952  0.628317020
     0.278755355  0.048518773  0.503046229
     0.878863117  0.785842529  0.536407823
     0.782404712  0.686527322  0.497802500
     0.909863725  0.023545564  0.537343636
     0.855559329  0.060817964  0.381970195
     0.985850052  0.372539139  0.477458947
     0.663157121  0.719865234  0.633058983
     0.828793848  0.277632477  0.576316121
     0.620672185  0.707003107  0.502394245
     0.633847755  0.543926803  0.411242549
     0.906514254  0.562830910  0.403976645
     0.573994414  0.849480963  0.623425039
     0.474517225  0.795259687  0.397968290
     0.353870649  0.719609006  0.639367045
     0.193598878  0.945112034  0.604880434
     0.077537484  0.776252085  0.427743617
     0.718195584  0.906999477  0.444765893
     0.588874609  0.315593027  0.613139713
     0.773225170  0.815345969  0.597276024
     0.767940544  0.319369032  0.372768506
     0.302199154  0.602346586  0.556959326
     0.446160928  0.376749068  0.588717142
     0.670797267  0.928348025  0.570042157
     0.332650106  0.863018910  0.605545574
     0.175630594  0.551617142  0.386463327
     0.215095692  0.646978867  0.622881402
     0.606961065  0.082277137  0.378505974
     0.285310262  0.280765865  0.364026083
     0.798785727  0.135563167  0.545882698
     0.728308626  0.418901475  0.432864861
     0.036671340  0.761675712  0.553359027
     0.972541926  0.327973209  0.553915204
     0.153625320  0.799206431  0.498354887
     0.986420636  0.254424143  0.423408889
     0.638014244  0.046429713  0.456096254
     0.304649958  0.720116371  0.499844141
     0.367989638  0.275208864  0.536353676
     0.836766477  0.510232945  0.610275574
     0.941519742  0.305206960  0.347949295
     0.657790202  0.308018972  0.478103257
     0.068327622  0.116804548  0.434680304
     0.355974267  0.418379615  0.347666232
     0.050801981  0.617197852  0.425346580
     0.734031320  0.966870948  0.367012829
     0.452563898  0.060255707  0.360934368
     0.686527796  0.344501751  0.553734602
     0.551140454  0.818316832  0.546021873
     0.826256058  0.193155628  0.645670325
     0.862992240  0.908847015  0.485912718
     0.103356216  0.180084896  0.634905946
     0.403890985  0.961328324  0.483356821
     0.812506996  0.546605797  0.531383786
     0.380103968  0.678127870  0.427786164
     0.961989633  0.115349323  0.643099130
     0.623821380  0.241227138  0.366943214
     0.061335091  0.702623308  0.626238578
     0.271650880  0.673059295  0.369800813
     0.937235485  0.970826428  0.614344731

  ion indices of the primitive-cell ions
   primitive index   ion index
                 1           1
                 2           2
                 3           3
                 4           4
                 5           5
                 6           6
                 7           7
                 8           8
                 9           9
                10          10
                11          11
                12          12
                13          13
                14          14
                15          15
                16          16
                17          17
                18          18
                19          19
                20          20
                21          21
                22          22
                23          23
                24          24
                25          25
                26          26
                27          27
                28          28
                29          29
                30          30
                31          31
                32          32
                33          33
                34          34
                35          35
                36          36
                37          37
                38          38
                39          39
                40          40
                41          41
                42          42
                43          43
                44          44
                45          45
                46          46
                47          47
                48          48
                49          49
                50          50
                51          51
                52          52
                53          53
                54          54
                55          55
                56          56
                57          57
                58          58
                59          59
                60          60
                61          61
                62          62
                63          63
                64          64
                65          65
                66          66
                67          67
                68          68
                69          69
                70          70
                71          71
                72          72
                73          73
                74          74
                75          75
                76          76
                77          77
                78          78
                79          79
                80          80
                81          81
                82          82
                83          83
                84          84
                85          85
                86          86
                87          87
                88          88
                89          89
                90          90
                91          91
                92          92
                93          93
                94          94
                95          95
                96          96
                97          97
                98          98
                99          99
               100         100
               101         101
               102         102
               103         103
               104         104
               105         105
               106         106
               107         107
               108         108
               109         109
               110         110
               111         111
               112         112
               113         113
               114         114
               115         115
               116         116
               117         117
               118         118
               119         119

----------------------------------------------------------------------------------------


 -----------------------------------------------------------------------------
|                                                                             |
|           W    W    AA    RRRRR   N    N  II  N    N   GGGG   !!!           |
|           W    W   A  A   R    R  NN   N  II  NN   N  G    G  !!!           |
|           W    W  A    A  R    R  N N  N  II  N N  N  G       !!!           |
|           W WW W  AAAAAA  RRRRR   N  N N  II  N  N N  G  GGG   !            |
|           WW  WW  A    A  R   R   N   NN  II  N   NN  G    G                |
|           W    W  A    A  R    R  N    N  II  N    N   GGGG   !!!           |
|                                                                             |
|     The requested file  could not be found or opened for reading            |
|     k-point information. Automatic k-point generation is used as a          |
|     fallback, which may lead to unwanted results.                           |
|                                                                             |
 -----------------------------------------------------------------------------



Automatic generation of k-mesh.
 Grid dimensions derived from KSPACING:
 generate k-points for:    2    2    1

 Generating k-lattice:

  Cartesian coordinates                     Fractional coordinates (reciprocal lattice)
     0.034317210  0.000000000  0.000000000     0.500000000  0.000000000  0.000000000
     0.000000000  0.034317210  0.000000000     0.000000000  0.500000000  0.000000000
     0.000000000  0.000000000  0.034501462     0.000000000  0.000000000  1.000000000

  Length of vectors
     0.034317210  0.034317210  0.034501462

  Shift w.r.t. Gamma in fractional coordinates (k-lattice)
     0.000000000  0.000000000  0.000000000

 
 Subroutine IBZKPT returns following result:
 ===========================================
 
 Found      4 irreducible k-points:
 
 Following reciprocal coordinates:
            Coordinates               Weight
  0.000000  0.000000  0.000000      1.000000
  0.500000  0.000000  0.000000      1.000000
  0.000000  0.500000  0.000000      1.000000
  0.500000  0.500000  0.000000      1.000000
 
 Following cartesian coordinates:
            Coordinates               Weight
  0.000000  0.000000  0.000000      1.000000
  0.034317  0.000000  0.000000      1.000000
  0.000000  0.034317  0.000000      1.000000
  0.034317  0.034317  0.000000      1.000000
 


--------------------------------------------------------------------------------------------------------




 Dimension of arrays:
   k-points           NKPTS =      4   k-points in BZ     NKDIM =      4   number of bands    NBANDS=    264
   number of dos      NEDOS =   2000   number of ions     NIONS =    119
   non local maximal  LDIM  =      4   non local SUM 2l+1 LMDIM =      8
   total plane-waves  NPLWV = ******
   max r-space proj   IRMAX =      1   max aug-charges    IRDMAX= 412410
   dimension x,y,z NGX =   168 NGY =  168 NGZ =  336
   dimension x,y,z NGXF=   336 NGYF=  336 NGZF=  672
   support grid    NGXF=   672 NGYF=  672 NGZF= 1344
   ions per type =              23  96
   NGX,Y,Z   is equivalent  to a cutoff of  19.17, 19.17, 19.27 a.u.
   NGXF,Y,Z  is equivalent  to a cutoff of  38.34, 38.34, 38.54 a.u.

 SYSTEM =  a-Si SPC                                
 POSCAR =   H Si                                   

 Startparameter for this run:
   NWRITE =      2    write-flag & timer
   PREC   = accura    normal or accurate (medium, high low for compatibility)
   ISTART =      1    job   : 0-new  1-cont  2-samecut
   ICHARG =      1    charge: 1-file 2-atom 10-const
   ISPIN  =      1    spin polarized calculation?
   LNONCOLLINEAR =      F non collinear calculations
   LSORBIT =      F    spin-orbit coupling
   INIWAV =      1    electr: 0-lowe 1-rand  2-diag
   LASPH  =      T    aspherical Exc in radial PAW
 Electronic Relaxation 1
   ENCUT  = 1200.0 eV  88.20 Ry    9.39 a.u.  41.15 41.15 81.87*2*pi/ulx,y,z
   ENINI  = 1200.0     initial cutoff
   ENAUG  =  400.0 eV  augmentation charge cutoff
   NELM   =    150;   NELMIN=  2; NELMDL=  0     # of ELM steps 
   EDIFF  = 0.1E-05   stopping-criterion for ELM
   LREAL  =      F    real-space projection
   NLSPLINE    = F    spline interpolate recip. space projectors
   LCOMPAT=      F    compatible to vasp.4.4
   GGA_COMPAT  = T    GGA compatible to vasp.4.4-vasp.4.6
   LMAXPAW     = -100 max onsite density
   LMAXMIX     =    2 max onsite mixed and CHGCAR
   VOSKOWN=      0    Vosko Wilk Nusair interpolation
   ROPT   =    0.00000   0.00000
 Ionic relaxation
   EDIFFG = -.1E-01   stopping-criterion for IOM
   NSW    =      0    number of steps for IOM
   NBLOCK =      1;   KBLOCK =      1    inner block; outer block 
   IBRION =     -1    ionic relax: 0-MD 1-quasi-New 2-CG
   NFREE  =      0    steps in history (QN), initial steepest desc. (CG)
   ISIF   =      2    stress and relaxation
   IWAVPR =     10    prediction:  0-non 1-charg 2-wave 3-comb
   ISYM   =      1    0-nonsym 1-usesym 2-fastsym
   LCORR  =      T    Harris-Foulkes like correction to forces

   POTIM  = 0.5000    time-step for ionic-motion
   TEIN   =    0.0    initial temperature
   TEBEG  =    0.0;   TEEND  =   0.0 temperature during run
   SMASS  =  -3.00    Nose mass-parameter (am)
   estimated Nose-frequenzy (Omega)   =  0.10E-29 period in steps = 0.13E+47 mass=  -0.485E-26a.u.
   SCALEE = 1.0000    scale energy and forces
   NPACO  =    256;   APACO  = 10.0  distance and # of slots for P.C.
   PSTRESS=    0.0 pullay stress

  Mass of Ions in am
   POMASS =   1.00 28.09
  Ionic Valenz
   ZVAL   =   1.00  4.00
  Atomic Wigner-Seitz radii
   RWIGS  =  -1.00 -1.00
  virtual crystal weights 
   VCA    =   1.00  1.00
   NELECT =     407.0000    total number of electrons
   NUPDOWN=      -1.0000    fix difference up-down

 DOS related values:
   EMIN   =  10.00;   EMAX   =-10.00  energy-range for DOS
   EFERMI =   0.00;   METHOD = LEGACY      
   ISMEAR =     0;   SIGMA  =   0.10  broadening in eV -4-tet -1-fermi 0-gaus
   EFERMI_NEDOS =   21; number of points for ismear=-14 and -15

 Electronic relaxation 2 (details)
   IALGO  =     38    algorithm
   LDIAG  =      F    sub-space diagonalisation (order eigenvalues)
   LSUBROT=      F    optimize rotation matrix (better conditioning)
   TURBO    =      0    0=normal 1=particle mesh
   IRESTART =      0    0=no restart 2=restart with 2 vectors
   NREBOOT  =      0    no. of reboots
   NMIN     =      0    reboot dimension
   EREF     =   0.00    reference energy to select bands
   IMIX   =      4    mixing-type and parameters
     AMIX     =   0.40;   BMIX     =  1.00
     AMIX_MAG =   1.60;   BMIX_MAG =  1.00
     AMIN     =   0.10
     WC   =   100.;   INIMIX=   1;  MIXPRE=   1;  MAXMIX= -45

 Intra band minimization:
   WEIMIN = 0.0000     energy-eigenvalue tresh-hold
   EBREAK =  0.95E-09  absolut break condition
   DEPER  =   0.30     relativ break condition  

   TIME   =   0.40     timestep for ELM

  volume/ion in A,a.u.               =      51.70       348.92
  Fermi-wavevector in a.u.,A,eV,Ry     =   0.662085  1.251158  5.964195  0.438356
  Thomas-Fermi vector in A             =   1.735044

 Write flags
   LWAVE        =      F    write WAVECAR
   LDOWNSAMPLE  =      F    k-point downsampling of WAVECAR
   LCHARG       =      F    write CHGCAR
   LVTOT        =      F    write LOCPOT, total local potential
   LVHAR        =      F    write LOCPOT, Hartree potential only
   WRT_POTENTIAL= false  ! write potential to hdf5 file
   LELF         =      F    write electronic localiz. function (ELF)
   LORBIT       =     11    0 simple, 1 ext, 2 COOP (PROOUT), +10 PAW based schemes


 Python interface
   PLUGINS active      =      F    recompile with -DPLUGINS to activate

 Dipole corrections
   LMONO      =      F    monopole corrections only (constant potential shift)
   LDIPOL     =      F    correct potential (dipole corrections)
   IDIPOL     =      0    1-x, 2-y, 3-z, 4-all directions 
   EPSILON    =  1.0000000 bulk dielectric constant
   LVACPOTAV  =      F  vacuum potentials using an averaging scheme for the charge density
   VACPOTFLAT =  0.1000000 required flatness to determine vacuum potential

Coulomb truncation method
  LTRUNCATE          =      F  Coulomb kernel truncation to be used
  IDIMENSIONALITY    =      3  Dimensionality of cutoff (0 molecules / 2 surfaces)
  ISURFACE           =     -1  Direction of surface normal
  LCOARSEN           =      F  Coarsen the charge grid before padding, preferred


 Exchange correlation treatment:
   METAGGA = SCAN    functional components
   XC_C    = 1    coefficients multiplying the functional components
   LIBXC   =     F    Libxc                    
   VOSKOWN =     0    Vosko Wilk Nusair interpolation
   LHFCALC =     F    Hartree Fock is set to
   LHFONE  =     F    Hartree Fock one center treatment
   AEXX    =    0.0000 exact exchange contribution

 Parameters of functionals:
   SCAN:
     P1 =  0.000000E+00
     P2 =  0.000000E+00
     P3 =  0.000000E+00

 Accuracy and mixing parameters for tau-dependent meta-GGA functionals:
   LMAXTAU = 6
   LMIXTAU = T

 Van der Waals corrections
   IVDW    =     0    specifies the selected vdW correction

 Linear response parameters
   LEPSILON=     F    determine dielectric tensor
   LRPA    =     F    only Hartree local field effects (RPA)
   LNABLA  =     F    use nabla operator in PAW spheres
   LVEL    =     F    velocity operator in full k-point grid
   CSHIFT  =0.1000    complex shift for real part using Kramers Kronig
   OMEGAMAX=  -1.0    maximum frequency
   DEG_THRESHOLD= 0.2000000E-02 threshold for treating states as degnerate
   RTIME   =   -0.100 relaxation time in fs
  (WPLASMAI=    0.000 imaginary part of plasma frequency in eV, 0.658/RTIME)
   DFIELD  = 0.0000000 0.0000000 0.0000000 field for delta impulse in time

  Optional k-point grid parameters
   LKPOINTS_OPT  =     F    use optional k-point grid
   KPOINTS_OPT_MODE=     1    mode for optional k-point grid

 Orbital magnetization related:
   ORBITALMAG=     F  switch on orbital magnetization
   LCHIMAG   =     F  perturbation theory with respect to B field
   DQ        =  0.001000  dq finite difference perturbation B field
   LLRAUG    =     F  two centre corrections for induced B field
   LBONE     =     F  B-component reconstruction in AE one-centre
   LVGVCALC  =     T  calculate vGv susceptibility
   LVGVAPPL  =     F  apply vGv susceptibility instead of pGv for G=0

 Random number generation:
   RANDOM_GENERATOR = DEFAULT
   PCG_SEED         = not used


--------------------------------------------------------------------------------------------------------


 Static calculation
 charge density and potential will be updated during run
 non-spin polarized calculation
 Variant of blocked Davidson
 perform Loewdin sub-space diagonalisation
    ordering is kept fixed
    before iterative eigenvector-optimisation
 modified Broyden-mixing scheme, WC =      100.0
 initial mixing is a Kerker type mixing with AMIX =  0.4000 and BMIX =      1.0000
 Hartree-type preconditioning will be used
 using additional bands           60
 reciprocal scheme for non local part
 use partial core corrections
 calculate Harris-corrections to forces   (improved forces if not selfconsistent)
 use gradient corrections 
 use of overlap-Matrix (Vanderbilt PP)
 Gauss-broadening in eV      SIGMA  =   0.10


--------------------------------------------------------------------------------------------------------


  energy-cutoff  :     1200.00
  volume of cell :     6152.88
      direct lattice vectors                 reciprocal lattice vectors
    14.569949106  0.000000000  0.000000000     0.068634420  0.000000000  0.000000000
     0.000000000 14.569949106  0.000000000     0.000000000  0.068634420  0.000000000
     0.000000000  0.000000000 28.984278600     0.000000000  0.000000000  0.034501462

  length of vectors
    14.569949106 14.569949106 28.984278600     0.068634420  0.068634420  0.034501462



 old parameters found on file WAVECAR:
  energy-cutoff  :     1200.00
  volume of cell :     6152.88
      direct lattice vectors                 reciprocal lattice vectors
    14.569949106  0.000000000  0.000000000     0.068634420  0.000000000  0.000000000
     0.000000000 14.569949106  0.000000000     0.000000000  0.068634420  0.000000000
     0.000000000  0.000000000 28.984278600     0.000000000  0.000000000  0.034501462

  length of vectors


 k-points in units of 2pi/SCALE and weight: read from INCAR                         
   0.00000000  0.00000000  0.00000000       0.250
   0.03431721  0.00000000  0.00000000       0.250
   0.00000000  0.03431721  0.00000000       0.250
   0.03431721  0.03431721  0.00000000       0.250

 k-points in reciprocal lattice and weights: read from INCAR                         
   0.00000000  0.00000000  0.00000000       0.250
   0.50000000  0.00000000  0.00000000       0.250
   0.00000000  0.50000000  0.00000000       0.250
   0.50000000  0.50000000  0.00000000       0.250

 position of ions in fractional coordinates (direct lattice) 
   0.26720704  0.39223044  0.66155151
   0.34669802  0.39521353  0.45404703
   0.16406261  0.24876823  0.53629155
   0.38661451  0.53786510  0.65634066
   0.19860777  0.31257764  0.41405397
   0.21669028  0.48641147  0.42009863
   0.11413768  0.26443636  0.66362510
   0.38632857  0.36927484  0.63039244
   0.04323724  0.52337990  0.59023257
   0.48563468  0.77530392  0.34796148
   0.28472275  0.32443151  0.52032583
   0.38392324  0.53084345  0.68173010
   0.07474378  0.42172767  0.47217382
   0.23587858  0.43082949  0.66751289
   0.15783464  0.41258227  0.59083146
   0.06194666  0.58844963  0.47449799
   0.14434289  0.50009698  0.34529176
   0.22336341  0.24732323  0.32728618
   0.25431075  0.52469046  0.53342530
   0.17116536  0.32327497  0.43719116
   0.84024803  0.59897792  0.63621763
   0.19519831  0.44498888  0.58434305
   0.20706294  0.56348240  0.65276245
   0.45439488  0.95003329  0.63266072
   0.79249589  0.94309035  0.64647931
   0.83748235  0.20097707  0.41558074
   0.51159584  0.06905739  0.50405287
   0.05865692  0.86393219  0.61816338
   0.67576142  0.67419975  0.37448360
   0.42250168  0.41104249  0.42033581
   0.47788285  0.07890011  0.58515248
   0.00380982  0.01631432  0.38097476
   0.43851984  0.19954017  0.47185751
   0.66567950  0.50152388  0.54789740
   0.59755576  0.57656408  0.61347096
   0.48348145  0.55132550  0.43612929
   0.53265185  0.29450755  0.43003666
   0.39450663  0.83593135  0.53181578
   0.96315855  0.88827482  0.42271084
   0.73392896  0.16715105  0.47496256
   0.23316445  0.09038797  0.63218750
   0.80927558  0.68758054  0.41572431
   0.24986374  0.93167775  0.40325482
   0.45187981  0.54053800  0.57494498
   0.35676937  0.16060213  0.40288300
   0.61880310  0.77836963  0.43061871
   0.40609210  0.93646511  0.40399659
   0.86358332  0.47134494  0.46562537
   0.22557581  0.08249403  0.42872123
   0.18525650  0.80621257  0.37148498
   0.07958324  0.20876659  0.55694286
   0.83486601  0.83440040  0.38471482
   0.98467400  0.44659709  0.60815710
   0.86747639  0.44483138  0.34688720
   0.68504433  0.44868656  0.63719701
   0.54244599  0.56591047  0.50925680
   0.05193608  0.07306810  0.51301296
   0.32698188  0.13384612  0.57015714
   0.71885631  0.07629891  0.61001572
   0.16181413  0.95414639  0.52618764
   0.58569197  0.15841295  0.62831702
   0.27875535  0.04851877  0.50304623
   0.87886312  0.78584253  0.53640782
   0.78240471  0.68652732  0.49780250
   0.90986373  0.02354556  0.53734364
   0.85555933  0.06081796  0.38197019
   0.98585005  0.37253914  0.47745895
   0.66315712  0.71986523  0.63305898
   0.82879385  0.27763248  0.57631612
   0.62067218  0.70700311  0.50239424
   0.63384775  0.54392680  0.41124255
   0.90651425  0.56283091  0.40397665
   0.57399441  0.84948096  0.62342504
   0.47451723  0.79525969  0.39796829
   0.35387065  0.71960901  0.63936705
   0.19359888  0.94511203  0.60488043
   0.07753748  0.77625208  0.42774362
   0.71819558  0.90699948  0.44476589
   0.58887461  0.31559303  0.61313971
   0.77322517  0.81534597  0.59727602
   0.76794054  0.31936903  0.37276851
   0.30219915  0.60234659  0.55695933
   0.44616093  0.37674907  0.58871714
   0.67079727  0.92834803  0.57004216
   0.33265011  0.86301891  0.60554557
   0.17563059  0.55161714  0.38646333
   0.21509569  0.64697887  0.62288140
   0.60696106  0.08227714  0.37850597
   0.28531026  0.28076587  0.36402608
   0.79878573  0.13556317  0.54588270
   0.72830863  0.41890147  0.43286486
   0.03667134  0.76167571  0.55335903
   0.97254193  0.32797321  0.55391520
   0.15362532  0.79920643  0.49835489
   0.98642064  0.25442414  0.42340889
   0.63801424  0.04642971  0.45609625
   0.30464996  0.72011637  0.49984414
   0.36798964  0.27520886  0.53635368
   0.83676648  0.51023294  0.61027557
   0.94151974  0.30520696  0.34794930
   0.65779020  0.30801897  0.47810326
   0.06832762  0.11680455  0.43468030
   0.35597427  0.41837962  0.34766623
   0.05080198  0.61719785  0.42534658
   0.73403132  0.96687095  0.36701283
   0.45256390  0.06025571  0.36093437
   0.68652780  0.34450175  0.55373460
   0.55114045  0.81831683  0.54602187
   0.82625606  0.19315563  0.64567033
   0.86299224  0.90884701  0.48591272
   0.10335622  0.18008490  0.63490595
   0.40389099  0.96132832  0.48335682
   0.81250700  0.54660580  0.53138379
   0.38010397  0.67812787  0.42778616
   0.96198963  0.11534932  0.64309913
   0.62382138  0.24122714  0.36694321
   0.06133509  0.70262331  0.62623858
   0.27165088  0.67305929  0.36980081
   0.93723548  0.97082643  0.61434473

 position of ions in cartesian coordinates  (Angst):
   3.89319303  5.71477751 19.17459336
   5.05137252  5.75824106 13.16022561
   2.39038386  3.62454046 15.54402372
   5.63295367  7.83666717 19.02356066
   2.89370503  4.55424025 12.00105570
   3.15716633  7.08699039 12.17625567
   1.66298013  3.85282427 19.23469466
   5.62878756  5.38031562 18.27147025
   0.62996441  7.62561849 17.10746515
   7.07567264 11.29613868 10.08541257
   4.14839593  4.72695054 15.08126871
   5.59374205  7.73436212 19.75945503
   1.08901313  6.14455076 13.68561741
   3.43673886  6.27716377 19.34737958
   2.29964268  6.01130268 17.12482350
   0.90255971  8.57368121 13.75298190
   2.10306854  7.28638751 10.00803259
   3.25439348  3.60348683  9.48615394
   3.70529475  7.64471335 15.46094745
   2.49387055  4.71009979 12.67167040
  12.24237110  8.72707787 18.44030911
   2.84402944  6.48346530 16.93676177
   3.01689651  8.20990989 18.91984865
   6.62051022 13.84193666 18.33721451
  11.54662484 13.74077834 18.73773633
  12.20207521  2.92822573 12.04530784
   7.45392533  1.00616265 14.60960890
   0.85462835 12.58744811 17.91701955
   9.84580952  9.82305602 10.85413697
   6.15582797  5.98886812 12.18313021
   6.96272884  1.14957062 16.96022249
   0.05550885  0.23769884 11.04227844
   6.38921168  2.90729011 13.67644940
   9.69891639  7.30717738 15.88041083
   8.70635697  8.40050926 17.78101308
   7.04430011  8.03278448 12.64089292
   7.76071038  4.29096001 12.46430250
   5.74794146 12.17947727 15.41429667
  14.03317108 12.94211892 12.25196881
  10.69330754  2.43538234 13.76644730
   3.39719415  1.31694812 18.32349855
  11.79110404 10.01801346 12.04946927
   3.64050202 13.57449733 11.68805007
   6.58386587  7.87561116 16.66436536
   5.19811163  2.33996480 11.67727305
   9.01592963 11.34080584 12.48117257
   5.91674119 13.64424901 11.70954966
  12.58236496  6.86747181 13.49581541
   3.28662800  1.20193388 12.42617556
   2.69917783 11.74647618 10.76722403
   1.15952369  3.04171865 16.14258694
  12.16395530 12.15717137 11.15068139
  14.34665003  6.50689684 17.62699476
  12.63908688  6.48117055 10.05427513
   9.98106096  6.53734040 18.46869560
   7.90341043  8.24528677 14.76044093
   0.75670609  1.06459844 14.86931062
   4.76410930  1.95013116 16.52559349
  10.47369982  1.11167120 17.68086548
   2.35762358 13.90186428 15.25116912
   8.53350214  2.30806865 18.21131556
   4.06145133  0.70691606 14.58043205
  12.80499089 11.44968565 15.54739379
  11.39959684 10.00266814 14.42844635
  13.25666817  0.34305767 15.57451765
  12.46545588  0.88611464 11.07113054
  14.36378508  5.42787630 13.83880313
   9.66216550 10.48839983 18.34875792
  12.07548419  4.04509106 16.70410702
   9.04316214 10.30099929 14.56153476
   9.23512953  7.92498583 11.91956862
  13.20786654  8.20041772 11.70897163
   8.36306940 12.37689440 18.06952501
   6.91369182 11.58689316 11.53482380
   5.15587734 10.48466659 18.53159257
   2.82072580 13.77023423 17.53202301
   1.12971720 11.30995337 12.39784016
  10.46407311 13.21493622 12.89121854
   8.57987309  4.59817434 17.77141226
  11.26585137 11.87954927 17.31161469
  11.18885464  4.65319054 10.80442624
   4.40302630  8.77615910 16.14306427
   6.50054202  5.48921474 17.06354167
   9.77348204 13.52598348 16.52226068
   4.84669512 12.57414160 17.55130163
   2.55892881  8.03703369 11.20136073
   3.13393329  9.42644916 18.05376809
   8.84339182  1.19877370 10.97072259
   4.15695599  4.09074437 10.55103342
  11.63826739  1.97514844 15.82201621
  10.61141962  6.10337317 12.54627574
   0.53429956 11.09757636 16.03871221
  14.16988636  4.77855297 16.05483260
   2.23831309 11.64439702 14.44445689
  14.37209846  3.70694681 12.27220119
   9.29583507  0.67647856 13.21962088
   4.43873439 10.49205888 14.48762185
   5.36159030  4.00977914 15.54582438
  12.19164498  7.43406804 17.68839727
  13.71789472  4.44684987 10.08505931
   9.58396976  4.48782075 13.85747801
   0.99552998  1.70183632 12.59889503
   5.18652696  6.09576970 10.07685493
   0.74018228  8.99254129 12.32836378
  10.69479898 14.08726050 10.63760210
   6.59383296  0.87792259 10.46142229
  10.00267505  5.01937298 16.04959798
   8.03008836 11.92283459 15.82605008
  12.03850872  2.81426767 18.71428859
  12.57375302 13.24185475 14.08382958
   1.50589480  2.62382777 18.40229082
   5.88467110 14.00650476 14.00974876
  11.83818558  7.96401865 15.40177570
   5.53809547  9.88028856 12.39907335
  14.01613999  1.68063376 18.63976436
   9.08904576  3.51466713 10.63558434
   0.89364916 10.23718584 18.15107341
   3.95793950  9.80643967 10.71840980
  13.65547331 14.14489165 17.80633884



--------------------------------------------------------------------------------------------------------


 k-point     1 :   0.0000 0.0000 0.0000  plane waves:  580747
 k-point     2 :   0.5000 0.0000 0.0000  plane waves:  580786
 k-point     3 :   0.0000 0.5000 0.0000  plane waves:  580786
 k-point     4 :   0.5000 0.5000 0.0000  plane waves:  580820

 maximum and minimum number of plane-waves per node :     36355    36236

 maximum number of plane-waves:    580820
 maximum index in each direction: 
   IXMAX=   41   IYMAX=   41   IZMAX=   81
   IXMIN=  -41   IYMIN=  -41   IZMIN=  -81


 parallel 3D FFT for wavefunctions:
    minimum data exchange during FFTs selected (reduces bandwidth)
 parallel 3D FFT for charge:
    minimum data exchange during FFTs selected (reduces bandwidth)


 total amount of memory used by VASP MPI-rank0   397041. kBytes
=======================================================================

   base                                    :      30000. kBytes
   nonl-proj                               :      87729. kBytes
   fftplans                                :     114278. kBytes
   grid                                    :      88184. kBytes
   one-center                              :         24. kBytes
   wavefun                                 :      76826. kBytes

     INWAV:  cpu time     21.8126: real time     21.8269
 Broyden mixing: mesh for mixing (old mesh)
   NGX = 83   NGY = 83   NGZ =163
  (NGX  =336   NGY  =336   NGZ  =672)
  gives a total of ****** points

 initial charge density was supplied:
 number of electron     406.9999999 magnetization 
 keeping initial charge density in first step


--------------------------------------------------------------------------------------------------------


 Maximum index for augmentation-charges        11502 (set IRDMAX)


--------------------------------------------------------------------------------------------------------


 First call to EWALD:  gamma=   0.097
 Maximum number of real-space cells   3x   3x   2
 Maximum number of reciprocal cells   2x   2x   4

    FEWALD:  cpu time      0.0183: real time      0.0183


--------------------------------------- Ionic step        1  -------------------------------------------




--------------------------------------- Iteration      1(   1)  ---------------------------------------


    POTLOK:  cpu time      2.2773: real time      2.2785
    SETDIJ:  cpu time      1.8602: real time      1.8619
    EDDIAG:  cpu time     44.5071: real time     44.5346
     EDDAV:  cpu time    212.8786: real time    212.9966
       DOS:  cpu time      0.0092: real time      0.0092
    CHARGE:  cpu time     25.7403: real time     25.7638
    MIXING:  cpu time      0.0521: real time      0.0526
    --------------------------------------------
      LOOP:  cpu time    287.3248: real time    287.4972

 eigenvalue-minimisations  :  2112
 total energy-change (2. order) :-0.1055133E+04  (-0.1155978E+01)
 number of electron     406.9999999 magnetization 
 augmentation part      -21.2750210 magnetization 

 Broyden mixing:
  rms(total) = 0.12351E+01    rms(broyden)= 0.12351E+01
  rms(prec ) = 0.12373E+01
  weight for this iteration     100.00

 Free energy of the ion-electron system (eV)
  ---------------------------------------------------
  alpha Z        PSCENC =        57.14825066
  Ewald energy   TEWEN  =     66482.21678629
  -Hartree energ DENC   =    -75564.04630574
  -exchange      EXHF   =         0.00000000
  -V(xc)+E(xc)   XCENC  =      -396.84885432
  PAW double counting   =     38007.33478723   -37051.11897847
  entropy T*S    EENTRO =        -0.19124814
  eigenvalues    EBANDS =     -2771.27638651
  atomic energy  EATOM  =     10181.64856256
  Solvation  Ediel_sol  =         0.00000000
  ---------------------------------------------------
  free energy    TOTEN  =     -1055.13338645 eV

  energy without entropy =    -1054.94213831  energy(sigma->0) =    -1055.03776238


--------------------------------------------------------------------------------------------------------




--------------------------------------- Iteration      1(   2)  ---------------------------------------


    POTLOK:  cpu time      2.2493: real time      2.2743
    SETDIJ:  cpu time      1.8462: real time      1.8469
    EDDIAG:  cpu time     44.4381: real time     44.4686
     EDDAV:  cpu time    214.0763: real time    214.1993
       DOS:  cpu time      0.0041: real time      0.0041
    CHARGE:  cpu time     25.6273: real time     25.6511
    MIXING:  cpu time      0.0443: real time      0.0444
    --------------------------------------------
      LOOP:  cpu time    288.2857: real time    288.4887

 eigenvalue-minimisations  :  2144
 total energy-change (2. order) : 0.7159794E+02  (-0.1162914E+01)
 number of electron     406.9999999 magnetization 
 augmentation part      -21.2023541 magnetization 

 Broyden mixing:
  rms(total) = 0.83835E+00    rms(broyden)= 0.83835E+00
  rms(prec ) = 0.84098E+00
  weight for this iteration     100.00

 eigenvalues of (default mixing * dielectric matrix)
  average eigenvalue GAMMA=   2.5976
  2.5976

 Free energy of the ion-electron system (eV)
  ---------------------------------------------------
  alpha Z        PSCENC =        57.14825066
  Ewald energy   TEWEN  =     66482.21678629
  -Hartree energ DENC   =    -75548.26363375
  -exchange      EXHF   =         0.00000000
  -V(xc)+E(xc)   XCENC  =      -387.94929808
  PAW double counting   =     45316.89536055   -44360.40896336
  entropy T*S    EENTRO =        -0.18295912
  eigenvalues    EBANDS =     -2724.63955485
  atomic energy  EATOM  =     10181.64856256
  Solvation  Ediel_sol  =         0.00000000
  ---------------------------------------------------
  free energy    TOTEN  =      -983.53544909 eV

  energy without entropy =     -983.35248998  energy(sigma->0) =     -983.44396954


--------------------------------------------------------------------------------------------------------




--------------------------------------- Iteration      1(   3)  ---------------------------------------


    POTLOK:  cpu time      2.2211: real time      2.2460
    SETDIJ:  cpu time      1.8782: real time      1.8796
    EDDIAG:  cpu time     44.4821: real time     44.5104
     EDDAV:  cpu time    213.1052: real time    213.2304
       DOS:  cpu time      0.0027: real time      0.0027
    CHARGE:  cpu time     25.6313: real time     25.6541
    MIXING:  cpu time      0.0422: real time      0.0422
    --------------------------------------------
      LOOP:  cpu time    287.3628: real time    287.5654

 eigenvalue-minimisations  :  2128
 total energy-change (2. order) :-0.2902752E+01  (-0.1107025E+01)
 number of electron     406.9999999 magnetization 
 augmentation part      -21.1263432 magnetization 

 Broyden mixing:
  rms(total) = 0.24330E+00    rms(broyden)= 0.24330E+00
  rms(prec ) = 0.30767E+00
  weight for this iteration     100.00

 eigenvalues of (default mixing * dielectric matrix)
  average eigenvalue GAMMA=   1.6970
  0.7191  2.6749

 Free energy of the ion-electron system (eV)
  ---------------------------------------------------
  alpha Z        PSCENC =        57.14825066
  Ewald energy   TEWEN  =     66482.21678629
  -Hartree energ DENC   =    -75548.93768488
  -exchange      EXHF   =         0.00000000
  -V(xc)+E(xc)   XCENC  =      -390.40560407
  PAW double counting   =     59046.02312213   -58089.77196284
  entropy T*S    EENTRO =        -0.17162755
  eigenvalues    EBANDS =     -2724.18804333
  atomic energy  EATOM  =     10181.64856256
  Solvation  Ediel_sol  =         0.00000000
  ---------------------------------------------------
  free energy    TOTEN  =      -986.43820103 eV

  energy without entropy =     -986.26657348  energy(sigma->0) =     -986.35238726


--------------------------------------------------------------------------------------------------------




--------------------------------------- Iteration      1(   4)  ---------------------------------------


    POTLOK:  cpu time      2.2291: real time      2.2482
    SETDIJ:  cpu time      1.8504: real time      1.8513
    EDDIAG:  cpu time     44.4732: real time     44.5014
     EDDAV:  cpu time    218.2559: real time    218.3748
       DOS:  cpu time      0.0039: real time      0.0039
    CHARGE:  cpu time     25.6304: real time     25.6525
    MIXING:  cpu time      0.0420: real time      0.0420
    --------------------------------------------
      LOOP:  cpu time    292.4848: real time    292.6741

 eigenvalue-minimisations  :  2216
 total energy-change (2. order) : 0.1121214E-01  (-0.1921494E+00)
 number of electron     406.9999999 magnetization 
 augmentation part      -21.1341240 magnetization 

 Broyden mixing:
  rms(total) = 0.93681E-01    rms(broyden)= 0.93681E-01
  rms(prec ) = 0.12219E+00
  weight for this iteration     100.00

 eigenvalues of (default mixing * dielectric matrix)
  average eigenvalue GAMMA=   1.3729
  2.5798  1.0293  0.5096

 Free energy of the ion-electron system (eV)
  ---------------------------------------------------
  alpha Z        PSCENC =        57.14825066
  Ewald energy   TEWEN  =     66482.21678629
  -Hartree energ DENC   =    -75550.41915342
  -exchange      EXHF   =         0.00000000
  -V(xc)+E(xc)   XCENC  =      -392.31302916
  PAW double counting   =     60467.72592179   -59511.45916926
  entropy T*S    EENTRO =        -0.18281515
  eigenvalues    EBANDS =     -2720.79234320
  atomic energy  EATOM  =     10181.64856256
  Solvation  Ediel_sol  =         0.00000000
  ---------------------------------------------------
  free energy    TOTEN  =      -986.42698889 eV

  energy without entropy =     -986.24417373  energy(sigma->0) =     -986.33558131


--------------------------------------------------------------------------------------------------------




--------------------------------------- Iteration      1(   5)  ---------------------------------------


    POTLOK:  cpu time      2.2207: real time      2.2471
    SETDIJ:  cpu time      1.8465: real time      1.8476
    EDDIAG:  cpu time     44.4560: real time     44.4839
     EDDAV:  cpu time    227.4959: real time    227.6263
       DOS:  cpu time      0.0042: real time      0.0042
    CHARGE:  cpu time     25.5951: real time     25.6201
    MIXING:  cpu time      0.0425: real time      0.0425
    --------------------------------------------
      LOOP:  cpu time    301.6610: real time    301.8719

 eigenvalue-minimisations  :  2376
 total energy-change (2. order) :-0.5453764E-01  (-0.3041911E-01)
 number of electron     406.9999999 magnetization 
 augmentation part      -21.1315011 magnetization 

 Broyden mixing:
  rms(total) = 0.66326E-01    rms(broyden)= 0.66326E-01
  rms(prec ) = 0.87228E-01
  weight for this iteration     100.00

 eigenvalues of (default mixing * dielectric matrix)
  average eigenvalue GAMMA=   1.2177
  2.5575  1.1691  0.7424  0.4019

 Free energy of the ion-electron system (eV)
  ---------------------------------------------------
  alpha Z        PSCENC =        57.14825066
  Ewald energy   TEWEN  =     66482.21678629
  -Hartree energ DENC   =    -75553.48100173
  -exchange      EXHF   =         0.00000000
  -V(xc)+E(xc)   XCENC  =      -393.26122869
  PAW double counting   =     60080.65199731   -59124.35504635
  entropy T*S    EENTRO =        -0.19164570
  eigenvalues    EBANDS =     -2716.85820088
  atomic energy  EATOM  =     10181.64856256
  Solvation  Ediel_sol  =         0.00000000
  ---------------------------------------------------
  free energy    TOTEN  =      -986.48152653 eV

  energy without entropy =     -986.28988083  energy(sigma->0) =     -986.38570368


--------------------------------------------------------------------------------------------------------




--------------------------------------- Iteration      1(   6)  ---------------------------------------


    POTLOK:  cpu time      2.2214: real time      2.2476
    SETDIJ:  cpu time      1.8574: real time      1.8589
    EDDIAG:  cpu time     44.3918: real time     44.4202
     EDDAV:  cpu time    228.7879: real time    228.9225
       DOS:  cpu time      0.0038: real time      0.0038
    CHARGE:  cpu time     25.6266: real time     25.6527
    MIXING:  cpu time      0.0440: real time      0.0440
    --------------------------------------------
      LOOP:  cpu time    302.9328: real time    303.1496

 eigenvalue-minimisations  :  2400
 total energy-change (2. order) : 0.6152355E-02  (-0.6564521E-02)
 number of electron     406.9999999 magnetization 
 augmentation part      -21.1327085 magnetization 

 Broyden mixing:
  rms(total) = 0.38647E-01    rms(broyden)= 0.38647E-01
  rms(prec ) = 0.45704E-01
  weight for this iteration     100.00

 eigenvalues of (default mixing * dielectric matrix)
  average eigenvalue GAMMA=   1.1548
  2.5200  1.5402  0.8390  0.5083  0.3666

 Free energy of the ion-electron system (eV)
  ---------------------------------------------------
  alpha Z        PSCENC =        57.14825066
  Ewald energy   TEWEN  =     66482.21678629
  -Hartree energ DENC   =    -75553.42061369
  -exchange      EXHF   =         0.00000000
  -V(xc)+E(xc)   XCENC  =      -393.52634558
  PAW double counting   =     60021.02420205   -59064.71308511
  entropy T*S    EENTRO =        -0.19075306
  eigenvalues    EBANDS =     -2716.66237829
  atomic energy  EATOM  =     10181.64856256
  Solvation  Ediel_sol  =         0.00000000
  ---------------------------------------------------
  free energy    TOTEN  =      -986.47537417 eV

  energy without entropy =     -986.28462111  energy(sigma->0) =     -986.37999764


--------------------------------------------------------------------------------------------------------




--------------------------------------- Iteration      1(   7)  ---------------------------------------


    POTLOK:  cpu time      2.2231: real time      2.2490
    SETDIJ:  cpu time      1.8612: real time      1.8630
    EDDIAG:  cpu time     44.4323: real time     44.4607
     EDDAV:  cpu time    227.9276: real time    228.0606
       DOS:  cpu time      0.0023: real time      0.0023
    CHARGE:  cpu time     25.6670: real time     25.6907
    MIXING:  cpu time      0.0665: real time      0.0670
    --------------------------------------------
      LOOP:  cpu time    302.1807: real time    302.3942

 eigenvalue-minimisations  :  2384
 total energy-change (2. order) :-0.1716120E-02  (-0.2796473E-02)
 number of electron     406.9999999 magnetization 
 augmentation part      -21.1313742 magnetization 

 Broyden mixing:
  rms(total) = 0.36855E-01    rms(broyden)= 0.36855E-01
  rms(prec ) = 0.45158E-01
  weight for this iteration     100.00

 eigenvalues of (default mixing * dielectric matrix)
  average eigenvalue GAMMA=   1.1162
  2.4937  1.7627  0.8736  0.8736  0.3889  0.3047

 Free energy of the ion-electron system (eV)
  ---------------------------------------------------
  alpha Z        PSCENC =        57.14825066
  Ewald energy   TEWEN  =     66482.21678629
  -Hartree energ DENC   =    -75553.33421529
  -exchange      EXHF   =         0.00000000
  -V(xc)+E(xc)   XCENC  =      -393.43422275
  PAW double counting   =     59982.45520928   -59026.12993780
  entropy T*S    EENTRO =        -0.19028860
  eigenvalues    EBANDS =     -2716.85723464
  atomic energy  EATOM  =     10181.64856256
  Solvation  Ediel_sol  =         0.00000000
  ---------------------------------------------------
  free energy    TOTEN  =      -986.47709029 eV

  energy without entropy =     -986.28680169  energy(sigma->0) =     -986.38194599


--------------------------------------------------------------------------------------------------------




--------------------------------------- Iteration      1(   8)  ---------------------------------------


    POTLOK:  cpu time      2.2304: real time      2.2519
    SETDIJ:  cpu time      1.8664: real time      1.8684
    EDDIAG:  cpu time     44.4536: real time     44.4820
     EDDAV:  cpu time    218.2050: real time    218.3298
       DOS:  cpu time      0.0119: real time      0.0119
    CHARGE:  cpu time     25.6391: real time     25.6637
    MIXING:  cpu time      0.0442: real time      0.0442
    --------------------------------------------
      LOOP:  cpu time    292.4499: real time    292.6509

 eigenvalue-minimisations  :  2208
 total energy-change (2. order) : 0.5657552E-03  (-0.1311195E-02)
 number of electron     406.9999999 magnetization 
 augmentation part      -21.1304487 magnetization 

 Broyden mixing:
  rms(total) = 0.17448E-01    rms(broyden)= 0.17448E-01
  rms(prec ) = 0.19617E-01
  weight for this iteration     100.00

 eigenvalues of (default mixing * dielectric matrix)
  average eigenvalue GAMMA=   1.1908
  2.5744  2.5744  0.9417  0.9417  0.6409  0.3797  0.2826

 Free energy of the ion-electron system (eV)
  ---------------------------------------------------
  alpha Z        PSCENC =        57.14825066
  Ewald energy   TEWEN  =     66482.21678629
  -Hartree energ DENC   =    -75552.91286728
  -exchange      EXHF   =         0.00000000
  -V(xc)+E(xc)   XCENC  =      -393.37586166
  PAW double counting   =     59976.73935066   -59020.40499806
  entropy T*S    EENTRO =        -0.19102014
  eigenvalues    EBANDS =     -2717.34472757
  atomic energy  EATOM  =     10181.64856256
  Solvation  Ediel_sol  =         0.00000000
  ---------------------------------------------------
  free energy    TOTEN  =      -986.47652454 eV

  energy without entropy =     -986.28550440  energy(sigma->0) =     -986.38101447


--------------------------------------------------------------------------------------------------------




--------------------------------------- Iteration      1(   9)  ---------------------------------------


    POTLOK:  cpu time      2.2224: real time      2.2486
    SETDIJ:  cpu time      1.8384: real time      1.8403
    EDDIAG:  cpu time     44.4377: real time     44.4664
     EDDAV:  cpu time    216.0346: real time    216.1555
       DOS:  cpu time      0.0026: real time      0.0026
    CHARGE:  cpu time     25.6848: real time     25.7069
    MIXING:  cpu time      0.0450: real time      0.0450
    --------------------------------------------
      LOOP:  cpu time    290.2654: real time    290.4653

 eigenvalue-minimisations  :  2176
 total energy-change (2. order) :-0.3308104E-03  (-0.7713897E-03)
 number of electron     406.9999999 magnetization 
 augmentation part      -21.1279766 magnetization 

 Broyden mixing:
  rms(total) = 0.66538E-02    rms(broyden)= 0.66537E-02
  rms(prec ) = 0.80479E-02
  weight for this iteration     100.00

 eigenvalues of (default mixing * dielectric matrix)
  average eigenvalue GAMMA=   1.1507
  2.6173  2.6173  1.0761  0.8306  0.8306  0.5632  0.3905  0.2797

 Free energy of the ion-electron system (eV)
  ---------------------------------------------------
  alpha Z        PSCENC =        57.14825066
  Ewald energy   TEWEN  =     66482.21678629
  -Hartree energ DENC   =    -75552.84942072
  -exchange      EXHF   =         0.00000000
  -V(xc)+E(xc)   XCENC  =      -393.15126531
  PAW double counting   =     59974.31828001   -59017.96686118
  entropy T*S    EENTRO =        -0.19097299
  eigenvalues    EBANDS =     -2717.65021467
  atomic energy  EATOM  =     10181.64856256
  Solvation  Ediel_sol  =         0.00000000
  ---------------------------------------------------
  free energy    TOTEN  =      -986.47685535 eV

  energy without entropy =     -986.28588236  energy(sigma->0) =     -986.38136885


--------------------------------------------------------------------------------------------------------




--------------------------------------- Iteration      1(  10)  ---------------------------------------


    POTLOK:  cpu time      2.2349: real time      2.2496
    SETDIJ:  cpu time      1.8520: real time      1.8529
    EDDIAG:  cpu time     44.4510: real time     44.4785
     EDDAV:  cpu time    230.3730: real time    230.5081
       DOS:  cpu time      0.0021: real time      0.0021
    CHARGE:  cpu time     25.6712: real time     25.6937
    MIXING:  cpu time      0.0460: real time      0.0460
    --------------------------------------------
      LOOP:  cpu time    304.6302: real time    304.8310

 eigenvalue-minimisations  :  2416
 total energy-change (2. order) : 0.2102519E-04  (-0.9056911E-04)
 number of electron     406.9999999 magnetization 
 augmentation part      -21.1284209 magnetization 

 Broyden mixing:
  rms(total) = 0.28042E-02    rms(broyden)= 0.28042E-02
  rms(prec ) = 0.32639E-02
  weight for this iteration     100.00

 eigenvalues of (default mixing * dielectric matrix)
  average eigenvalue GAMMA=   1.1429
  2.6176  2.6176  1.3474  0.9188  0.9188  0.6758  0.5196  0.3907  0.2796

 Free energy of the ion-electron system (eV)
  ---------------------------------------------------
  alpha Z        PSCENC =        57.14825066
  Ewald energy   TEWEN  =     66482.21678629
  -Hartree energ DENC   =    -75552.83799899
  -exchange      EXHF   =         0.00000000
  -V(xc)+E(xc)   XCENC  =      -393.15816368
  PAW double counting   =     59996.83048117   -59040.47489530
  entropy T*S    EENTRO =        -0.19110206
  eigenvalues    EBANDS =     -2717.65875498
  atomic energy  EATOM  =     10181.64856256
  Solvation  Ediel_sol  =         0.00000000
  ---------------------------------------------------
  free energy    TOTEN  =      -986.47683432 eV

  energy without entropy =     -986.28573227  energy(sigma->0) =     -986.38128329


--------------------------------------------------------------------------------------------------------




--------------------------------------- Iteration      1(  11)  ---------------------------------------


    POTLOK:  cpu time      2.2222: real time      2.2504
    SETDIJ:  cpu time      1.8461: real time      1.8471
    EDDIAG:  cpu time     44.4354: real time     44.4645
     EDDAV:  cpu time    222.3533: real time    222.4825
       DOS:  cpu time      0.0036: real time      0.0036
    CHARGE:  cpu time     25.6391: real time     25.6646
    MIXING:  cpu time      0.0469: real time      0.0469
    --------------------------------------------
      LOOP:  cpu time    296.5466: real time    296.7595

 eigenvalue-minimisations  :  2280
 total energy-change (2. order) :-0.4971692E-04  (-0.4031674E-04)
 number of electron     406.9999999 magnetization 
 augmentation part      -21.1285439 magnetization 

 Broyden mixing:
  rms(total) = 0.23444E-02    rms(broyden)= 0.23444E-02
  rms(prec ) = 0.27880E-02
  weight for this iteration     100.00

 eigenvalues of (default mixing * dielectric matrix)
  average eigenvalue GAMMA=   1.1532
  2.6443  2.6443  1.8004  1.0167  0.8137  0.8137  0.5816  0.5492  0.3887  0.2794

 Free energy of the ion-electron system (eV)
  ---------------------------------------------------
  alpha Z        PSCENC =        57.14825066
  Ewald energy   TEWEN  =     66482.21678629
  -Hartree energ DENC   =    -75552.73981323
  -exchange      EXHF   =         0.00000000
  -V(xc)+E(xc)   XCENC  =      -393.17316111
  PAW double counting   =     59994.48125663   -59038.12336240
  entropy T*S    EENTRO =        -0.19108863
  eigenvalues    EBANDS =     -2717.74431480
  atomic energy  EATOM  =     10181.64856256
  Solvation  Ediel_sol  =         0.00000000
  ---------------------------------------------------
  free energy    TOTEN  =      -986.47688404 eV

  energy without entropy =     -986.28579541  energy(sigma->0) =     -986.38133973


--------------------------------------------------------------------------------------------------------




--------------------------------------- Iteration      1(  12)  ---------------------------------------


    POTLOK:  cpu time      2.2522: real time      2.2533
    SETDIJ:  cpu time      1.8579: real time      1.8593
    EDDIAG:  cpu time     44.4535: real time     44.4815
     EDDAV:  cpu time    216.7820: real time    216.9084
       DOS:  cpu time      0.0028: real time      0.0028
    CHARGE:  cpu time     25.6851: real time     25.7074
    MIXING:  cpu time      0.0480: real time      0.0480
    --------------------------------------------
      LOOP:  cpu time    291.0815: real time    291.2608

 eigenvalue-minimisations  :  2184
 total energy-change (2. order) :-0.5796563E-04  (-0.1954053E-04)
 number of electron     406.9999999 magnetization 
 augmentation part      -21.1286122 magnetization 

 Broyden mixing:
  rms(total) = 0.10570E-02    rms(broyden)= 0.10570E-02
  rms(prec ) = 0.13020E-02
  weight for this iteration     100.00

 eigenvalues of (default mixing * dielectric matrix)
  average eigenvalue GAMMA=   1.1571
  2.7655  2.7655  2.0403  1.0582  0.8806  0.8806  0.6473  0.2794  0.3882  0.5114
  0.5114

 Free energy of the ion-electron system (eV)
  ---------------------------------------------------
  alpha Z        PSCENC =        57.14825066
  Ewald energy   TEWEN  =     66482.21678629
  -Hartree energ DENC   =    -75552.59811865
  -exchange      EXHF   =         0.00000000
  -V(xc)+E(xc)   XCENC  =      -393.18238357
  PAW double counting   =     59989.09983619   -59032.74057017
  entropy T*S    EENTRO =        -0.19095032
  eigenvalues    EBANDS =     -2717.87835500
  atomic energy  EATOM  =     10181.64856256
  Solvation  Ediel_sol  =         0.00000000
  ---------------------------------------------------
  free energy    TOTEN  =      -986.47694201 eV

  energy without entropy =     -986.28599168  energy(sigma->0) =     -986.38146684


--------------------------------------------------------------------------------------------------------




--------------------------------------- Iteration      1(  13)  ---------------------------------------


    POTLOK:  cpu time      2.2517: real time      2.2797
    SETDIJ:  cpu time      1.8562: real time      1.8571
    EDDIAG:  cpu time     44.4311: real time     44.4589
     EDDAV:  cpu time    216.2577: real time    216.3849
       DOS:  cpu time      0.0028: real time      0.0028
    CHARGE:  cpu time     25.6808: real time     25.7042
    MIXING:  cpu time      0.0507: real time      0.0507
    --------------------------------------------
      LOOP:  cpu time    290.5311: real time    290.7383

 eigenvalue-minimisations  :  2176
 total energy-change (2. order) :-0.6191798E-04  (-0.1225791E-04)
 number of electron     406.9999999 magnetization 
 augmentation part      -21.1286326 magnetization 

 Broyden mixing:
  rms(total) = 0.86845E-03    rms(broyden)= 0.86845E-03
  rms(prec ) = 0.11160E-02
  weight for this iteration     100.00

 eigenvalues of (default mixing * dielectric matrix)
  average eigenvalue GAMMA=   1.1719
  2.8891  2.8891  2.1404  1.2347  0.8920  0.8920  0.7301  0.7301  0.2794  0.3894
  0.5244  0.4715

 Free energy of the ion-electron system (eV)
  ---------------------------------------------------
  alpha Z        PSCENC =        57.14825066
  Ewald energy   TEWEN  =     66482.21678629
  -Hartree energ DENC   =    -75552.44712535
  -exchange      EXHF   =         0.00000000
  -V(xc)+E(xc)   XCENC  =      -393.18462945
  PAW double counting   =     59985.84926659   -59029.48901850
  entropy T*S    EENTRO =        -0.19103568
  eigenvalues    EBANDS =     -2718.02806104
  atomic energy  EATOM  =     10181.64856256
  Solvation  Ediel_sol  =         0.00000000
[...]
   -.124E+02 0.154E+02 0.193E+03   0.137E+02 -.167E+02 -.192E+03   -.115E+01 0.111E+01 -.136E+01   -.743E-05 -.237E-05 0.290E-05
   0.170E+02 0.190E+02 0.392E+03   -.154E+02 -.170E+02 -.391E+03   -.144E+01 -.205E+01 -.153E+01   0.294E-05 0.754E-05 -.433E-05
   0.130E+02 0.585E+00 0.394E+03   -.142E+02 -.198E+01 -.395E+03   0.943E+00 0.123E+01 0.819E+00   -.292E-05 0.161E-04 0.748E-05
   0.309E+01 0.669E+01 -.136E+03   -.506E+01 -.712E+01 0.136E+03   0.209E+01 0.178E+00 0.665E+00   0.410E-05 -.540E-05 0.176E-04
   0.147E+02 0.117E+02 -.102E+03   -.149E+02 -.142E+02 0.103E+03   0.495E-01 0.180E+01 -.776E+00   -.277E-05 0.725E-05 0.168E-04
   0.322E+01 -.416E+02 -.397E+03   -.476E+01 0.403E+02 0.397E+03   0.116E+01 0.858E+00 0.642E-01   -.353E-05 0.109E-04 -.135E-04
   -.100E+02 -.693E+00 0.431E+02   0.123E+02 -.687E+00 -.411E+02   -.243E+01 0.122E+01 -.178E+01   0.280E-05 0.147E-05 0.230E-04
   -.255E+02 -.353E+02 -.343E+03   0.255E+02 0.360E+02 0.342E+03   0.240E+00 -.524E+00 0.134E+01   -.194E-04 0.247E-04 0.553E-05
   -.206E+01 0.194E+02 0.548E+02   0.143E+01 -.176E+02 -.546E+02   0.580E+00 -.168E+01 -.257E+00   0.654E-06 0.940E-05 0.220E-04
   -.589E+02 -.803E+01 -.936E+02   0.564E+02 0.853E+01 0.919E+02   0.251E+01 -.521E+00 0.150E+01   0.106E-04 -.103E-04 0.259E-04
   0.192E+02 0.300E+02 0.188E+03   -.197E+02 -.287E+02 -.191E+03   0.611E+00 -.103E+01 0.259E+01   0.139E-04 -.114E-04 0.138E-04
   -.224E+02 -.134E+02 -.376E+03   0.215E+02 0.140E+02 0.373E+03   0.779E+00 -.311E+00 0.262E+01   -.103E-05 0.923E-06 -.424E-05
   0.208E+02 -.211E+02 0.378E+03   -.215E+02 0.208E+02 -.379E+03   0.708E+00 0.456E+00 0.286E+00   -.574E-05 0.702E-05 0.684E-05
   0.198E+02 0.509E+02 -.336E+03   -.219E+02 -.521E+02 0.336E+03   0.186E+01 0.909E+00 -.140E+00   -.762E-05 -.145E-04 0.991E-05
   -.869E+01 0.172E+02 0.355E+03   0.796E+01 -.176E+02 -.352E+03   0.914E+00 0.268E+00 -.278E+01   -.250E-05 -.157E-04 0.519E-05
   -.248E+02 0.259E+02 -.302E+03   0.222E+02 -.246E+02 0.303E+03   0.246E+01 -.156E+01 -.654E+00   -.723E-06 -.184E-05 0.707E-05
 -----------------------------------------------------------------------------------------------
   -.465E+01 -.289E+01 -.653E+01   0.746E-13 0.298E-12 0.455E-12   0.465E+01 0.289E+01 0.653E+01   0.179E-05 0.106E-04 0.103E-02


 POSITION                                       TOTAL-FORCE (eV/Angst)
 -----------------------------------------------------------------------------------
      3.89319      5.71478     19.17459        -0.104374      0.006662      0.137197
      5.05137      5.75824     13.16023         0.116512     -0.116691      0.208727
      2.39038      3.62454     15.54402         0.058097      0.090863      0.002696
      5.63295      7.83667     19.02356         0.020750     -0.110648      0.243093
      2.89371      4.55424     12.00106        -0.353936      0.251573      0.671585
      3.15717      7.08699     12.17626         0.173820      0.001115     -0.085825
      1.66298      3.85282     19.23469        -0.048547      0.002718     -0.211905
      5.62879      5.38032     18.27147         0.063582     -0.008651     -0.087316
      0.62996      7.62562     17.10747        -0.211822      0.086649     -0.025018
      7.07567     11.29614     10.08541         0.004510     -0.115757     -0.026554
      4.14840      4.72695     15.08127         0.038070      0.107774     -0.009639
      5.59374      7.73436     19.75946         0.017426     -0.140919      0.074931
      1.08901      6.14455     13.68562        -0.042278      0.133467      0.050256
      3.43674      6.27716     19.34738         0.024056     -0.140120      0.071479
      2.29964      6.01130     17.12482         0.111904     -0.115301     -0.020467
      0.90256      8.57368     13.75298        -0.024338      0.001914      0.059534
      2.10307      7.28639     10.00803        -0.081016     -0.026075     -0.009295
      3.25439      3.60349      9.48615        -0.263147     -0.341008      0.043507
      3.70529      7.64471     15.46095         0.182583     -0.132474      0.100334
      2.49387      4.71010     12.67167         0.126486     -0.120656     -0.316217
     12.24237      8.72708     18.44031        -0.089256     -0.065255      0.034217
      2.84403      6.48347     16.93676        -0.019381     -0.144339     -0.037268
      3.01690      8.20991     18.91985         0.164571      0.045528     -0.205318
      6.62051     13.84194     18.33721        -0.120890      0.379368      0.029578
     11.54662     13.74078     18.73774        -0.136214     -0.071643      0.266158
     12.20208      2.92823     12.04531        -0.066592     -0.059732      0.007984
      7.45393      1.00616     14.60961         0.152862     -0.095177     -0.007491
      0.85463     12.58745     17.91702         0.043688      0.211954      0.104009
      9.84581      9.82306     10.85414         0.094511     -0.206459      0.002180
      6.15583      5.98887     12.18313        -0.236544     -0.056242      0.098391
      6.96273      1.14957     16.96022        -0.106621     -0.119738     -0.130449
      0.05551      0.23770     11.04228        -0.001624      0.079167      0.220111
      6.38921      2.90729     13.67645        -0.133737     -0.074779     -0.065375
      9.69892      7.30718     15.88041         0.351702      0.188074     -0.162180
      8.70636      8.40051     17.78101        -0.081218      0.164363      0.109221
      7.04430      8.03278     12.64089        -0.287412     -0.307667     -0.042402
      7.76071      4.29096     12.46430         0.062909      0.119488      0.048205
      5.74794     12.17948     15.41430         0.121320     -0.244719      0.056018
     14.03317     12.94212     12.25197         0.150980      0.174025     -0.283825
     10.69331      2.43538     13.76645         0.135254     -0.017983     -0.047217
      3.39719      1.31695     18.32350         0.147212     -0.307100     -0.048087
     11.79110     10.01801     12.04947        -0.044301     -0.271744     -0.146841
      3.64050     13.57450     11.68805         0.086892     -0.030261     -0.165313
      6.58387      7.87561     16.66437         0.288617     -0.071380     -0.198673
      5.19811      2.33996     11.67727        -0.021244      0.070493      0.041287
      9.01593     11.34081     12.48117        -0.446094     -0.230614     -0.024421
      5.91674     13.64425     11.70955         0.214093     -0.153678     -0.024089
     12.58236      6.86747     13.49582         0.109040      0.140510      0.010435
      3.28663      1.20193     12.42618        -0.261336     -0.078668     -0.014858
      2.69918     11.74648     10.76722         0.084934      0.187945      0.083867
      1.15952      3.04172     16.14259         0.141806     -0.259083     -0.158296
     12.16396     12.15717     11.15068        -0.249582      0.155045      0.105060
     14.34665      6.50690     17.62699        -0.122912     -0.281749      0.046844
     12.63909      6.48117     10.05428         0.037498      0.024670     -0.161382
      9.98106      6.53734     18.46870        -0.294487     -0.006652     -0.447225
      7.90341      8.24529     14.76044        -0.156246      0.201794      0.040880
      0.75671      1.06460     14.86931        -0.132391     -0.013283     -0.063207
      4.76411      1.95013     16.52559         0.201642      0.153836     -0.085467
     10.47370      1.11167     17.68087        -0.052216     -0.164416      0.204845
      2.35762     13.90186     15.25117        -0.350761     -0.031917     -0.014559
      8.53350      2.30807     18.21132        -0.129933     -0.309433     -0.024864
      4.06145      0.70692     14.58043         0.184511      0.075549      0.027392
     12.80499     11.44969     15.54739        -0.036150      0.097028      0.167026
     11.39960     10.00267     14.42845         0.110199      0.104304      0.000842
     13.25667      0.34306     15.57452        -0.028381      0.248501     -0.016007
     12.46546      0.88611     11.07113         0.493092     -0.115657      0.024991
     14.36379      5.42788     13.83880         0.002665     -0.278791     -0.143140
      9.66217     10.48840     18.34876        -0.316968      0.221656     -0.450512
     12.07548      4.04509     16.70411         0.325323      0.142074     -0.091758
      9.04316     10.30100     14.56153         0.235023      0.262088      0.008198
      9.23513      7.92499     11.91957        -0.112618      0.440198      0.004838
     13.20787      8.20042     11.70897         0.064583      0.160973      0.029108
      8.36307     12.37689     18.06953         0.294546      0.313327      0.139097
      6.91369     11.58689     11.53482        -0.110810      0.224416      0.013545
      5.15588     10.48467     18.53159         0.036634      0.075593     -0.064798
      2.82073     13.77023     17.53202         0.146464     -0.001322      0.168208
      1.12972     11.30995     12.39784        -0.109435     -0.252009     -0.115818
     10.46407     13.21494     12.89122         0.072046      0.029393      0.356992
      8.57987      4.59817     17.77141         0.061389     -0.011939      0.159365
     11.26585     11.87955     17.31161         0.243492     -0.013422     -0.188500
     11.18885      4.65319     10.80443         0.198785      0.252143     -0.541451
      4.40303      8.77616     16.14306        -0.148108      0.306030     -0.151218
      6.50054      5.48921     17.06354        -0.109820     -0.011543      0.065010
      9.77348     13.52598     16.52226         0.240791      0.148320      0.503247
      4.84670     12.57414     17.55130        -0.460214     -0.002699      0.092697
      2.55893      8.03703     11.20136        -0.295430     -0.043032     -0.056478
      3.13393      9.42645     18.05377        -0.217487      0.383182      0.432774
      8.84339      1.19877     10.97072        -0.078985      0.002715     -0.127543
      4.15696      4.09074     10.55103         1.053304      0.794606     -0.666366
     11.63827      1.97515     15.82202        -0.035214     -0.020797     -0.137212
     10.61142      6.10337     12.54628         0.028882     -0.060053      0.192309
      0.53430     11.09758     16.03871        -0.043963     -0.197869     -0.134606
     14.16989      4.77855     16.05483        -0.087268      0.196936      0.189985
      2.23831     11.64440     14.44446        -0.187938     -0.084494     -0.083313
     14.37210      3.70695     12.27220         0.263983      0.100355      0.073322
      9.29584      0.67648     13.21962         0.033016      0.191485      0.302178
      4.43873     10.49206     14.48762        -0.000159      0.071400      0.065843
      5.36159      4.00978     15.54582         0.056414     -0.022626     -0.082530
     12.19164      7.43407     17.68840         0.082491      0.092183      0.110445
     13.71789      4.44685     10.08506        -0.426292     -0.043966      0.164021
      9.58397      4.48782     13.85748        -0.061276     -0.086946     -0.137171
      0.99553      1.70184     12.59890        -0.101842      0.207304     -0.094215
      5.18653      6.09577     10.07685        -0.242978     -0.567849     -0.184610
      0.74018      8.99254     12.32836         0.043011     -0.075048      0.113643
     10.69480     14.08726     10.63760         0.125513     -0.151901     -0.187287
      6.59383      0.87792     10.46142        -0.178243     -0.110930     -0.235955
     10.00268      5.01937     16.04960         0.222605     -0.181586      0.155013
      8.03009     11.92283     15.82605        -0.121605     -0.573297      0.306081
     12.03851      2.81427     18.71429        -0.150717     -0.442155     -0.156730
     12.57375     13.24185     14.08383        -0.288718     -0.115410      0.131926
      1.50589      2.62383     18.40229         0.173815      0.167769      0.416242
      5.88467     14.00650     14.00975        -0.049452      0.034310      0.023719
     11.83819      7.96402     15.40178         0.038798     -0.066324     -0.167588
      5.53810      9.88029     12.39907         0.257195      0.234545     -0.063000
     14.01614      1.68063     18.63976        -0.135426      0.251521     -0.043687
      9.08905      3.51467     10.63558         0.108964      0.103090      0.002509
      0.89365     10.23719     18.15107        -0.011419     -0.033843     -0.087932
      3.95794      9.80644     10.71841         0.132698     -0.067437      0.257238
     13.65547     14.14489     17.80634        -0.040197     -0.237039     -0.109965
 -----------------------------------------------------------------------------------
    total drift:                                0.002710      0.001860      0.000149


--------------------------------------------------------------------------------------------------------



  FREE ENERGIE OF THE ION-ELECTRON SYSTEM (eV)
  ---------------------------------------------------
  free  energy   TOTEN  =      -986.47744962 eV

  energy  without entropy=     -986.28642495  energy(sigma->0) =     -986.38193728



--------------------------------------------------------------------------------------------------------


    POTLOK:  cpu time      4.0646: real time      4.0672


--------------------------------------------------------------------------------------------------------


     LOOP+:  cpu time   7117.6665: real time   7122.6225
    4ORBIT:  cpu time      0.0000: real time      0.0000



 total charge

# of ion       s       p       d       tot
------------------------------------------
    1        0.616   0.032   0.000   0.648
    2        0.570   0.016   0.000   0.585
    3        0.568   0.016   0.000   0.585
    4        0.617   0.033   0.000   0.650
    5        0.589   0.030   0.000   0.619
    6        0.566   0.016   0.000   0.582
    7        0.561   0.015   0.000   0.576
    8        0.567   0.016   0.000   0.582
    9        0.557   0.016   0.000   0.573
   10        0.569   0.015   0.000   0.584
   11        0.568   0.016   0.000   0.584
   12        0.610   0.033   0.000   0.643
   13        0.566   0.016   0.000   0.582
   14        0.612   0.033   0.000   0.645
   15        0.616   0.032   0.000   0.648
   16        0.566   0.015   0.000   0.581
   17        0.573   0.015   0.000   0.588
   18        0.569   0.016   0.000   0.585
   19        0.558   0.016   0.000   0.573
   20        0.565   0.026   0.000   0.591
   21        0.561   0.016   0.000   0.576
   22        0.611   0.033   0.000   0.644
   23        0.565   0.015   0.000   0.581
   24        0.795   0.866   0.000   1.660
   25        0.832   0.807   0.000   1.639
   26        0.762   0.948   0.000   1.710
   27        0.765   0.940   0.000   1.705
   28        0.760   0.916   0.000   1.676
   29        0.815   0.885   0.000   1.701
   30        0.747   0.992   0.000   1.739
   31        0.755   0.917   0.000   1.672
   32        0.798   0.900   0.000   1.698
   33        0.754   0.936   0.000   1.690
   34        0.771   0.947   0.000   1.718
   35        0.765   0.884   0.000   1.650
   36        0.754   0.980   0.000   1.734
   37        0.754   0.954   0.000   1.708
   38        0.756   0.955   0.000   1.711
   39        0.757   0.950   0.000   1.707
   40        0.760   0.967   0.000   1.727
   41        0.787   0.885   0.000   1.672
   42        0.755   0.940   0.000   1.695
   43        0.784   0.894   0.000   1.678
   44        0.754   0.887   0.000   1.640
   45        0.756   0.920   0.000   1.676
   46        0.754   0.939   0.000   1.693
   47        0.754   0.995   0.000   1.749
   48        0.754   0.973   0.000   1.727
   49        0.762   0.933   0.000   1.694
   50        0.779   0.910   0.000   1.689
   51        0.745   0.970   0.000   1.715
   52        0.815   0.811   0.000   1.626
   53        0.785   0.890   0.000   1.675
   54        0.832   0.789   0.000   1.621
   55        0.809   0.783   0.000   1.592
   56        0.760   0.951   0.000   1.711
   57        0.750   0.941   0.000   1.691
   58        0.753   0.924   0.000   1.677
   59        0.748   0.887   0.000   1.635
   60        0.759   0.935   0.000   1.693
   61        0.783   0.873   0.000   1.656
   62        0.765   0.960   0.000   1.725
   63        0.751   0.945   0.000   1.696
   64        0.759   0.942   0.000   1.702
   65        0.758   0.952   0.000   1.710
   66        0.791   0.907   0.000   1.697
   67        0.745   0.988   0.000   1.732
   68        0.801   0.827   0.000   1.628
   69        0.754   0.957   0.000   1.711
   70        0.755   0.950   0.000   1.705
   71        0.790   0.867   0.000   1.657
   72        0.760   0.945   0.000   1.705
   73        0.763   0.941   0.000   1.704
   74        0.745   0.994   0.000   1.739
   75        0.869   0.754   0.000   1.623
   76        0.750   0.957   0.000   1.707
   77        0.752   0.952   0.000   1.704
   78        0.753   0.908   0.000   1.661
   79        0.755   0.926   0.000   1.681
   80        0.761   0.899   0.000   1.660
   81        0.747   0.909   0.000   1.656
   82        0.734   0.946   0.000   1.681
   83        0.740   0.947   0.000   1.687
   84        0.797   0.842   0.000   1.640
   85        0.759   0.959   0.000   1.718
   86        0.736   1.011   0.000   1.747
   87        0.744   0.960   0.000   1.704
   88        0.766   0.882   0.000   1.648
   89        0.776   0.916   0.000   1.692
   90        0.759   0.963   0.000   1.722
   91        0.754   0.953   0.000   1.708
   92        0.761   0.913   0.000   1.675
   93        0.747   0.973   0.000   1.720
   94        0.754   0.886   0.000   1.640
   95        0.758   0.946   0.000   1.704
   96        0.768   0.923   0.000   1.691
   97        0.749   0.903   0.000   1.653
   98        0.744   0.947   0.000   1.691
   99        0.748   0.913   0.000   1.661
  100        0.854   0.755   0.000   1.609
  101        0.763   0.970   0.000   1.733
  102        0.746   0.940   0.000   1.686
  103        0.857   0.769   0.000   1.626
  104        0.745   0.988   0.000   1.733
  105        0.778   0.863   0.000   1.641
  106        0.803   0.875   0.000   1.678
  107        0.757   0.962   0.000   1.719
  108        0.785   0.884   0.000   1.669
  109        0.821   0.818   0.000   1.639
  110        0.758   0.921   0.000   1.679
  111        0.740   1.000   0.000   1.740
  112        0.761   0.984   0.000   1.745
  113        0.760   0.974   0.000   1.735
  114        0.749   0.917   0.000   1.666
  115        0.780   0.916   0.000   1.696
  116        0.798   0.828   0.000   1.626
  117        0.826   0.817   0.000   1.643
  118        0.778   0.900   0.000   1.678
  119        0.753   0.941   0.000   1.693
--------------------------------------------------
tot         87.128  88.547   0.000 175.674


 total amount of memory used by VASP MPI-rank0   397041. kBytes
=======================================================================

   base                                    :      30000. kBytes
   nonl-proj                               :      87729. kBytes
   fftplans                                :     114278. kBytes
   grid                                    :      88184. kBytes
   one-center                              :         24. kBytes
   wavefun                                 :      76826. kBytes

  
  
 General timing and accounting informations for this job:
 ========================================================
  
                  Total CPU time used (sec):     7277.191
                            User time (sec):     6503.732
                          System time (sec):      773.458
                         Elapsed time (sec):     7282.231
  
                   Maximum memory used (kb):      659792.
                   Average memory used (kb):          N/A
  
                          Minor page faults:     12344256
                          Major page faults:         1186
                 Voluntary context switches:         2855
