 vasp.6.5.0 16Dec24 (build Jan 20 2025 08:32:48) complex                         
 executed on        HPECrayEX_GCC date 2025.07.28  20:25:45
 running  128 mpi-ranks, with    1 threads/rank, on    1 nodes
 distrk:  each k-point on  128 cores,    1 groups
 distr:  one band on NCORE=  16 cores,    8 groups


--------------------------------------------------------------------------------------------------------


 INCAR:
   SYSTEM = a-Si SPC
   NCORE = 16
   ISTART = 1
   ICHARG = 1
   ISPIN = 1
   ISYM = 1
   EDIFF = 1E-6
   NELM = 150
   EDIFFG = -0.01
   NSW = 0
   ISIF = 2
   IBRION = -1
   PREC = Accurate
   ENCUT = 1200
   KSPACING = 0.23
   KGAMMA = .TRUE.
   METAGGA = SCAN
   LASPH = .TRUE.
   LDIAG = .FALSE.
   LMIXTAU = .TRUE.
   ADDGRID = .TRUE.
   ALGO = Normal
   ISMEAR = 0
   SIGMA = 0.1
   LORBIT = 11
   NEDOS = 2000
   LWAVE = .FALSE.
   LCHARG = .FALSE.

 POTCAR:    PAW_PBE H 15Jun2001                   
 POTCAR:    PAW_PBE Si 05Jan2001                  
 POTCAR:    PAW_PBE H 15Jun2001                   
   SHA256 =  030f79b5d3ab3cf0e668861823c8fb652ff669f3e15e46930bd03bfd63a607b6 H/POTCAR              
   COPYR  = (c) Copyright 15Jun2001 Georg Kresse                                                    
   COPYR  = This file is part of the software VASP. Any use, copying, and all other rights are regul
   COPYR  = If you do not have a valid VASP license, you may not use, copy or distribute this file. 
   VRHFIN =H: ultrasoft test                                                                        
   LEXCH  = PE                                                                                      
   EATOM  =    12.4884 eV,    0.9179 Ry                                                             
                                                                                                    
   TITEL  = PAW_PBE H 15Jun2001                                                                     
   LULTRA =        F    use ultrasoft PP ?                                                          
   IUNSCR =        0    unscreen: 0-lin 1-nonlin 2-no                                               
   RPACOR =    0.000    partial core radius                                                         
   POMASS =    1.000; ZVAL   =    1.000    mass and valenz                                          
   RCORE  =    1.100    outmost cutoff radius                                                       
   RWIGS  =    0.700; RWIGS  =    0.370    wigner-seitz radius (au A)                               
   ENMAX  =  250.000; ENMIN  =  200.000 eV                                                          
   RCLOC  =    0.701    cutoff for local pot                                                        
   LCOR   =        T    correct aug charges                                                         
   LPAW   =        T    paw PP                                                                      
   EAUG   =  400.000                                                                                
   RMAX   =    1.123    core radius for proj-oper                                                   
   RAUG   =    1.200    factor for augmentation sphere                                              
   RDEP   =    1.112    radius for radial grids                                                     
   RDEPT  =    0.926    core radius for aug-charge                                                  
                                                                                                    
   Atomic configuration                                                                             
    2 entries                                                                                       
     n  l   j            E        occ.                                                              
     1  0  0.50        -6.4927   1.0000                                                             
     2  1  0.50        -3.4015   0.0000                                                             
   Description                                                                                      
     l       E           TYP  RCUT    TYP  RCUT                                                     
     0     -6.4927494     23  1.100                                                                 
     0      6.8029130     23  1.100                                                                 
     1     -4.0817478     23  1.100                                                                 
  local pseudopotential read in
  atomic valenz-charges read in
  non local Contribution for L=           0  read in
    real space projection operators read in
  non local Contribution for L=           0  read in
    real space projection operators read in
  non local Contribution for L=           1  read in
    real space projection operators read in
    PAW grid and wavefunctions read in

   number of l-projection  operators is LMAX  =           3
   number of lm-projection operators is LMMAX =           5

 POTCAR:    PAW_PBE Si 05Jan2001                  
   SHA256 =  79d9987ad8750f624c4d6acb2a16d13abf6a777132adc04dc6c8399be72b42bb Si/POTCAR             
   COPYR  = (c) Copyright 05Jan2001 Georg Kresse                                                    
   COPYR  = This file is part of the software VASP. Any use, copying, and all other rights are regul
   COPYR  = If you do not have a valid VASP license, you may not use, copy or distribute this file. 
   VRHFIN =Si: s2p2                                                                                 
   LEXCH  = PE                                                                                      
   EATOM  =   103.0669 eV,    7.5752 Ry                                                             
                                                                                                    
   TITEL  = PAW_PBE Si 05Jan2001                                                                    
   LULTRA =        F    use ultrasoft PP ?                                                          
   IUNSCR =        1    unscreen: 0-lin 1-nonlin 2-no                                               
   RPACOR =    1.500    partial core radius                                                         
   POMASS =   28.085; ZVAL   =    4.000    mass and valenz                                          
   RCORE  =    1.900    outmost cutoff radius                                                       
   RWIGS  =    2.480; RWIGS  =    1.312    wigner-seitz radius (au A)                               
   ENMAX  =  245.345; ENMIN  =  184.009 eV                                                          
   ICORE  =        2    local potential                                                             
   LCOR   =        T    correct aug charges                                                         
   LPAW   =        T    paw PP                                                                      
   EAUG   =  322.069                                                                                
   DEXC   =    0.000                                                                                
   RMAX   =    1.950    core radius for proj-oper                                                   
   RAUG   =    1.300    factor for augmentation sphere                                              
   RDEP   =    1.993    radius for radial grids                                                     
   RDEPT  =    1.837    core radius for aug-charge                                                  
                                                                                                    
   Atomic configuration                                                                             
    6 entries                                                                                       
     n  l   j            E        occ.                                                              
     1  0  0.50     -1785.8828   2.0000                                                             
     2  0  0.50      -139.4969   2.0000                                                             
     2  1  1.50       -95.5546   6.0000                                                             
     3  0  0.50       -10.8127   2.0000                                                             
     3  1  0.50        -4.0811   2.0000                                                             
     3  2  1.50        -4.0817   0.0000                                                             
   Description                                                                                      
     l       E           TYP  RCUT    TYP  RCUT                                                     
     0    -10.8127223     23  1.900                                                                 
     0     -7.6451159     23  1.900                                                                 
     1     -4.0811372     23  1.900                                                                 
     1      2.4879257     23  1.900                                                                 
     2     -4.0817478      7  1.900                                                                 
  local pseudopotential read in
  partial core-charges read in
  partial kinetic energy density read in
  atomic valenz-charges read in
  non local Contribution for L=           0  read in
    real space projection operators read in
  non local Contribution for L=           0  read in
    real space projection operators read in
  non local Contribution for L=           1  read in
    real space projection operators read in
  non local Contribution for L=           1  read in
    real space projection operators read in
    PAW grid and wavefunctions read in

   number of l-projection  operators is LMAX  =           4
   number of lm-projection operators is LMMAX =           8

 -----------------------------------------------------------------------------
|                                                                             |
|               ----> ADVICE to this user running VASP <----                  |
|                                                                             |
|     You have a (more or less) 'large supercell' and for larger cells it     |
|     might be more efficient to use real-space projection operators.         |
|     Therefore, try LREAL= Auto in the INCAR file.                           |
|     Mind: For very accurate calculation, you might also keep the            |
|     reciprocal projection scheme (i.e. LREAL=.FALSE.).                      |
|                                                                             |
 -----------------------------------------------------------------------------

 -----------------------------------------------------------------------------
|                                                                             |
|               ----> ADVICE to this user running VASP <----                  |
|                                                                             |
|     You enforced a specific xc type in the INCAR file but a different       |
|     type was found in the POTCAR file.                                      |
|     I HOPE YOU KNOW WHAT YOU ARE DOING!                                     |
|                                                                             |
 -----------------------------------------------------------------------------

  PAW_PBE H 15Jun2001                   :
 energy of atom  1       EATOM=  -12.4884
 kinetic energy error for atom=    0.0000 (will be added to EATOM!!)
  PAW_PBE Si 05Jan2001                  :
 energy of atom  2       EATOM= -103.0669
 kinetic energy error for atom=    0.0001 (will be added to EATOM!!)


 POSCAR:  H Si
  positions in cartesian coordinates
  No initial velocities read in


 exchange-correlation table for SCAN
   RHO(1)=    0.500       N(1)  =     2000
   RHO(2)=  100.500       N(2)  =     4000



--------------------------------------------------------------------------------------------------------


 ion  position               nearest neighbor table
   1  0.776  0.271  0.648-   7 0.80
   2  0.250  0.003  0.426-  81 1.49
   3  0.603  0.885  0.380-  95 1.52
   4  0.437  0.408  0.681-  42 1.48
   5  0.612  0.176  0.649-  63 1.49
   6  0.191  0.593  0.452-  78 1.50
   7  0.808  0.227  0.654-   1 0.80
   8  0.472  0.457  0.350-  34 1.48
   9  0.062  0.661  0.413-  20 1.50
  10  0.341  0.433  0.550-  75 1.64  38 1.65
  11  0.237  0.951  0.595-  65 2.27  14 2.29  35 2.35
  12  0.494  0.193  0.393-  88 2.30  25 2.33  49 2.37
  13  0.478  0.086  0.581-  76 2.26  22 2.32  63 2.32
  14  0.105  0.868  0.606-  11 2.29  93 2.30  83 2.37
  15  0.066  0.899  0.476-  67 2.38  55 2.39  54 2.41  83 2.41
  16  0.047  0.521  0.561-  19 2.34  72 2.35  74 2.35  62 2.38
  17  0.400  0.262  0.507-  38 2.31  94 2.33  49 2.34  22 2.34
  18  0.727  0.709  0.398-  59 2.33  43 2.39  73 2.49
  19  0.160  0.446  0.604-  75 2.34  16 2.34  29 2.38
  20  0.979  0.642  0.442-   9 1.50  96 2.32  43 2.33  74 2.43
  21  0.612  0.872  0.561-  47 2.31  71 2.31  76 2.31  28 2.34
  22  0.346  0.172  0.568-  13 2.32  79 2.33  17 2.34  35 2.42
  23  0.676  0.625  0.606-  71 2.28  39 2.37  70 2.40  56 2.45
  24  0.345  0.800  0.469-  30 2.27  85 2.28  64 2.29  31 2.46
  25  0.573  0.320  0.421-  69 2.30  12 2.33  34 2.36  94 2.40
  26  0.464  0.582  0.509-  52 2.29  80 2.34  40 2.34  84 2.37
  27  0.795  0.229  0.509-  37 2.29  36 2.33  89 2.33  53 2.35
  28  0.664  0.890  0.485-  59 2.28  51 2.33  21 2.34  95 2.36
  29  0.150  0.286  0.588-  79 2.32  19 2.38  92 2.42  57 2.46
  30  0.303  0.746  0.398-  24 2.27  77 2.31  78 2.37  31 2.41
  31  0.465  0.771  0.411-  52 2.33  30 2.41  24 2.46  95 2.60  64 3.00
  32  0.759  0.074  0.406-  51 2.33  89 2.34  88 2.39  97 2.41
  33  0.423  0.727  0.625-  71 2.29  65 2.34  84 2.36
  34  0.504  0.461  0.399-   8 1.48  25 2.36  80 2.39  73 2.44
  35  0.247  0.056  0.534-  11 2.35  81 2.37  67 2.37  22 2.42
  36  0.914  0.313  0.543-  87 2.31  27 2.33  57 2.35  62 2.36
  37  0.829  0.082  0.530-  27 2.29  51 2.30  61 2.32  44 2.33
  38  0.313  0.394  0.499-  10 1.65  17 2.31  92 2.33  80 2.36
  39  0.749  0.648  0.534-  91 2.32  45 2.32  59 2.33  23 2.37
  40  0.573  0.471  0.529-  70 2.32  26 2.34  94 2.34  91 2.39
  41  0.959  0.249  0.434-  89 2.30  86 2.31  68 2.31
  42  0.445  0.473  0.643-   4 1.48  75 2.33  70 2.33
  43  0.874  0.758  0.424-  50 2.33  20 2.33  54 2.39  18 2.39  59 3.12
  44  0.985  0.081  0.549-  67 2.28  93 2.32  57 2.33  37 2.33  98 2.77
  45  0.888  0.699  0.564-  39 2.32  60 2.33  56 2.36  74 2.37  72 2.86
  46  0.234  0.486  0.358-  48 2.26  78 2.33
  47  0.739  0.900  0.607-  61 2.30  21 2.31  60 2.34
  48  0.155  0.384  0.401-  46 2.26  66 2.32  86 2.34
  49  0.359  0.186  0.438-  81 2.32  17 2.34  12 2.37  66 2.41
  50  0.936  0.861  0.371-  97 2.30  43 2.33  55 2.34  82 2.95
  51  0.790  0.984  0.471-  37 2.30  54 2.31  28 2.33  32 2.33
  52  0.547  0.670  0.458-  59 2.29  26 2.29  31 2.33  73 2.35
  53  0.661  0.260  0.552-  63 2.32  94 2.33  58 2.34  27 2.35
  54  0.902  0.873  0.482-  51 2.31  43 2.39  15 2.41  60 2.43
  55  0.088  0.890  0.395-  77 2.33  82 2.34  50 2.34  15 2.39
  56  0.831  0.646  0.636-  72 2.30  45 2.36  23 2.45
  57  0.997  0.215  0.592-  44 2.33  36 2.35  29 2.46  98 2.50
  58  0.699  0.363  0.611-  87 2.29  53 2.34  70 2.35
  59  0.686  0.736  0.475-  28 2.28  52 2.29  39 2.33  18 2.33  43 3.12
  60  0.868  0.858  0.563-  45 2.33  47 2.34  93 2.37  54 2.43
  61  0.763  0.056  0.602-  47 2.30  37 2.32  63 2.38  98 2.44
  62  0.029  0.401  0.506-  86 2.34  92 2.34  36 2.36  16 2.38
  63  0.622  0.140  0.601-   5 1.49  13 2.32  53 2.32  61 2.38
  64  0.430  0.932  0.473-  81 2.28  24 2.29  76 2.35  95 2.35  31 3.00
  65  0.357  0.853  0.587-  11 2.27  76 2.33  33 2.34  85 2.37
  66  0.205  0.247  0.434-  48 2.32  68 2.35  49 2.41  92 2.42
  67  0.101  0.054  0.497-  44 2.28  68 2.35  35 2.37  15 2.38
  68  0.080  0.146  0.431-  41 2.31  82 2.32  66 2.35  67 2.35
  69  0.721  0.340  0.396-  89 2.29  25 2.30  90 2.32
  70  0.591  0.483  0.609-  40 2.32  42 2.33  58 2.35  23 2.40
  71  0.567  0.736  0.594-  23 2.28  33 2.29  21 2.31
  72  0.915  0.524  0.608-  87 2.26  56 2.30  16 2.35  45 2.86
  73  0.630  0.570  0.410-  52 2.35  90 2.37  34 2.44  18 2.49
  74  0.023  0.662  0.522-  16 2.35  83 2.37  45 2.37  20 2.43
  75  0.314  0.490  0.598-  10 1.64  84 2.33  42 2.33  19 2.34
  76  0.471  0.942  0.551-  13 2.26  21 2.31  65 2.33  64 2.35
  77  0.211  0.836  0.351-  30 2.31  55 2.33
  78  0.266  0.591  0.416-   6 1.50  46 2.33  80 2.34  30 2.37
  79  0.282  0.253  0.629-  29 2.32  22 2.33
  80  0.383  0.505  0.450-  78 2.34  26 2.34  38 2.36  34 2.39
  81  0.317  0.039  0.460-   2 1.49  64 2.28  49 2.32  35 2.37
  82  0.035  0.037  0.377-  97 2.30  68 2.32  55 2.34  50 2.95
  83  0.118  0.792  0.534-  14 2.37  74 2.37  85 2.37  15 2.41
  84  0.361  0.631  0.567-  75 2.33  85 2.34  33 2.36  26 2.37
  85  0.277  0.753  0.536-  24 2.28  84 2.34  83 2.37  65 2.37
  86  0.003  0.401  0.427-  96 2.29  41 2.31  62 2.34  48 2.34
  87  0.819  0.427  0.571-  72 2.26  58 2.29  36 2.31  91 2.38
  88  0.594  0.074  0.406-  12 2.30  95 2.34  32 2.39
  89  0.803  0.222  0.429-  69 2.29  41 2.30  27 2.33  32 2.34
  90  0.757  0.479  0.431-  69 2.32  96 2.33  91 2.35  73 2.37
  91  0.731  0.496  0.511-  39 2.32  90 2.35  87 2.38  40 2.39
  92  0.171  0.323  0.507-  38 2.33  62 2.34  29 2.42  66 2.42
  93  0.975  0.957  0.599-  14 2.30  44 2.32  60 2.37  98 2.47
  94  0.548  0.321  0.503-  53 2.33  17 2.33  40 2.34  25 2.40
  95  0.559  0.921  0.424-   3 1.52  88 2.34  64 2.35  28 2.36  31 2.60
  96  0.906  0.518  0.408-  86 2.29  20 2.32  90 2.33
  97  0.883  0.009  0.362-  82 2.30  50 2.30  32 2.41
  98  0.910  0.096  0.636-  61 2.44  93 2.47  57 2.50  44 2.77

  LATTYP: Found a simple tetragonal cell.
 ALAT       =    14.5422910267
 C/A-ratio  =     1.9901839777
  
  Lattice vectors:
  
 A1 = (  14.5422910267,   0.0000000000,   0.0000000000)
 A2 = (   0.0000000000,  14.5422910267,   0.0000000000)
 A3 = (   0.0000000000,   0.0000000000,  28.9418346000)


Analysis of symmetry for initial positions (statically):
=====================================================================
 Subroutine PRICEL returns:
 Original cell was already a primitive cell.
 

 Routine SETGRP: Setting up the symmetry group for a 
 simple tetragonal supercell.


 Subroutine GETGRP returns: Found  1 space group operations
 (whereof  1 operations were pure point group operations)
 out of a pool of 16 trial point group operations.


The static configuration has the point symmetry C_1 .


Analysis of symmetry for dynamics (positions and initial velocities):
=====================================================================
 Subroutine PRICEL returns:
 Original cell was already a primitive cell.
 

 Routine SETGRP: Setting up the symmetry group for a 
 simple tetragonal supercell.


 Subroutine GETGRP returns: Found  1 space group operations
 (whereof  1 operations were pure point group operations)
 out of a pool of 16 trial point group operations.


The dynamic configuration has the point symmetry C_1 .


 Subroutine INISYM returns: Found  1 space group operations
 (whereof  1 operations are pure point group operations),
 and found     1 'primitive' translations


----------------------------------------------------------------------------------------

                                     Primitive cell                                     

  volume of cell :    6120.5679

  direct lattice vectors                    reciprocal lattice vectors
    14.542291027  0.000000000  0.000000000     0.068764956  0.000000000  0.000000000
     0.000000000 14.542291027  0.000000000     0.000000000  0.068764956  0.000000000
     0.000000000  0.000000000 28.941834600     0.000000000  0.000000000  0.034552060

  length of vectors
    14.542291027 14.542291027 28.941834600     0.068764956  0.068764956  0.034552060

  position of ions in fractional coordinates (direct lattice)
     0.775716363  0.270652419  0.648031379
     0.249514558  0.003492904  0.425754935
     0.602903586  0.885353024  0.380133855
     0.436512448  0.407942864  0.681427085
     0.612124332  0.175912763  0.648920313
     0.191336169  0.593233897  0.451731424
     0.807560141  0.226934469  0.653619306
     0.472459246  0.457226784  0.350363275
     0.061985779  0.660635014  0.413187562
     0.340551852  0.433059538  0.550478634
     0.236662682  0.951404922  0.595083936
     0.494093297  0.193118374  0.392759508
     0.477578318  0.086380671  0.580501809
     0.104891552  0.868327813  0.606037028
     0.065881203  0.899143254  0.476354977
     0.047102837  0.521406079  0.560901432
     0.399569168  0.261858712  0.506669212
     0.726637986  0.709237366  0.397739835
     0.159742196  0.445605064  0.604425040
     0.978757252  0.642401330  0.442235206
     0.612144642  0.872394409  0.560738087
     0.345511475  0.171719193  0.567834692
     0.675572862  0.624550970  0.605773701
     0.345078937  0.799977676  0.468773844
     0.572513080  0.320415285  0.421392126
     0.463598899  0.581833481  0.508632263
     0.794948366  0.229357099  0.508982355
     0.663876843  0.890173604  0.484587997
     0.150132451  0.285780986  0.587586549
     0.303445871  0.745964386  0.398230253
     0.465351978  0.770522294  0.410842481
     0.758584365  0.074256463  0.405797419
     0.422507602  0.727453440  0.624840714
     0.504039019  0.460700876  0.399101287
     0.246855499  0.056073293  0.533593599
     0.914071632  0.312841156  0.542596487
     0.829242801  0.081763747  0.529916635
     0.313275972  0.394453016  0.498774806
     0.749277433  0.647616262  0.533560715
     0.573146665  0.471344765  0.529227375
     0.958626482  0.249029098  0.434279790
     0.445471762  0.472961805  0.642532119
     0.874282584  0.758417620  0.424337722
     0.985011207  0.080769385  0.548793499
     0.887668118  0.698522099  0.564321224
     0.234453114  0.485932553  0.357658082
     0.738937024  0.900212946  0.606513532
     0.154999795  0.383915598  0.401015424
     0.359197867  0.186352859  0.438361222
     0.936087728  0.860789650  0.370873957
     0.790444835  0.983924521  0.470523125
     0.547245859  0.669971600  0.458192328
     0.661052281  0.259848166  0.551554326
     0.902204055  0.873309306  0.481618738
     0.087603758  0.889595517  0.394519582
     0.831462164  0.645886051  0.636222954
     0.996504849  0.215169185  0.592108676
     0.698535848  0.362934359  0.610666672
     0.686107545  0.736181567  0.474567199
     0.868233616  0.857625691  0.563343593
     0.762790184  0.055960966  0.601693959
     0.029434940  0.400693525  0.506287338
     0.622420201  0.139912197  0.600989690
     0.429849207  0.932271636  0.472740396
     0.357002886  0.853137024  0.586561282
     0.204990296  0.247387538  0.434412436
     0.100661865  0.053826231  0.497196136
     0.079524689  0.145822028  0.431295178
     0.721159000  0.339935349  0.395978748
     0.590773639  0.483290414  0.608670136
     0.567243939  0.735621807  0.594301862
     0.915460593  0.524254105  0.607969098
     0.629563177  0.570410981  0.409607312
     0.022937045  0.661696267  0.522476035
     0.313622076  0.490293548  0.597562700
     0.470565723  0.942255646  0.551266597
     0.211479020  0.835796628  0.351241269
     0.266409111  0.591297176  0.416215769
     0.282086676  0.253099929  0.629209997
     0.383321187  0.504635008  0.450430494
     0.317215178  0.038754121  0.460188000
     0.034752838  0.037417794  0.376824390
     0.118417110  0.791645571  0.534212998
     0.360697092  0.631022342  0.567263936
     0.276899978  0.753403863  0.535614426
     0.003078470  0.400826949  0.426685177
     0.819266942  0.426646287  0.571076960
     0.594047191  0.073678576  0.406181268
     0.803408966  0.222342043  0.428582975
     0.757453843  0.478704374  0.431045743
     0.731388787  0.495992382  0.510854641
     0.170723769  0.323411445  0.506854671
     0.975119283  0.957299644  0.599405956
     0.548205254  0.320691265  0.503482172
     0.559351522  0.920578765  0.424335026
     0.905696179  0.518491039  0.407853131
     0.882504476  0.008782532  0.361574706
     0.910111825  0.095689857  0.636486981

  ion indices of the primitive-cell ions
   primitive index   ion index
                 1           1
                 2           2
                 3           3
                 4           4
                 5           5
                 6           6
                 7           7
                 8           8
                 9           9
                10          10
                11          11
                12          12
                13          13
                14          14
                15          15
                16          16
                17          17
                18          18
                19          19
                20          20
                21          21
                22          22
                23          23
                24          24
                25          25
                26          26
                27          27
                28          28
                29          29
                30          30
                31          31
                32          32
                33          33
                34          34
                35          35
                36          36
                37          37
                38          38
                39          39
                40          40
                41          41
                42          42
                43          43
                44          44
                45          45
                46          46
                47          47
                48          48
                49          49
                50          50
                51          51
                52          52
                53          53
                54          54
                55          55
                56          56
                57          57
                58          58
                59          59
                60          60
                61          61
                62          62
                63          63
                64          64
                65          65
                66          66
                67          67
                68          68
                69          69
                70          70
                71          71
                72          72
                73          73
                74          74
                75          75
                76          76
                77          77
                78          78
                79          79
                80          80
                81          81
                82          82
                83          83
                84          84
                85          85
                86          86
                87          87
                88          88
                89          89
                90          90
                91          91
                92          92
                93          93
                94          94
                95          95
                96          96
                97          97
                98          98

----------------------------------------------------------------------------------------


 -----------------------------------------------------------------------------
|                                                                             |
|           W    W    AA    RRRRR   N    N  II  N    N   GGGG   !!!           |
|           W    W   A  A   R    R  NN   N  II  NN   N  G    G  !!!           |
|           W    W  A    A  R    R  N N  N  II  N N  N  G       !!!           |
|           W WW W  AAAAAA  RRRRR   N  N N  II  N  N N  G  GGG   !            |
|           WW  WW  A    A  R   R   N   NN  II  N   NN  G    G                |
|           W    W  A    A  R    R  N    N  II  N    N   GGGG   !!!           |
|                                                                             |
|     The requested file  could not be found or opened for reading            |
|     k-point information. Automatic k-point generation is used as a          |
|     fallback, which may lead to unwanted results.                           |
|                                                                             |
 -----------------------------------------------------------------------------



Automatic generation of k-mesh.
 Grid dimensions derived from KSPACING:
 generate k-points for:    2    2    1

 Generating k-lattice:

  Cartesian coordinates                     Fractional coordinates (reciprocal lattice)
     0.034382478  0.000000000  0.000000000     0.500000000  0.000000000  0.000000000
     0.000000000  0.034382478  0.000000000     0.000000000  0.500000000  0.000000000
     0.000000000  0.000000000  0.034552060     0.000000000  0.000000000  1.000000000

  Length of vectors
     0.034382478  0.034382478  0.034552060

  Shift w.r.t. Gamma in fractional coordinates (k-lattice)
     0.000000000  0.000000000  0.000000000

 
 Subroutine IBZKPT returns following result:
 ===========================================
 
 Found      4 irreducible k-points:
 
 Following reciprocal coordinates:
            Coordinates               Weight
  0.000000  0.000000  0.000000      1.000000
  0.500000  0.000000  0.000000      1.000000
  0.000000  0.500000  0.000000      1.000000
  0.500000  0.500000  0.000000      1.000000
 
 Following cartesian coordinates:
            Coordinates               Weight
  0.000000  0.000000  0.000000      1.000000
  0.034382  0.000000  0.000000      1.000000
  0.000000  0.034382  0.000000      1.000000
  0.034382  0.034382  0.000000      1.000000
 


--------------------------------------------------------------------------------------------------------




 Dimension of arrays:
   k-points           NKPTS =      4   k-points in BZ     NKDIM =      4   number of bands    NBANDS=    232
   number of dos      NEDOS =   2000   number of ions     NIONS =     98
   non local maximal  LDIM  =      4   non local SUM 2l+1 LMDIM =      8
   total plane-waves  NPLWV = ******
   max r-space proj   IRMAX =      1   max aug-charges    IRDMAX= 414586
   dimension x,y,z NGX =   168 NGY =  168 NGZ =  336
   dimension x,y,z NGXF=   336 NGYF=  336 NGZF=  672
   support grid    NGXF=   672 NGYF=  672 NGZF= 1344
   ions per type =              10  88
   NGX,Y,Z   is equivalent  to a cutoff of  19.21, 19.21, 19.30 a.u.
   NGXF,Y,Z  is equivalent  to a cutoff of  38.41, 38.41, 38.60 a.u.

 SYSTEM =  a-Si SPC                                
 POSCAR =   H Si                                   

 Startparameter for this run:
   NWRITE =      2    write-flag & timer
   PREC   = accura    normal or accurate (medium, high low for compatibility)
   ISTART =      1    job   : 0-new  1-cont  2-samecut
   ICHARG =      1    charge: 1-file 2-atom 10-const
   ISPIN  =      1    spin polarized calculation?
   LNONCOLLINEAR =      F non collinear calculations
   LSORBIT =      F    spin-orbit coupling
   INIWAV =      1    electr: 0-lowe 1-rand  2-diag
   LASPH  =      T    aspherical Exc in radial PAW
 Electronic Relaxation 1
   ENCUT  = 1200.0 eV  88.20 Ry    9.39 a.u.  41.08 41.08 81.75*2*pi/ulx,y,z
   ENINI  = 1200.0     initial cutoff
   ENAUG  =  400.0 eV  augmentation charge cutoff
   NELM   =    150;   NELMIN=  2; NELMDL=  0     # of ELM steps 
   EDIFF  = 0.1E-05   stopping-criterion for ELM
   LREAL  =      F    real-space projection
   NLSPLINE    = F    spline interpolate recip. space projectors
   LCOMPAT=      F    compatible to vasp.4.4
   GGA_COMPAT  = T    GGA compatible to vasp.4.4-vasp.4.6
   LMAXPAW     = -100 max onsite density
   LMAXMIX     =    2 max onsite mixed and CHGCAR
   VOSKOWN=      0    Vosko Wilk Nusair interpolation
   ROPT   =    0.00000   0.00000
 Ionic relaxation
   EDIFFG = -.1E-01   stopping-criterion for IOM
   NSW    =      0    number of steps for IOM
   NBLOCK =      1;   KBLOCK =      1    inner block; outer block 
   IBRION =     -1    ionic relax: 0-MD 1-quasi-New 2-CG
   NFREE  =      0    steps in history (QN), initial steepest desc. (CG)
   ISIF   =      2    stress and relaxation
   IWAVPR =     10    prediction:  0-non 1-charg 2-wave 3-comb
   ISYM   =      1    0-nonsym 1-usesym 2-fastsym
   LCORR  =      T    Harris-Foulkes like correction to forces

   POTIM  = 0.5000    time-step for ionic-motion
   TEIN   =    0.0    initial temperature
   TEBEG  =    0.0;   TEEND  =   0.0 temperature during run
   SMASS  =  -3.00    Nose mass-parameter (am)
   estimated Nose-frequenzy (Omega)   =  0.10E-29 period in steps = 0.13E+47 mass=  -0.483E-26a.u.
   SCALEE = 1.0000    scale energy and forces
   NPACO  =    256;   APACO  = 10.0  distance and # of slots for P.C.
   PSTRESS=    0.0 pullay stress

  Mass of Ions in am
   POMASS =   1.00 28.09
  Ionic Valenz
   ZVAL   =   1.00  4.00
  Atomic Wigner-Seitz radii
   RWIGS  =  -1.00 -1.00
  virtual crystal weights 
   VCA    =   1.00  1.00
   NELECT =     362.0000    total number of electrons
   NUPDOWN=      -1.0000    fix difference up-down

 DOS related values:
   EMIN   =  10.00;   EMAX   =-10.00  energy-range for DOS
   EFERMI =   0.00;   METHOD = LEGACY      
   ISMEAR =     0;   SIGMA  =   0.10  broadening in eV -4-tet -1-fermi 0-gaus
   EFERMI_NEDOS =   21; number of points for ismear=-14 and -15

 Electronic relaxation 2 (details)
   IALGO  =     38    algorithm
   LDIAG  =      F    sub-space diagonalisation (order eigenvalues)
   LSUBROT=      F    optimize rotation matrix (better conditioning)
   TURBO    =      0    0=normal 1=particle mesh
   IRESTART =      0    0=no restart 2=restart with 2 vectors
   NREBOOT  =      0    no. of reboots
   NMIN     =      0    reboot dimension
   EREF     =   0.00    reference energy to select bands
   IMIX   =      4    mixing-type and parameters
     AMIX     =   0.40;   BMIX     =  1.00
     AMIX_MAG =   1.60;   BMIX_MAG =  1.00
     AMIN     =   0.10
     WC   =   100.;   INIMIX=   1;  MIXPRE=   1;  MAXMIX= -45

 Intra band minimization:
   WEIMIN = 0.0000     energy-eigenvalue tresh-hold
   EBREAK =  0.11E-08  absolut break condition
   DEPER  =   0.30     relativ break condition  

   TIME   =   0.40     timestep for ELM

  volume/ion in A,a.u.               =      62.45       421.47
  Fermi-wavevector in a.u.,A,eV,Ry     =   0.637843  1.205348  5.535444  0.406844
  Thomas-Fermi vector in A             =   1.702985

 Write flags
   LWAVE        =      F    write WAVECAR
   LDOWNSAMPLE  =      F    k-point downsampling of WAVECAR
   LCHARG       =      F    write CHGCAR
   LVTOT        =      F    write LOCPOT, total local potential
   LVHAR        =      F    write LOCPOT, Hartree potential only
   WRT_POTENTIAL= false  ! write potential to hdf5 file
   LELF         =      F    write electronic localiz. function (ELF)
   LORBIT       =     11    0 simple, 1 ext, 2 COOP (PROOUT), +10 PAW based schemes


 Python interface
   PLUGINS active      =      F    recompile with -DPLUGINS to activate

 Dipole corrections
   LMONO      =      F    monopole corrections only (constant potential shift)
   LDIPOL     =      F    correct potential (dipole corrections)
   IDIPOL     =      0    1-x, 2-y, 3-z, 4-all directions 
   EPSILON    =  1.0000000 bulk dielectric constant
   LVACPOTAV  =      F  vacuum potentials using an averaging scheme for the charge density
   VACPOTFLAT =  0.1000000 required flatness to determine vacuum potential

Coulomb truncation method
  LTRUNCATE          =      F  Coulomb kernel truncation to be used
  IDIMENSIONALITY    =      3  Dimensionality of cutoff (0 molecules / 2 surfaces)
  ISURFACE           =     -1  Direction of surface normal
  LCOARSEN           =      F  Coarsen the charge grid before padding, preferred


 Exchange correlation treatment:
   METAGGA = SCAN    functional components
   XC_C    = 1    coefficients multiplying the functional components
   LIBXC   =     F    Libxc                    
   VOSKOWN =     0    Vosko Wilk Nusair interpolation
   LHFCALC =     F    Hartree Fock is set to
   LHFONE  =     F    Hartree Fock one center treatment
   AEXX    =    0.0000 exact exchange contribution

 Parameters of functionals:
   SCAN:
     P1 =  0.000000E+00
     P2 =  0.000000E+00
     P3 =  0.000000E+00

 Accuracy and mixing parameters for tau-dependent meta-GGA functionals:
   LMAXTAU = 6
   LMIXTAU = T

 Van der Waals corrections
   IVDW    =     0    specifies the selected vdW correction

 Linear response parameters
   LEPSILON=     F    determine dielectric tensor
   LRPA    =     F    only Hartree local field effects (RPA)
   LNABLA  =     F    use nabla operator in PAW spheres
   LVEL    =     F    velocity operator in full k-point grid
   CSHIFT  =0.1000    complex shift for real part using Kramers Kronig
   OMEGAMAX=  -1.0    maximum frequency
   DEG_THRESHOLD= 0.2000000E-02 threshold for treating states as degnerate
   RTIME   =   -0.100 relaxation time in fs
  (WPLASMAI=    0.000 imaginary part of plasma frequency in eV, 0.658/RTIME)
   DFIELD  = 0.0000000 0.0000000 0.0000000 field for delta impulse in time

  Optional k-point grid parameters
   LKPOINTS_OPT  =     F    use optional k-point grid
   KPOINTS_OPT_MODE=     1    mode for optional k-point grid

 Orbital magnetization related:
   ORBITALMAG=     F  switch on orbital magnetization
   LCHIMAG   =     F  perturbation theory with respect to B field
   DQ        =  0.001000  dq finite difference perturbation B field
   LLRAUG    =     F  two centre corrections for induced B field
   LBONE     =     F  B-component reconstruction in AE one-centre
   LVGVCALC  =     T  calculate vGv susceptibility
   LVGVAPPL  =     F  apply vGv susceptibility instead of pGv for G=0

 Random number generation:
   RANDOM_GENERATOR = DEFAULT
   PCG_SEED         = not used


--------------------------------------------------------------------------------------------------------


 Static calculation
 charge density and potential will be updated during run
 non-spin polarized calculation
 Variant of blocked Davidson
 perform Loewdin sub-space diagonalisation
    ordering is kept fixed
    before iterative eigenvector-optimisation
 modified Broyden-mixing scheme, WC =      100.0
 initial mixing is a Kerker type mixing with AMIX =  0.4000 and BMIX =      1.0000
 Hartree-type preconditioning will be used
 using additional bands           51
 reciprocal scheme for non local part
 use partial core corrections
 calculate Harris-corrections to forces   (improved forces if not selfconsistent)
 use gradient corrections 
 use of overlap-Matrix (Vanderbilt PP)
 Gauss-broadening in eV      SIGMA  =   0.10


--------------------------------------------------------------------------------------------------------


  energy-cutoff  :     1200.00
  volume of cell :     6120.57
      direct lattice vectors                 reciprocal lattice vectors
    14.542291027  0.000000000  0.000000000     0.068764956  0.000000000  0.000000000
     0.000000000 14.542291027  0.000000000     0.000000000  0.068764956  0.000000000
     0.000000000  0.000000000 28.941834600     0.000000000  0.000000000  0.034552060

  length of vectors
    14.542291027 14.542291027 28.941834600     0.068764956  0.068764956  0.034552060



 old parameters found on file WAVECAR:
  energy-cutoff  :     1200.00
  volume of cell :     6120.57
      direct lattice vectors                 reciprocal lattice vectors
    14.542291027  0.000000000  0.000000000     0.068764956  0.000000000  0.000000000
     0.000000000 14.542291027  0.000000000     0.000000000  0.068764956  0.000000000
     0.000000000  0.000000000 28.941834600     0.000000000  0.000000000  0.034552060

  length of vectors


 k-points in units of 2pi/SCALE and weight: read from INCAR                         
   0.00000000  0.00000000  0.00000000       0.250
   0.03438248  0.00000000  0.00000000       0.250
   0.00000000  0.03438248  0.00000000       0.250
   0.03438248  0.03438248  0.00000000       0.250

 k-points in reciprocal lattice and weights: read from INCAR                         
   0.00000000  0.00000000  0.00000000       0.250
   0.50000000  0.00000000  0.00000000       0.250
   0.00000000  0.50000000  0.00000000       0.250
   0.50000000  0.50000000  0.00000000       0.250

 position of ions in fractional coordinates (direct lattice) 
   0.77571636  0.27065242  0.64803138
   0.24951456  0.00349290  0.42575493
   0.60290359  0.88535302  0.38013386
   0.43651245  0.40794286  0.68142709
   0.61212433  0.17591276  0.64892031
   0.19133617  0.59323390  0.45173142
   0.80756014  0.22693447  0.65361931
   0.47245925  0.45722678  0.35036328
   0.06198578  0.66063501  0.41318756
   0.34055185  0.43305954  0.55047863
   0.23666268  0.95140492  0.59508394
   0.49409330  0.19311837  0.39275951
   0.47757832  0.08638067  0.58050181
   0.10489155  0.86832781  0.60603703
   0.06588120  0.89914325  0.47635498
   0.04710284  0.52140608  0.56090143
   0.39956917  0.26185871  0.50666921
   0.72663799  0.70923737  0.39773984
   0.15974220  0.44560506  0.60442504
   0.97875725  0.64240133  0.44223521
   0.61214464  0.87239441  0.56073809
   0.34551147  0.17171919  0.56783469
   0.67557286  0.62455097  0.60577370
   0.34507894  0.79997768  0.46877384
   0.57251308  0.32041529  0.42139213
   0.46359890  0.58183348  0.50863226
   0.79494837  0.22935710  0.50898235
   0.66387684  0.89017360  0.48458800
   0.15013245  0.28578099  0.58758655
   0.30344587  0.74596439  0.39823025
   0.46535198  0.77052229  0.41084248
   0.75858436  0.07425646  0.40579742
   0.42250760  0.72745344  0.62484071
   0.50403902  0.46070088  0.39910129
   0.24685550  0.05607329  0.53359360
   0.91407163  0.31284116  0.54259649
   0.82924280  0.08176375  0.52991663
   0.31327597  0.39445302  0.49877481
   0.74927743  0.64761626  0.53356071
   0.57314666  0.47134477  0.52922738
   0.95862648  0.24902910  0.43427979
   0.44547176  0.47296180  0.64253212
   0.87428258  0.75841762  0.42433772
   0.98501121  0.08076938  0.54879350
   0.88766812  0.69852210  0.56432122
   0.23445311  0.48593255  0.35765808
   0.73893702  0.90021295  0.60651353
   0.15499980  0.38391560  0.40101542
   0.35919787  0.18635286  0.43836122
   0.93608773  0.86078965  0.37087396
   0.79044483  0.98392452  0.47052312
   0.54724586  0.66997160  0.45819233
   0.66105228  0.25984817  0.55155433
   0.90220406  0.87330931  0.48161874
   0.08760376  0.88959552  0.39451958
   0.83146216  0.64588605  0.63622295
   0.99650485  0.21516919  0.59210868
   0.69853585  0.36293436  0.61066667
   0.68610754  0.73618157  0.47456720
   0.86823362  0.85762569  0.56334359
   0.76279018  0.05596097  0.60169396
   0.02943494  0.40069353  0.50628734
   0.62242020  0.13991220  0.60098969
   0.42984921  0.93227164  0.47274040
   0.35700289  0.85313702  0.58656128
   0.20499030  0.24738754  0.43441244
   0.10066187  0.05382623  0.49719614
   0.07952469  0.14582203  0.43129518
   0.72115900  0.33993535  0.39597875
   0.59077364  0.48329041  0.60867014
   0.56724394  0.73562181  0.59430186
   0.91546059  0.52425410  0.60796910
   0.62956318  0.57041098  0.40960731
   0.02293705  0.66169627  0.52247604
   0.31362208  0.49029355  0.59756270
   0.47056572  0.94225565  0.55126660
   0.21147902  0.83579663  0.35124127
   0.26640911  0.59129718  0.41621577
   0.28208668  0.25309993  0.62921000
   0.38332119  0.50463501  0.45043049
   0.31721518  0.03875412  0.46018800
   0.03475284  0.03741779  0.37682439
   0.11841711  0.79164557  0.53421300
   0.36069709  0.63102234  0.56726394
   0.27689998  0.75340386  0.53561443
   0.00307847  0.40082695  0.42668518
   0.81926694  0.42664629  0.57107696
   0.59404719  0.07367858  0.40618127
   0.80340897  0.22234204  0.42858297
   0.75745384  0.47870437  0.43104574
   0.73138879  0.49599238  0.51085464
   0.17072377  0.32341144  0.50685467
   0.97511928  0.95729964  0.59940596
   0.54820525  0.32069126  0.50348217
   0.55935152  0.92057876  0.42433503
   0.90569618  0.51849104  0.40785313
   0.88250448  0.00878253  0.36157471
   0.91011182  0.09568986  0.63648698

 position of ions in cartesian coordinates  (Angst):
  11.28069311  3.93590625 18.75521700
   3.62851332  0.05079482 12.32212890
   8.76759941 12.87506133 11.00177116
   6.34789106  5.93242385 19.72174999
   8.90169018  2.55817460 18.78094437
   2.78246626  8.62697998 13.07393616
  11.74377459  3.30014709 18.91694186
   6.87063985  6.64912496 10.14015596
   0.90141524  9.60714663 11.95840607
   4.95240414  6.29767783 15.93186157
   3.44161760 13.83560726 17.22282085
   7.18524852  2.80838360 11.36718071
   6.94508289  1.25617286 16.80078733
   1.52536348 12.62747577 17.53982344
   0.95806363 13.07560287 13.78658696
   0.68498317  7.58243895 16.23351646
   5.81065112  3.80802560 14.66393654
  10.56698106 10.31393619 11.51132053
   2.32301750  6.48011853 17.49316953
  14.23337281  9.34198709 12.79909819
   8.90198554 12.68661339 16.22878898
   5.02452842  2.49719048 16.43417773
   9.82437717  9.08240197 17.53220225
   5.01823833 11.63350818 13.56717505
   8.32565182  4.65957233 12.19586121
   6.74179011  8.46119181 14.72075082
  11.56037049  3.33537768 14.73088313
   9.65429025 12.94516361 14.02486565
   2.18326980  4.15591027 17.00583272
   4.41279816 10.84803119 11.52551412
   6.76728390 11.20515944 11.89053513
  11.03155460  1.07985909 11.74452178
   6.14422851 10.57883963 18.08403661
   7.32988210  6.69964622 11.55072343
   3.58984451  0.81543414 15.44317769
  13.29269569  4.54942713 15.70373779
  12.05909015  1.18903221 15.33675959
   4.55575036  5.73625055 14.43545794
  10.89621049  9.41782416 15.44222595
   8.33486560  6.85443275 15.31681116
  13.94062528  3.62145361 12.56885385
   6.47818001  6.87794821 18.59605832
  12.71407178 11.02912975 12.28111217
  14.32431963  1.17457190 15.88309068
  12.90872810 10.15811165 16.33249153
   3.40948541  7.06657260 10.35128106
  10.74583726 13.09115865 17.55361433
   2.25405213  5.58301236 11.60612207
   5.22355992  2.70999751 12.68697799
  13.61286016 12.51785361 10.73377272
  11.49487883 14.30851673 13.61780245
   7.95820854  9.74292199 13.26092658
   9.61321465  3.77878765 15.96299409
  13.12011394 12.69991808 13.93892986
   1.27395935 12.93675690 11.41812050
  12.09136477  9.39266293 18.41345950
  14.49146353  3.12905291 17.13671138
  10.15831160  5.27789707 17.67381382
   9.97757559 10.70576660 13.73484539
  12.62610592 12.47184239 16.30419709
  11.09271685  0.81380066 17.41412703
   0.42805147  5.82700186 14.65288439
   9.05141570  2.03464389 17.39374421
   6.25099227 13.55736544 13.68197436
   5.19163986 12.40656689 16.97615960
   2.98102854  3.59758158 12.57269287
   1.46385414  0.78275671 14.38976834
   1.15647117  2.12058637 12.48247371
  10.48730406  4.94343878 11.46035142
   8.59120219  7.02814985 17.61603040
   8.24902645 10.69762641 17.20018619
  13.31289437  7.62385576 17.59574107
   9.15529094  8.29508249 11.85478707
   0.33355719  9.62257969 15.12141499
   4.56078350  7.12999147 17.29456084
   6.84310369 13.70255582 15.95466668
   3.07538945 12.15439781 10.16556672
   3.87419883  8.59881561 12.04604794
   4.10218654  3.68065282 18.21049167
   5.57436826  7.33854915 13.03628486
   4.61303543  0.56357371 13.31868499
   0.50538589  0.54414045 10.90598917
   1.72205608 11.51234028 15.46110422
   5.24536209  9.17651054 16.41765900
   4.02676006 10.95621823 15.50166414
   0.04476801  5.82894215 12.34905182
  11.91401830  6.20441447 16.52801493
   8.63880713  1.07145530 11.75563109
  11.68340700  3.23336269 12.40397757
  11.01511423  6.96145832 12.47525460
  10.63606859  7.21286557 14.78507053
   2.48271474  4.70314335 14.66930404
  14.18046840 13.92133003 17.34790804
   7.97216035  4.66358570 14.57169774
   8.13425262 13.38732431 12.28103414
  13.17089741  7.54004759 11.80401786
  12.83363692  0.12771813 10.46463534
  13.23511102  1.39154975 18.42110093



--------------------------------------------------------------------------------------------------------


 k-point     1 :   0.0000 0.0000 0.0000  plane waves:  577507
 k-point     2 :   0.5000 0.0000 0.0000  plane waves:  577606
 k-point     3 :   0.0000 0.5000 0.0000  plane waves:  577606
 k-point     4 :   0.5000 0.5000 0.0000  plane waves:  577868

 maximum and minimum number of plane-waves per node :     36192    36026

 maximum number of plane-waves:    577868
 maximum index in each direction: 
   IXMAX=   41   IYMAX=   41   IZMAX=   81
   IXMIN=  -41   IYMIN=  -41   IZMIN=  -81


 parallel 3D FFT for wavefunctions:
    minimum data exchange during FFTs selected (reduces bandwidth)
 parallel 3D FFT for charge:
    minimum data exchange during FFTs selected (reduces bandwidth)


 total amount of memory used by VASP MPI-rank0   374720. kBytes
=======================================================================

   base                                    :      30000. kBytes
   nonl-proj                               :      75112. kBytes
   fftplans                                :     114276. kBytes
   grid                                    :      88184. kBytes
   one-center                              :         21. kBytes
   wavefun                                 :      67127. kBytes

     INWAV:  cpu time     19.9789: real time     19.9922
 Broyden mixing: mesh for mixing (old mesh)
   NGX = 83   NGY = 83   NGZ =163
  (NGX  =336   NGY  =336   NGZ  =672)
  gives a total of ****** points

 initial charge density was supplied:
 number of electron     361.9999999 magnetization 
 keeping initial charge density in first step


--------------------------------------------------------------------------------------------------------


 Maximum index for augmentation-charges        11579 (set IRDMAX)


--------------------------------------------------------------------------------------------------------


 First call to EWALD:  gamma=   0.097
 Maximum number of real-space cells   3x   3x   2
 Maximum number of reciprocal cells   2x   2x   4

    FEWALD:  cpu time      0.0144: real time      0.0144


--------------------------------------- Ionic step        1  -------------------------------------------




--------------------------------------- Iteration      1(   1)  ---------------------------------------


    POTLOK:  cpu time      2.3118: real time      2.3131
    SETDIJ:  cpu time      1.7367: real time      1.7383
    EDDIAG:  cpu time     40.7478: real time     40.7723
     EDDAV:  cpu time    188.6245: real time    188.7319
       DOS:  cpu time      0.0076: real time      0.0078
    CHARGE:  cpu time     23.6411: real time     23.6620
    MIXING:  cpu time      0.0524: real time      0.0527
    --------------------------------------------
      LOOP:  cpu time    257.1219: real time    257.2782

 eigenvalue-minimisations  :  1856
 total energy-change (2. order) :-0.9242260E+03  (-0.1024068E+01)
 number of electron     361.9999999 magnetization 
 augmentation part      -19.8017461 magnetization 

 Broyden mixing:
  rms(total) = 0.11714E+01    rms(broyden)= 0.11714E+01
  rms(prec ) = 0.11728E+01
  weight for this iteration     100.00

 Free energy of the ion-electron system (eV)
  ---------------------------------------------------
  alpha Z        PSCENC =        45.24287686
  Ewald energy   TEWEN  =     59206.99400001
  -Hartree energ DENC   =    -67290.75742401
  -exchange      EXHF   =         0.00000000
  -V(xc)+E(xc)   XCENC  =      -400.68714598
  PAW double counting   =     34270.75183544   -33393.99857397
  entropy T*S    EENTRO =        -0.17786310
  eigenvalues    EBANDS =     -2556.35890705
  atomic energy  EATOM  =      9194.76516920
  Solvation  Ediel_sol  =         0.00000000
  ---------------------------------------------------
  free energy    TOTEN  =      -924.22603260 eV

  energy without entropy =     -924.04816950  energy(sigma->0) =     -924.13710105


--------------------------------------------------------------------------------------------------------




--------------------------------------- Iteration      1(   2)  ---------------------------------------


    POTLOK:  cpu time      2.2744: real time      2.3019
    SETDIJ:  cpu time      1.7370: real time      1.7383
    EDDIAG:  cpu time     40.7229: real time     40.7465
     EDDAV:  cpu time    190.4628: real time    190.5655
       DOS:  cpu time      0.0042: real time      0.0042
    CHARGE:  cpu time     23.5566: real time     23.5774
    MIXING:  cpu time      0.0451: real time      0.0455
    --------------------------------------------
      LOOP:  cpu time    258.8030: real time    258.9793

 eigenvalue-minimisations  :  1888
 total energy-change (2. order) : 0.6415349E+02  (-0.9858936E+00)
 number of electron     361.9999999 magnetization 
 augmentation part      -19.7302231 magnetization 

 Broyden mixing:
  rms(total) = 0.79568E+00    rms(broyden)= 0.79568E+00
  rms(prec ) = 0.79704E+00
  weight for this iteration     100.00

 eigenvalues of (default mixing * dielectric matrix)
  average eigenvalue GAMMA=   2.6893
  2.6893

 Free energy of the ion-electron system (eV)
  ---------------------------------------------------
  alpha Z        PSCENC =        45.24287686
  Ewald energy   TEWEN  =     59206.99400001
  -Hartree energ DENC   =    -67276.46455895
  -exchange      EXHF   =         0.00000000
  -V(xc)+E(xc)   XCENC  =      -391.62348997
  PAW double counting   =     40877.81752660   -40000.83103079
  entropy T*S    EENTRO =        -0.16881211
  eigenvalues    EBANDS =     -2515.80422234
  atomic energy  EATOM  =      9194.76516920
  Solvation  Ediel_sol  =         0.00000000
  ---------------------------------------------------
  free energy    TOTEN  =      -860.07254149 eV

  energy without entropy =     -859.90372938  energy(sigma->0) =     -859.98813543


--------------------------------------------------------------------------------------------------------




--------------------------------------- Iteration      1(   3)  ---------------------------------------


    POTLOK:  cpu time      2.2596: real time      2.2904
    SETDIJ:  cpu time      1.7318: real time      1.7336
    EDDIAG:  cpu time     40.7038: real time     40.7277
     EDDAV:  cpu time    188.9139: real time    189.0192
       DOS:  cpu time      0.0020: real time      0.0020
    CHARGE:  cpu time     23.5543: real time     23.5744
    MIXING:  cpu time      0.0432: real time      0.0432
    --------------------------------------------
      LOOP:  cpu time    257.2085: real time    257.3905

 eigenvalue-minimisations  :  1864
 total energy-change (2. order) :-0.2734343E+01  (-0.8038577E+00)
 number of electron     361.9999999 magnetization 
 augmentation part      -19.6594460 magnetization 

 Broyden mixing:
  rms(total) = 0.11306E+00    rms(broyden)= 0.11306E+00
  rms(prec ) = 0.14276E+00
  weight for this iteration     100.00

 eigenvalues of (default mixing * dielectric matrix)
  average eigenvalue GAMMA=   1.7640
  0.9146  2.6135

 Free energy of the ion-electron system (eV)
  ---------------------------------------------------
  alpha Z        PSCENC =        45.24287686
  Ewald energy   TEWEN  =     59206.99400001
  -Hartree energ DENC   =    -67279.36073751
  -exchange      EXHF   =         0.00000000
  -V(xc)+E(xc)   XCENC  =      -394.37534567
  PAW double counting   =     54242.85573610   -53366.10773426
  entropy T*S    EENTRO =        -0.17286205
  eigenvalues    EBANDS =     -2512.64798737
  atomic energy  EATOM  =      9194.76516920
  Solvation  Ediel_sol  =         0.00000000
  ---------------------------------------------------
  free energy    TOTEN  =      -862.80688470 eV

  energy without entropy =     -862.63402265  energy(sigma->0) =     -862.72045367


--------------------------------------------------------------------------------------------------------




--------------------------------------- Iteration      1(   4)  ---------------------------------------


    POTLOK:  cpu time      2.2634: real time      2.2897
    SETDIJ:  cpu time      1.7317: real time      1.7326
    EDDIAG:  cpu time     40.7399: real time     40.7640
     EDDAV:  cpu time    191.6732: real time    191.7787
       DOS:  cpu time      0.0020: real time      0.0020
    CHARGE:  cpu time     23.5523: real time     23.5741
    MIXING:  cpu time      0.0443: real time      0.0453
    --------------------------------------------
      LOOP:  cpu time    260.0068: real time    260.1863

 eigenvalue-minimisations  :  1912
 total energy-change (2. order) :-0.2443975E+00  (-0.8995756E-01)
 number of electron     361.9999999 magnetization 
 augmentation part      -19.6632791 magnetization 

 Broyden mixing:
  rms(total) = 0.70034E-01    rms(broyden)= 0.70033E-01
  rms(prec ) = 0.85470E-01
  weight for this iteration     100.00

 eigenvalues of (default mixing * dielectric matrix)
  average eigenvalue GAMMA=   1.4076
  2.5554  1.0893  0.5780

 Free energy of the ion-electron system (eV)
  ---------------------------------------------------
  alpha Z        PSCENC =        45.24287686
  Ewald energy   TEWEN  =     59206.99400001
  -Hartree energ DENC   =    -67278.15978868
  -exchange      EXHF   =         0.00000000
  -V(xc)+E(xc)   XCENC  =      -396.46237022
  PAW double counting   =     54384.97421423   -53508.17792536
  entropy T*S    EENTRO =        -0.16852778
  eigenvalues    EBANDS =     -2512.05893048
  atomic energy  EATOM  =      9194.76516920
  Solvation  Ediel_sol  =         0.00000000
  ---------------------------------------------------
  free energy    TOTEN  =      -863.05128222 eV

  energy without entropy =     -862.88275444  energy(sigma->0) =     -862.96701833


--------------------------------------------------------------------------------------------------------




--------------------------------------- Iteration      1(   5)  ---------------------------------------


    POTLOK:  cpu time      2.2641: real time      2.2933
    SETDIJ:  cpu time      1.7390: real time      1.7400
    EDDIAG:  cpu time     40.7546: real time     40.7805
     EDDAV:  cpu time    205.3648: real time    205.4863
       DOS:  cpu time      0.0020: real time      0.0020
    CHARGE:  cpu time     23.5899: real time     23.6103
    MIXING:  cpu time      0.0438: real time      0.0438
    --------------------------------------------
      LOOP:  cpu time    273.7583: real time    273.9563

 eigenvalue-minimisations  :  2152
 total energy-change (2. order) :-0.2506078E-01  (-0.1163082E-01)
 number of electron     361.9999999 magnetization 
 augmentation part      -19.6630163 magnetization 

 Broyden mixing:
  rms(total) = 0.41022E-01    rms(broyden)= 0.41022E-01
  rms(prec ) = 0.46379E-01
  weight for this iteration     100.00

 eigenvalues of (default mixing * dielectric matrix)
  average eigenvalue GAMMA=   1.2844
  2.5195  1.3238  0.6471  0.6471

 Free energy of the ion-electron system (eV)
  ---------------------------------------------------
  alpha Z        PSCENC =        45.24287686
  Ewald energy   TEWEN  =     59206.99400001
  -Hartree energ DENC   =    -67280.32128241
  -exchange      EXHF   =         0.00000000
  -V(xc)+E(xc)   XCENC  =      -397.32034352
  PAW double counting   =     54153.09093112   -53276.27386622
  entropy T*S    EENTRO =        -0.17307571
  eigenvalues    EBANDS =     -2509.08075232
  atomic energy  EATOM  =      9194.76516920
  Solvation  Ediel_sol  =         0.00000000
  ---------------------------------------------------
  free energy    TOTEN  =      -863.07634300 eV

  energy without entropy =     -862.90326729  energy(sigma->0) =     -862.98980515


--------------------------------------------------------------------------------------------------------




--------------------------------------- Iteration      1(   6)  ---------------------------------------


    POTLOK:  cpu time      2.2826: real time      2.2930
    SETDIJ:  cpu time      1.7354: real time      1.7364
    EDDIAG:  cpu time     40.7519: real time     40.7771
     EDDAV:  cpu time    207.3905: real time    207.5163
       DOS:  cpu time      0.0021: real time      0.0021
    CHARGE:  cpu time     23.5601: real time     23.5807
    MIXING:  cpu time      0.0445: real time      0.0445
    --------------------------------------------
      LOOP:  cpu time    275.7669: real time    275.9499

 eigenvalue-minimisations  :  2184
 total energy-change (2. order) :-0.1860134E-02  (-0.2104618E-02)
 number of electron     361.9999999 magnetization 
 augmentation part      -19.6622920 magnetization 

 Broyden mixing:
  rms(total) = 0.30370E-01    rms(broyden)= 0.30370E-01
  rms(prec ) = 0.34324E-01
  weight for this iteration     100.00

 eigenvalues of (default mixing * dielectric matrix)
  average eigenvalue GAMMA=   1.3303
  2.3469  2.3469  0.8812  0.5384  0.5384

 Free energy of the ion-electron system (eV)
  ---------------------------------------------------
  alpha Z        PSCENC =        45.24287686
  Ewald energy   TEWEN  =     59206.99400001
  -Hartree energ DENC   =    -67280.37167980
  -exchange      EXHF   =         0.00000000
  -V(xc)+E(xc)   XCENC  =      -397.52176372
  PAW double counting   =     54110.98298759   -53234.15280512
  entropy T*S    EENTRO =        -0.17136095
  eigenvalues    EBANDS =     -2508.84562720
  atomic energy  EATOM  =      9194.76516920
  Solvation  Ediel_sol  =         0.00000000
  ---------------------------------------------------
  free energy    TOTEN  =      -863.07820314 eV

  energy without entropy =     -862.90684218  energy(sigma->0) =     -862.99252266


--------------------------------------------------------------------------------------------------------




--------------------------------------- Iteration      1(   7)  ---------------------------------------


    POTLOK:  cpu time      2.2607: real time      2.2902
    SETDIJ:  cpu time      1.7313: real time      1.7322
    EDDIAG:  cpu time     40.7524: real time     40.7756
     EDDAV:  cpu time    204.1425: real time    204.2606
       DOS:  cpu time      0.0074: real time      0.0074
    CHARGE:  cpu time     23.6095: real time     23.6309
    MIXING:  cpu time      0.0448: real time      0.0448
    --------------------------------------------
      LOOP:  cpu time    272.5487: real time    272.7418

 eigenvalue-minimisations  :  2128
 total energy-change (2. order) :-0.1731235E-02  (-0.1019668E-02)
 number of electron     361.9999999 magnetization 
 augmentation part      -19.6601650 magnetization 

 Broyden mixing:
  rms(total) = 0.18644E-01    rms(broyden)= 0.18644E-01
  rms(prec ) = 0.23751E-01
  weight for this iteration     100.00

 eigenvalues of (default mixing * dielectric matrix)
  average eigenvalue GAMMA=   1.3254
  2.6796  2.6796  0.9413  0.6939  0.5733  0.3850

 Free energy of the ion-electron system (eV)
  ---------------------------------------------------
  alpha Z        PSCENC =        45.24287686
  Ewald energy   TEWEN  =     59206.99400001
  -Hartree energ DENC   =    -67280.58532575
  -exchange      EXHF   =         0.00000000
  -V(xc)+E(xc)   XCENC  =      -397.35843835
  PAW double counting   =     54078.83089154   -53201.98374063
  entropy T*S    EENTRO =        -0.17187615
  eigenvalues    EBANDS =     -2508.81349110
  atomic energy  EATOM  =      9194.76516920
  Solvation  Ediel_sol  =         0.00000000
  ---------------------------------------------------
  free energy    TOTEN  =      -863.07993437 eV

  energy without entropy =     -862.90805822  energy(sigma->0) =     -862.99399630


--------------------------------------------------------------------------------------------------------




--------------------------------------- Iteration      1(   8)  ---------------------------------------


    POTLOK:  cpu time      2.2889: real time      2.2906
    SETDIJ:  cpu time      1.7342: real time      1.7357
    EDDIAG:  cpu time     40.7898: real time     40.8145
     EDDAV:  cpu time    196.7806: real time    196.8913
       DOS:  cpu time      0.0045: real time      0.0045
    CHARGE:  cpu time     23.6034: real time     23.6265
    MIXING:  cpu time      0.0458: real time      0.0458
    --------------------------------------------
      LOOP:  cpu time    265.2472: real time    265.4088

 eigenvalue-minimisations  :  2000
 total energy-change (2. order) :-0.5180027E-03  (-0.6988796E-03)
 number of electron     361.9999999 magnetization 
 augmentation part      -19.6578576 magnetization 

 Broyden mixing:
  rms(total) = 0.62698E-02    rms(broyden)= 0.62697E-02
  rms(prec ) = 0.81961E-02
  weight for this iteration     100.00

 eigenvalues of (default mixing * dielectric matrix)
  average eigenvalue GAMMA=   1.2576
  2.6281  2.6281  1.0232  0.9057  0.6363  0.6363  0.3457

 Free energy of the ion-electron system (eV)
  ---------------------------------------------------
  alpha Z        PSCENC =        45.24287686
  Ewald energy   TEWEN  =     59206.99400001
  -Hartree energ DENC   =    -67280.51926595
  -exchange      EXHF   =         0.00000000
  -V(xc)+E(xc)   XCENC  =      -397.13295060
  PAW double counting   =     54089.15606117   -53212.29076398
  entropy T*S    EENTRO =        -0.17123630
  eigenvalues    EBANDS =     -2509.12434278
  atomic energy  EATOM  =      9194.76516920
  Solvation  Ediel_sol  =         0.00000000
  ---------------------------------------------------
  free energy    TOTEN  =      -863.08045237 eV

  energy without entropy =     -862.90921607  energy(sigma->0) =     -862.99483422


--------------------------------------------------------------------------------------------------------




--------------------------------------- Iteration      1(   9)  ---------------------------------------


    POTLOK:  cpu time      2.2694: real time      2.2928
    SETDIJ:  cpu time      1.7308: real time      1.7318
    EDDIAG:  cpu time     40.7804: real time     40.8070
     EDDAV:  cpu time    194.0226: real time    194.1326
       DOS:  cpu time      0.0045: real time      0.0045
    CHARGE:  cpu time     23.6025: real time     23.6246
    MIXING:  cpu time      0.0466: real time      0.0466
    --------------------------------------------
      LOOP:  cpu time    262.4568: real time    262.6399

 eigenvalue-minimisations  :  1952
 total energy-change (2. order) : 0.1005701E-03  (-0.2059049E-03)
 number of electron     361.9999999 magnetization 
 augmentation part      -19.6584587 magnetization 

 Broyden mixing:
  rms(total) = 0.30842E-02    rms(broyden)= 0.30842E-02
  rms(prec ) = 0.35201E-02
  weight for this iteration     100.00

 eigenvalues of (default mixing * dielectric matrix)
  average eigenvalue GAMMA=   1.2216
  2.5975  2.5975  1.3864  0.9820  0.6570  0.6032  0.6032  0.3460

 Free energy of the ion-electron system (eV)
  ---------------------------------------------------
  alpha Z        PSCENC =        45.24287686
  Ewald energy   TEWEN  =     59206.99400001
  -Hartree energ DENC   =    -67280.37757918
  -exchange      EXHF   =         0.00000000
  -V(xc)+E(xc)   XCENC  =      -397.18445839
  PAW double counting   =     54123.71292217   -53246.84448914
  entropy T*S    EENTRO =        -0.17169342
  eigenvalues    EBANDS =     -2509.21709991
  atomic energy  EATOM  =      9194.76516920
  Solvation  Ediel_sol  =         0.00000000
  ---------------------------------------------------
  free energy    TOTEN  =      -863.08035180 eV

  energy without entropy =     -862.90865838  energy(sigma->0) =     -862.99450509


--------------------------------------------------------------------------------------------------------




--------------------------------------- Iteration      1(  10)  ---------------------------------------


    POTLOK:  cpu time      2.2891: real time      2.2917
    SETDIJ:  cpu time      1.7257: real time      1.7264
    EDDIAG:  cpu time     40.7951: real time     40.8198
     EDDAV:  cpu time    197.0546: real time    197.1650
       DOS:  cpu time      0.0067: real time      0.0067
    CHARGE:  cpu time     23.5838: real time     23.6071
    MIXING:  cpu time      0.0474: real time      0.0474
    --------------------------------------------
      LOOP:  cpu time    265.5024: real time    265.6641

 eigenvalue-minimisations  :  2008
 total energy-change (2. order) : 0.1561254E-04  (-0.4677174E-04)
 number of electron     361.9999999 magnetization 
 augmentation part      -19.6585522 magnetization 

 Broyden mixing:
  rms(total) = 0.18969E-02    rms(broyden)= 0.18969E-02
  rms(prec ) = 0.21485E-02
  weight for this iteration     100.00

 eigenvalues of (default mixing * dielectric matrix)
  average eigenvalue GAMMA=   1.2664
  2.7062  2.7062  1.8917  1.0123  0.7819  0.7819  0.5853  0.5853  0.3465

 Free energy of the ion-electron system (eV)
  ---------------------------------------------------
  alpha Z        PSCENC =        45.24287686
  Ewald energy   TEWEN  =     59206.99400001
  -Hartree energ DENC   =    -67280.11861694
  -exchange      EXHF   =         0.00000000
  -V(xc)+E(xc)   XCENC  =      -397.20692203
  PAW double counting   =     54123.93708384   -53247.06692152
  entropy T*S    EENTRO =        -0.17171814
  eigenvalues    EBANDS =     -2509.45528748
  atomic energy  EATOM  =      9194.76516920
  Solvation  Ediel_sol  =         0.00000000
  ---------------------------------------------------
  free energy    TOTEN  =      -863.08033619 eV

  energy without entropy =     -862.90861806  energy(sigma->0) =     -862.99447712


--------------------------------------------------------------------------------------------------------




--------------------------------------- Iteration      1(  11)  ---------------------------------------


    POTLOK:  cpu time      2.2615: real time      2.2883
    SETDIJ:  cpu time      1.7348: real time      1.7360
    EDDIAG:  cpu time     40.7841: real time     40.8119
     EDDAV:  cpu time    195.2650: real time    195.3665
       DOS:  cpu time      0.0025: real time      0.0025
    CHARGE:  cpu time     23.5985: real time     23.6200
    MIXING:  cpu time      0.0480: real time      0.0483
    --------------------------------------------
      LOOP:  cpu time    263.6944: real time    263.8735

 eigenvalue-minimisations  :  1976
 total energy-change (2. order) :-0.3577259E-04  (-0.2637847E-04)
 number of electron     361.9999999 magnetization 
 augmentation part      -19.6586530 magnetization 

 Broyden mixing:
  rms(total) = 0.93260E-03    rms(broyden)= 0.93259E-03
  rms(prec ) = 0.11435E-02
  weight for this iteration     100.00

 eigenvalues of (default mixing * dielectric matrix)
  average eigenvalue GAMMA=   1.2794
  2.8656  2.8656  2.0942  1.0936  0.8292  0.8292  0.6508  0.6508  0.5685  0.3465

 Free energy of the ion-electron system (eV)
  ---------------------------------------------------
  alpha Z        PSCENC =        45.24287686
  Ewald energy   TEWEN  =     59206.99400001
  -Hartree energ DENC   =    -67279.83582062
  -exchange      EXHF   =         0.00000000
  -V(xc)+E(xc)   XCENC  =      -397.21116369
  PAW double counting   =     54116.22315614   -53239.35098322
  entropy T*S    EENTRO =        -0.17166982
  eigenvalues    EBANDS =     -2509.73593683
  atomic energy  EATOM  =      9194.76516920
  Solvation  Ediel_sol  =         0.00000000
  ---------------------------------------------------
  free energy    TOTEN  =      -863.08037196 eV

  energy without entropy =     -862.90870214  energy(sigma->0) =     -862.99453705


--------------------------------------------------------------------------------------------------------




--------------------------------------- Iteration      1(  12)  ---------------------------------------


    POTLOK:  cpu time      2.2890: real time      2.2906
    SETDIJ:  cpu time      1.7352: real time      1.7365
    EDDIAG:  cpu time     40.8092: real time     40.8340
     EDDAV:  cpu time    194.9630: real time    195.0664
       DOS:  cpu time      0.0082: real time      0.0087
    CHARGE:  cpu time     23.6093: real time     23.6311
    MIXING:  cpu time      0.0653: real time      0.0654
    --------------------------------------------
      LOOP:  cpu time    263.4799: real time    263.6334

 eigenvalue-minimisations  :  1968
 total energy-change (2. order) :-0.6420592E-04  (-0.1785483E-04)
 number of electron     361.9999999 magnetization 
 augmentation part      -19.6587046 magnetization 

 Broyden mixing:
  rms(total) = 0.50131E-03    rms(broyden)= 0.50131E-03
  rms(prec ) = 0.68481E-03
  weight for this iteration     100.00

 eigenvalues of (default mixing * dielectric matrix)
  average eigenvalue GAMMA=   1.2712
  2.8746  2.8746  2.1183  1.3495  0.9561  0.8408  0.8408  0.3464  0.6068  0.6068
  0.5687

 Free energy of the ion-electron system (eV)
  ---------------------------------------------------
  alpha Z        PSCENC =        45.24287686
  Ewald energy   TEWEN  =     59206.99400001
  -Hartree energ DENC   =    -67279.60430605
  -exchange      EXHF   =         0.00000000
  -V(xc)+E(xc)   XCENC  =      -397.21652560
  PAW double counting   =     54112.14653759   -53235.27342543
  entropy T*S    EENTRO =        -0.17164125
  eigenvalues    EBANDS =     -2509.96312149
  atomic energy  EATOM  =      9194.76516920
  Solvation  Ediel_sol  =         0.00000000
  ---------------------------------------------------
  free energy    TOTEN  =      -863.08043617 eV

  energy without entropy =     -862.90879492  energy(sigma->0) =     -862.99461554


--------------------------------------------------------------------------------------------------------




--------------------------------------- Iteration      1(  13)  ---------------------------------------


    POTLOK:  cpu time      2.2700: real time      2.2937
    SETDIJ:  cpu time      1.7684: real time      1.7704
    EDDIAG:  cpu time     40.7685: real time     40.7953
     EDDAV:  cpu time    192.4013: real time    192.5139
       DOS:  cpu time      0.0025: real time      0.0025
    CHARGE:  cpu time     23.5799: real time     23.6004
    MIXING:  cpu time      0.0499: real time      0.0499
    --------------------------------------------
      LOOP:  cpu time    260.8398: real time    261.0252

 eigenvalue-minimisations  :  1920
 total energy-change (2. order) :-0.6583557E-04  (-0.1080784E-04)
 number of electron     361.9999999 magnetization 
 augmentation part      -19.6587353 magnetization 

 Broyden mixing:
  rms(total) = 0.34586E-03    rms(broyden)= 0.34586E-03
  rms(prec ) = 0.48825E-03
  weight for this iteration     100.00

 eigenvalues of (default mixing * dielectric matrix)
  average eigenvalue GAMMA=   1.2827
  3.0682  2.7765  2.2294  1.7858  0.9830  0.8928  0.8928  0.3464  0.6566  0.6566
  0.5519  0.5519

 Free energy of the ion-electron system (eV)
  ---------------------------------------------------
  alpha Z        PSCENC =        45.24287686
  Ewald energy   TEWEN  =     59206.99400001
  -Hartree energ DENC   =    -67279.48461708
  -exchange      EXHF   =         0.00000000
  -V(xc)+E(xc)   XCENC  =      -397.22179365
  PAW double counting   =     54113.20288312   -53236.33000985
  entropy T*S    EENTRO =        -0.17166530
  eigenvalues    EBANDS =     -2510.07734532
  atomic energy  EATOM  =      9194.76516920
  Solvation  Ediel_sol  =         0.00000000
  ---------------------------------------------------
  free energy    TOTEN  =      -863.08050201 eV

  energy without entropy =     -862.90883670  energy(sigma->0) =     -862.99466935


--------------------------------------------------------------------------------------------------------




--------------------------------------- Iteration      1(  14)  ---------------------------------------


    POTLOK:  cpu time      2.2887: real time      2.2906
    SETDIJ:  cpu time      1.7340: real time      1.7347
    EDDIAG:  cpu time     40.7840: real time     40.8097
     EDDAV:  cpu time    192.2169: real time    192.3274
       DOS:  cpu time      0.0045: real time      0.0045
    CHARGE:  cpu time     23.5730: real time     23.5931
    MIXING:  cpu time      0.0509: real time      0.0509
    --------------------------------------------
      LOOP:  cpu time    260.6520: real time    260.8109

 eigenvalue-minimisations  :  1920
 total energy-change (2. order) :-0.7023952E-04  (-0.1581892E-04)
 number of electron     361.9999999 magnetization 
 augmentation part      -19.6587666 magnetization 

 Broyden mixing:
  rms(total) = 0.21279E-03    rms(broyden)= 0.21279E-03
  rms(prec ) = 0.33401E-03
  weight for this iteration     100.00

 eigenvalues of (default mixing * dielectric matrix)
  average eigenvalue GAMMA=   1.3135
  3.4045  2.7532  2.4711  1.8787  1.0627  1.0627  0.8519  0.8519  0.3464  0.6379
  0.6379  0.5674  0.5488

 Free energy of the ion-electron system (eV)
  ---------------------------------------------------
  alpha Z        PSCENC =        45.24287686
  Ewald energy   TEWEN  =     59206.99400001
  -Hartree energ DENC   =    -67279.33774501
  -exchange      EXHF   =         0.00000000
  -V(xc)+E(xc)   XCENC  =      -397.22628428
  PAW double counting   =     54113.54559559   -53236.67303383
  entropy T*S    EENTRO =        -0.17165478
  eigenvalues    EBANDS =     -2510.21949601
  atomic energy  EATOM  =      9194.76516920
  Solvation  Ediel_sol  =         0.00000000
  ---------------------------------------------------
  free energy    TOTEN  =      -863.08057224 eV

  energy without entropy =     -862.90891746  energy(sigma->0) =     -862.99474485


--------------------------------------------------------------------------------------------------------




--------------------------------------- Iteration      1(  15)  ---------------------------------------


    POTLOK:  cpu time      2.2644: real time      2.2903
    SETDIJ:  cpu time      1.7390: real time      1.7396
    EDDIAG:  cpu time     40.7778: real time     40.8001
     EDDAV:  cpu time    192.1782: real time    192.2844
       DOS:  cpu time      0.0141: real time      0.0145
    CHARGE:  cpu time     23.5936: real time     23.6170
    MIXING:  cpu time      0.0688: real time      0.0693
    --------------------------------------------
      LOOP:  cpu time    260.6360: real time    260.8152

 eigenvalue-minimisations  :  1920
 total energy-change (2. order) :-0.9322409E-04  (-0.1919918E-04)
 number of electron     361.9999999 magnetization 
 augmentation part      -19.6587943 magnetization 

 Broyden mixing:
  rms(total) = 0.14406E-03    rms(broyden)= 0.14406E-03
  rms(prec ) = 0.22953E-03
  weight for this iteration     100.00

 eigenvalues of (default mixing * dielectric matrix)
  average eigenvalue GAMMA=   1.3456
  3.6914  2.7196  2.7196  1.9484  1.4937  1.0407  0.8718  0.8718  0.3464  0.6799
  0.6799  0.6170  0.6170  0.5412

 Free energy of the ion-electron system (eV)
  ---------------------------------------------------
  alpha Z        PSCENC =        45.24287686
  Ewald energy   TEWEN  =     59206.99400001
  -Hartree energ DENC   =    -67279.17647267
  -exchange      EXHF   =         0.00000000
  -V(xc)+E(xc)   XCENC  =      -397.22921171
  PAW double counting   =     54113.24377472   -53236.37143718
  entropy T*S    EENTRO =        -0.17165788
  eigenvalues    EBANDS =     -2510.37770681
  atomic energy  EATOM  =      9194.76516920
  Solvation  Ediel_sol  =         0.00000000
  ---------------------------------------------------
  free energy    TOTEN  =      -863.08066547 eV

  energy without entropy =     -862.90900759  energy(sigma->0) =     -862.99483653


[...]
   -.732E+01 -.267E+02 -.132E+01   0.797E+01 0.267E+02 0.149E+01   -.637E+00 -.879E-01 -.243E+00   -.595E-04 -.148E-04 -.126E-04
   0.306E+02 0.167E+02 -.265E+03   -.302E+02 -.145E+02 0.266E+03   -.220E+00 -.217E+01 -.112E+01   0.448E-04 0.276E-04 0.278E-04
   -.776E+00 -.248E+02 0.995E+02   -.613E+00 0.250E+02 -.987E+02   0.114E+01 -.164E+00 -.865E+00   0.145E-04 -.810E-05 0.394E-05
   0.704E+01 -.118E+02 -.264E+03   -.770E+01 0.116E+02 0.262E+03   0.820E+00 0.380E+00 0.133E+01   0.746E-06 -.391E-05 0.821E-05
   -.210E+02 0.124E+02 0.226E+03   0.193E+02 -.115E+02 -.226E+03   0.172E+01 -.741E+00 -.402E+00   -.343E-04 -.253E-04 -.150E-04
   -.208E+02 -.494E+01 0.175E+02   0.193E+02 0.461E+01 -.166E+02   0.154E+01 0.933E-01 -.857E+00   -.288E-04 -.115E-06 0.954E-05
   -.162E+02 -.459E+01 0.219E+03   0.160E+02 0.463E+01 -.219E+03   0.159E+00 0.856E-01 -.245E+00   -.418E-04 0.471E-05 -.109E-04
   -.108E+02 0.474E+01 0.332E+03   0.103E+02 -.482E+01 -.332E+03   0.408E+00 0.148E+00 0.170E+00   0.381E-04 0.609E-05 -.526E-04
   0.165E+02 0.623E+01 -.311E+03   -.158E+02 -.741E+01 0.308E+03   -.795E+00 0.121E+01 0.320E+01   0.323E-04 -.177E-04 0.243E-04
   0.891E+01 -.126E+02 -.262E+03   -.993E+01 0.130E+02 0.263E+03   0.977E+00 -.510E+00 -.307E+00   0.756E-05 -.223E-05 0.208E-04
   -.448E+02 0.904E+01 -.320E+03   0.424E+02 -.811E+01 0.318E+03   0.232E+01 -.567E+00 0.157E+01   -.301E-04 -.377E-05 0.451E-05
   0.100E+01 0.346E+01 0.303E+03   -.146E+01 -.323E+01 -.301E+03   0.348E+00 -.541E+00 -.242E+01   0.310E-04 -.302E-04 -.732E-05
   -.393E+02 0.108E+02 -.513E+02   0.389E+02 -.100E+02 0.519E+02   0.296E+00 -.846E+00 -.700E+00   -.328E-04 0.941E-05 0.108E-04
   0.306E+02 -.782E+01 -.270E+03   -.304E+02 0.955E+01 0.270E+03   -.156E+00 -.186E+01 0.540E+00   0.222E-04 0.858E-05 0.299E-04
   0.144E+01 -.185E+02 -.145E+03   -.108E+01 0.187E+02 0.146E+03   -.180E+00 -.765E-01 -.994E+00   0.954E-06 -.275E-04 -.376E-05
   -.167E+02 -.507E+01 0.366E+03   0.174E+02 0.694E+01 -.372E+03   -.674E+00 -.138E+01 0.448E+01   0.708E-05 0.249E-04 -.560E-04
   0.177E+02 -.102E+02 0.237E+03   -.193E+02 0.817E+01 -.236E+03   0.103E+01 0.191E+01 -.120E+01   0.611E-05 0.220E-04 0.152E-04
   -.125E+02 0.121E+02 -.355E+03   0.131E+02 -.122E+02 0.359E+03   -.162E+00 0.279E+00 -.332E+01   0.612E-05 -.136E-04 0.439E-04
   0.226E+02 0.752E+01 0.164E+03   -.218E+02 -.540E+01 -.162E+03   -.701E+00 -.205E+01 -.135E+01   0.433E-04 0.171E-04 -.103E-04
   -.698E+01 0.603E+00 0.146E+03   0.726E+01 -.931E+00 -.146E+03   -.286E+00 0.477E+00 0.520E+00   0.697E-05 -.561E-05 0.530E-05
   -.328E+02 -.373E+02 0.344E+03   0.319E+02 0.357E+02 -.343E+03   0.392E+00 0.136E+01 -.122E+01   -.282E-04 0.307E-04 0.112E-04
   -.152E+02 0.258E+02 -.906E+02   0.146E+02 -.257E+02 0.916E+02   0.468E+00 0.193E-02 -.100E+01   -.260E-04 0.901E-05 0.244E-04
   0.383E+02 0.110E+01 -.180E+03   -.384E+02 -.106E+01 0.181E+03   0.153E+00 0.325E-01 -.931E+00   0.129E-04 0.233E-04 0.248E-04
   0.362E+02 0.243E+02 -.917E+02   -.344E+02 -.234E+02 0.918E+02   -.177E+01 -.879E+00 -.106E+00   -.760E-06 0.189E-04 0.170E-04
   -.135E+01 -.187E+02 0.244E+03   0.309E+00 0.186E+02 -.243E+03   0.913E+00 -.704E-01 -.189E+01   -.836E-04 -.448E-05 -.934E-05
   -.191E+02 0.117E+01 -.193E+03   0.198E+02 -.163E+01 0.194E+03   -.775E+00 0.381E+00 -.127E+01   -.166E-04 -.160E-04 0.888E-05
   0.159E+02 -.782E+01 0.273E+03   -.181E+02 0.772E+01 -.270E+03   0.178E+01 0.617E+00 -.242E+01   0.201E-04 0.730E-05 -.205E-04
   0.556E+01 -.140E+01 0.233E+03   -.615E+01 0.302E+01 -.232E+03   0.553E+00 -.163E+01 -.806E+00   0.765E-05 0.353E-04 -.145E-04
   -.210E+02 0.268E+01 0.220E+03   0.203E+02 -.401E+01 -.219E+03   0.901E+00 0.117E+01 -.160E+00   0.519E-04 -.294E-04 -.295E-04
   -.181E+02 0.131E+02 -.359E+00   0.180E+02 -.122E+02 -.193E+00   0.404E-01 -.101E+01 0.350E+00   0.244E-04 -.205E-04 0.860E-05
   -.366E+01 0.146E+01 -.106E+02   0.294E+01 -.122E+01 0.115E+02   0.585E+00 -.364E+00 -.576E+00   -.546E-04 -.257E-04 0.137E-04
   -.252E+02 0.204E+02 -.302E+03   0.263E+02 -.207E+02 0.299E+03   -.107E+01 0.763E-01 0.351E+01   -.123E-04 0.760E-05 0.811E-05
   0.110E+02 0.284E+02 0.125E+01   -.107E+02 -.279E+02 -.114E+01   -.198E+00 -.562E+00 -.275E+00   0.540E-04 0.491E-06 0.387E-05
   0.194E+02 -.166E+02 0.244E+03   -.157E+02 0.178E+02 -.243E+03   -.328E+01 -.128E+01 -.829E+00   0.202E-05 0.125E-04 0.244E-05
   -.866E+01 -.288E+01 0.297E+03   0.939E+01 0.412E+01 -.298E+03   -.819E+00 -.853E+00 0.872E+00   -.362E-04 -.261E-04 -.310E-04
   0.317E+02 -.231E+02 0.372E+03   -.288E+02 0.215E+02 -.370E+03   -.269E+01 0.151E+01 -.206E+01   -.112E-04 0.282E-04 0.474E-06
   -.174E+02 -.827E+01 -.383E+03   0.176E+02 0.713E+01 0.386E+03   0.489E-02 0.883E+00 -.263E+01   -.100E-04 0.136E-04 -.132E-04
 -----------------------------------------------------------------------------------------------
   0.514E+01 0.263E+01 0.982E+01   0.888E-13 -.163E-12 0.284E-12   -.515E+01 -.263E+01 -.984E+01   0.620E-04 -.399E-04 0.500E-03


 POSITION                                       TOTAL-FORCE (eV/Angst)
 -----------------------------------------------------------------------------------
     11.28069      3.93591     18.75522         0.319215     -0.423092      0.263442
      3.62851      0.05079     12.32213        -0.039228     -0.107594     -0.059442
      8.76760     12.87506     11.00177         0.116084     -0.054428      0.138287
      6.34789      5.93242     19.72175         0.061178     -0.101770      0.142082
      8.90169      2.55817     18.78094        -0.097344      0.182557     -0.072064
      2.78247      8.62698     13.07394         0.144026      0.125688      0.096070
     11.74377      3.30015     18.91694        -0.151295      0.194716      0.046863
      6.87064      6.64912     10.14016        -0.155702     -0.031505     -0.058910
      0.90142      9.60715     11.95841         0.030656     -0.037496      0.058185
      4.95240      6.29768     15.93186         0.060493     -0.140531     -0.561382
      3.44162     13.83561     17.22282        -0.103705     -0.082435     -0.207285
      7.18525      2.80838     11.36718         0.498750     -0.382553      0.117355
      6.94508      1.25617     16.80079        -0.140000     -0.414213      0.088098
      1.52536     12.62748     17.53982        -0.043600     -0.228458      0.167668
      0.95806     13.07560     13.78659        -0.026065     -0.212949     -0.046606
      0.68498      7.58244     16.23352         0.402369      0.217286     -0.038054
      5.81065      3.80803     14.66394         0.292607      0.250431     -0.039186
     10.56698     10.31394     11.51132        -0.278759      0.270103      0.101211
      2.32302      6.48012     17.49317        -0.323826     -0.023030      0.434587
     14.23337      9.34199     12.79910         0.117597      0.070286     -0.011644
      8.90199     12.68661     16.22879        -0.112819      0.293525     -0.341351
      5.02453      2.49719     16.43418        -0.322972     -0.229824     -0.170596
      9.82438      9.08240     17.53220        -0.009493     -0.178713      0.159778
      5.01824     11.63351     13.56718         0.027207     -0.057133     -0.102605
      8.32565      4.65957     12.19586        -0.113527      0.264094      0.253346
      6.74179      8.46119     14.72075        -0.100363      0.120073      0.048183
     11.56037      3.33538     14.73088        -0.002082      0.006902      0.104059
      9.65429     12.94516     14.02487         0.096560      0.025673     -0.169058
      2.18327      4.15591     17.00583         0.007601      0.027168     -0.071623
      4.41280     10.84803     11.52551         0.008193     -0.172645      0.116872
      6.76728     11.20516     11.89054        -0.502890     -0.143383      0.260654
     11.03155      1.07986     11.74452        -0.021594      0.158958     -0.287955
      6.14423     10.57884     18.08404         0.077083     -0.336624      0.292659
      7.32988      6.69965     11.55072         0.365987     -0.084836     -0.167262
      3.58984      0.81543     15.44318         0.257527      0.314725     -0.105999
     13.29270      4.54943     15.70374         0.053062     -0.338075     -0.054498
     12.05909      1.18903     15.33676         0.134175      0.106749     -0.161547
      4.55575      5.73625     14.43546         0.060193      0.000456      0.082712
     10.89621      9.41782     15.44223        -0.053245     -0.013233     -0.293857
      8.33487      6.85443     15.31681         0.005008     -0.066543     -0.060973
     13.94063      3.62145     12.56885         0.046858      0.310680      0.090822
      6.47818      6.87795     18.59606        -0.322848      0.034938     -0.031616
     12.71407     11.02913     12.28111        -0.033035     -0.194812     -0.026341
     14.32432      1.17457     15.88309        -0.230065      0.485686     -0.169887
     12.90873     10.15811     16.33249         0.114537     -0.112591     -0.316409
      3.40949      7.06657     10.35128         0.287676     -0.118125     -0.332948
     10.74584     13.09116     17.55361         0.262355     -0.121943      0.159817
      2.25405      5.58301     11.60612         0.039788      0.217720      0.261110
      5.22356      2.71000     12.68698        -0.245926     -0.073505      0.142930
     13.61286     12.51785     10.73377        -0.038575      0.247077      0.231167
     11.49488     14.30852     13.61780        -0.125394     -0.195273      0.099375
      7.95821      9.74292     13.26093        -0.107944      0.140125      0.224354
      9.61321      3.77879     15.96299        -0.244174      0.191251     -0.270568
     13.12011     12.69992     13.93893         0.130355      0.014694     -0.170502
      1.27396     12.93676     11.41812         0.653895     -0.420535      0.171084
     12.09136      9.39266     18.41346         0.103431      0.250986      0.666117
     14.49146      3.12905     17.13671         0.021178      0.149472     -0.028719
     10.15831      5.27790     17.67381        -0.131768      0.345855      0.001605
      9.97758     10.70577     13.73485         0.092712     -0.053869     -0.320816
     12.62611     12.47184     16.30420        -0.081236      0.033323      0.264898
     11.09272      0.81380     17.41413        -0.176557      0.116218      0.015599
      0.42805      5.82700     14.65288        -0.012685     -0.122001     -0.082157
      9.05142      2.03464     17.39374         0.221521     -0.069036      0.213134
      6.25099     13.55737     13.68197        -0.221918      0.024967     -0.122534
      5.19164     12.40657     16.97616         0.203198      0.153352     -0.020972
      2.98103      3.59758     12.57269         0.055149      0.112986     -0.308595
      1.46385      0.78276     14.38977         0.049617     -0.232618      0.051014
      1.15647      2.12059     12.48247        -0.141004      0.133917      0.291403
     10.48730      4.94344     11.46035        -0.042442      0.067423     -0.335987
      8.59120      7.02815     17.61603        -0.166498      0.095670     -0.016327
      8.24903     10.69763     17.20019         0.044145     -0.158877      0.164610
     13.31289      7.62386     17.59574        -0.066372      0.367199     -0.155051
      9.15529      8.29508     11.85479        -0.092513     -0.323683      0.149023
      0.33356      9.62258     15.12141        -0.171650     -0.077791     -0.111112
      4.56078      7.12999     17.29456         0.089370     -0.267654      0.205936
      6.84310     13.70256     15.95467         0.185797      0.113867      0.272540
      3.07539     12.15440     10.16557        -0.026593      0.346026     -0.614185
      3.87420      8.59882     12.04605        -0.526685     -0.057940      0.199409
      4.10219      3.68065     18.21049         0.327432      0.186148      0.358195
      5.57437      7.33855     13.03628         0.036353     -0.041526     -0.102149
      4.61304      0.56357     13.31868        -0.052844      0.165504      0.058672
      0.50539      0.54414     10.90599        -0.553871     -0.222683     -0.045139
      1.72206     11.51234     15.46110        -0.052851      0.106694     -0.099661
      5.24536      9.17651     16.41766         0.022209      0.088956     -0.294826
      4.02676     10.95622     15.50166         0.001297      0.017585      0.039801
      0.04477      5.82894     12.34905        -0.052850     -0.194326     -0.219618
     11.91402      6.20441     16.52801        -0.084242     -0.063871      0.009863
      8.63881      1.07146     11.75563        -0.288167      0.513242      0.122644
     11.68341      3.23336     12.40398         0.033618     -0.101999     -0.206709
     11.01511      6.96146     12.47525         0.179403     -0.091695      0.368652
     10.63607      7.21287     14.78507        -0.005813     -0.024515     -0.151806
      2.48271      4.70314     14.66930        -0.081623     -0.087934      0.258608
     14.18047     13.92133     17.34791        -0.027556     -0.216924      0.251757
      7.97216      4.66359     14.57170         0.054951     -0.014993     -0.160547
      8.13425     13.38732     12.28103         0.265711     -0.098151     -0.317454
     13.17090      7.54005     11.80402        -0.104795      0.273509     -0.198111
     12.83364      0.12772     10.46464         0.255453     -0.060291      0.168081
     13.23511      1.39155     18.42110         0.195420     -0.254236     -0.171685
 -----------------------------------------------------------------------------------
    total drift:                               -0.005913     -0.004806     -0.011077


--------------------------------------------------------------------------------------------------------



  FREE ENERGIE OF THE ION-ELECTRON SYSTEM (eV)
  ---------------------------------------------------
  free  energy   TOTEN  =      -863.08085220 eV

  energy  without entropy=     -862.90919563  energy(sigma->0) =     -862.99502391



--------------------------------------------------------------------------------------------------------


    POTLOK:  cpu time      3.9771: real time      3.9797


--------------------------------------------------------------------------------------------------------


     LOOP+:  cpu time   5944.9538: real time   5948.9967
    4ORBIT:  cpu time      0.0000: real time      0.0000



 total charge

# of ion       s       p       d       tot
------------------------------------------
    1        0.575   0.030   0.000   0.605
    2        0.567   0.016   0.000   0.582
    3        0.546   0.016   0.000   0.561
    4        0.563   0.017   0.000   0.580
    5        0.566   0.015   0.000   0.582
    6        0.563   0.015   0.000   0.578
    7        0.572   0.026   0.000   0.597
    8        0.567   0.016   0.000   0.582
    9        0.564   0.015   0.000   0.579
   10        0.580   0.019   0.000   0.599
   11        0.794   0.880   0.000   1.674
   12        0.781   0.875   0.000   1.657
   13        0.781   0.906   0.000   1.687
   14        0.792   0.891   0.000   1.683
   15        0.760   0.902   0.000   1.662
   16        0.755   0.924   0.000   1.679
   17        0.758   0.963   0.000   1.721
   18        0.828   0.795   0.000   1.623
   19        0.790   0.861   0.000   1.652
   20        0.745   0.961   0.000   1.705
   21        0.751   0.972   0.000   1.723
   22        0.761   0.930   0.000   1.691
   23        0.761   0.919   0.000   1.680
   24        0.762   0.968   0.000   1.731
   25        0.747   0.945   0.000   1.692
   26        0.760   0.958   0.000   1.718
   27        0.760   0.962   0.000   1.722
   28        0.760   0.964   0.000   1.724
   29        0.760   0.889   0.000   1.649
   30        0.760   0.934   0.000   1.694
   31        0.810   0.831   0.000   1.641
   32        0.749   0.918   0.000   1.667
   33        0.805   0.867   0.000   1.672
   34        0.745   0.944   0.000   1.689
   35        0.750   0.919   0.000   1.669
   36        0.758   0.952   0.000   1.709
   37        0.767   0.968   0.000   1.735
   38        0.776   0.904   0.000   1.680
   39        0.765   0.946   0.000   1.711
   40        0.757   0.942   0.000   1.699
   41        0.778   0.894   0.000   1.673
   42        0.764   0.906   0.000   1.671
   43        0.763   0.921   0.000   1.684
   44        0.757   0.976   0.000   1.733
   45        0.755   0.942   0.000   1.697
   46        0.860   0.771   0.000   1.630
   47        0.800   0.883   0.000   1.683
   48        0.787   0.886   0.000   1.673
   49        0.748   0.937   0.000   1.685
   50        0.808   0.844   0.000   1.652
   51        0.758   0.973   0.000   1.731
   52        0.769   0.946   0.000   1.715
   53        0.753   0.970   0.000   1.722
   54        0.769   0.901   0.000   1.670
   55        0.765   0.922   0.000   1.687
   56        0.839   0.795   0.000   1.634
   57        0.758   0.898   0.000   1.657
   58        0.808   0.878   0.000   1.686
   59        0.764   0.974   0.000   1.738
   60        0.764   0.914   0.000   1.677
   61        0.758   0.935   0.000   1.693
   62        0.772   0.913   0.000   1.686
   63        0.739   0.976   0.000   1.715
   64        0.779   0.935   0.000   1.714
   65        0.765   0.948   0.000   1.713
   66        0.757   0.906   0.000   1.663
   67        0.762   0.934   0.000   1.695
   68        0.751   0.953   0.000   1.703
   69        0.792   0.904   0.000   1.696
   70        0.751   0.936   0.000   1.687
   71        0.794   0.874   0.000   1.668
   72        0.795   0.895   0.000   1.689
   73        0.769   0.877   0.000   1.646
   74        0.757   0.919   0.000   1.677
   75        0.764   0.893   0.000   1.657
   76        0.753   0.977   0.000   1.730
   77        0.865   0.751   0.000   1.617
   78        0.747   0.953   0.000   1.700
   79        0.871   0.745   0.000   1.616
   80        0.751   0.946   0.000   1.696
   81        0.753   0.981   0.000   1.735
   82        0.800   0.855   0.000   1.655
   83        0.756   0.894   0.000   1.649
   84        0.759   0.924   0.000   1.683
   85        0.761   0.936   0.000   1.697
   86        0.754   0.957   0.000   1.710
   87        0.764   0.974   0.000   1.738
   88        0.786   0.859   0.000   1.645
   89        0.753   0.958   0.000   1.711
   90        0.753   0.931   0.000   1.683
   91        0.770   0.916   0.000   1.686
   92        0.764   0.912   0.000   1.675
   93        0.757   0.928   0.000   1.685
   94        0.750   0.952   0.000   1.702
   95        0.725   0.967   0.000   1.692
   96        0.788   0.899   0.000   1.686
   97        0.785   0.858   0.000   1.643
   98        0.828   0.750   0.000   1.578
--------------------------------------------------
tot         73.576  80.523   0.000 154.099


 total amount of memory used by VASP MPI-rank0   374720. kBytes
=======================================================================

   base                                    :      30000. kBytes
   nonl-proj                               :      75112. kBytes
   fftplans                                :     114276. kBytes
   grid                                    :      88184. kBytes
   one-center                              :         21. kBytes
   wavefun                                 :      67127. kBytes

  
  
 General timing and accounting informations for this job:
 ========================================================
  
                  Total CPU time used (sec):     6099.484
                            User time (sec):     5441.351
                          System time (sec):      658.133
                         Elapsed time (sec):     6103.510
  
                   Maximum memory used (kb):      637828.
                   Average memory used (kb):          N/A
  
                          Minor page faults:      6866305
                          Major page faults:         1174
                 Voluntary context switches:         2687
