 vasp.6.5.0 16Dec24 (build Jan 20 2025 08:32:48) complex                         
 executed on        HPECrayEX_GCC date 2025.07.25  15:16:50
 running   64 mpi-ranks, with    1 threads/rank, on    1 nodes
 distrk:  each k-point on   64 cores,    1 groups
 distr:  one band on NCORE=  16 cores,    4 groups


--------------------------------------------------------------------------------------------------------


 INCAR:
   SYSTEM = a-Si SPC
   NCORE = 16
   ISTART = 1
   ICHARG = 1
   ISPIN = 1
   ISYM = 1
   EDIFF = 1E-6
   NELM = 150
   EDIFFG = -0.01
   NSW = 0
   ISIF = 2
   IBRION = -1
   PREC = Accurate
   ENCUT = 1200
   KSPACING = 0.23
   KGAMMA = .TRUE.
   METAGGA = SCAN
   LASPH = .TRUE.
   LDIAG = .FALSE.
   LMIXTAU = .TRUE.
   ADDGRID = .TRUE.
   ALGO = Normal
   ISMEAR = 0
   SIGMA = 0.1
   LORBIT = 11
   NEDOS = 2000
   LWAVE = .FALSE.
   LCHARG = .FALSE.

 POTCAR:    PAW_PBE Si_GW 04May2012               
 POTCAR:    PAW_PBE H 15Jun2001                   
 POTCAR:    PAW_PBE Si_GW 04May2012               
   SHA256 =  9ee269d4247e69d62ab9db642b0c3f6e4981ddd1f39659ad08dec53e20e43eb1 Si_GW/POTCAR          
   COPYR  = (c) Copyright 04May2012 Georg Kresse                                                    
   COPYR  = This file is part of the software VASP. Any use, copying, and all other rights are regul
   COPYR  = If you do not have a valid VASP license, you may not use, copy or distribute this file. 
   VRHFIN =Si: s2p2                                                                                 
   LEXCH  = PE                                                                                      
   EATOM  =   103.0669 eV,    7.5752 Ry                                                             
                                                                                                    
   TITEL  = PAW_PBE Si_GW 04May2012                                                                 
   LULTRA =        F    use ultrasoft PP ?                                                          
   IUNSCR =        1    unscreen: 0-lin 1-nonlin 2-no                                               
   RPACOR =    1.500    partial core radius                                                         
   POMASS =   28.085; ZVAL   =    4.000    mass and valenz                                          
   RCORE  =    1.900    outmost cutoff radius                                                       
   RWIGS  =    2.480; RWIGS  =    1.312    wigner-seitz radius (au A)                               
   ENMAX  =  245.345; ENMIN  =  184.009 eV                                                          
   ICORE  =        3    local potential                                                             
   LCOR   =        T    correct aug charges                                                         
   LPAW   =        T    paw PP                                                                      
   EAUG   =  412.952                                                                                
   DEXC   =    0.000                                                                                
   RMAX   =    1.950    core radius for proj-oper                                                   
   RAUG   =    1.300    factor for augmentation sphere                                              
   RDEP   =    1.993    radius for radial grids                                                     
   RDEPT  =    2.000    core radius for aug-charge                                                  
                                                                                                    
   Atomic configuration                                                                             
    7 entries                                                                                       
     n  l   j            E        occ.                                                              
     1  0  0.50     -1785.8828   2.0000                                                             
     2  0  0.50      -139.4969   2.0000                                                             
     2  1  1.50       -95.5546   6.0000                                                             
     3  0  0.50       -10.8127   2.0000                                                             
     3  1  0.50        -4.0811   2.0000                                                             
     3  2  1.50        -4.0817   0.0000                                                             
     4  3  2.50        -4.0817   0.0000                                                             
   Description                                                                                      
     l       E           TYP  RCUT    TYP  RCUT                                                     
     0    -10.8127223     23  1.900                                                                 
     0     95.2407820     23  1.900                                                                 
     1     -4.0811372     23  1.900                                                                 
     1     54.4233040     23  1.900                                                                 
     2     -8.1634956     23  1.900                                                                 
     2     81.6349560     23  1.900                                                                 
     3     27.2116520     23  1.900                                                                 
  local pseudopotential read in
  partial core-charges read in
  partial kinetic energy density read in
  kinetic energy density of atom read in
  atomic valenz-charges read in
  non local Contribution for L=           0  read in
    real space projection operators read in
  non local Contribution for L=           0  read in
    real space projection operators read in
  non local Contribution for L=           1  read in
    real space projection operators read in
  non local Contribution for L=           1  read in
    real space projection operators read in
  non local Contribution for L=           2  read in
    real space projection operators read in
  non local Contribution for L=           2  read in
    real space projection operators read in
    PAW grid and wavefunctions read in

   number of l-projection  operators is LMAX  =           6
   number of lm-projection operators is LMMAX =          18

 POTCAR:    PAW_PBE H 15Jun2001                   
   SHA256 =  030f79b5d3ab3cf0e668861823c8fb652ff669f3e15e46930bd03bfd63a607b6 H/POTCAR              
   COPYR  = (c) Copyright 15Jun2001 Georg Kresse                                                    
   COPYR  = This file is part of the software VASP. Any use, copying, and all other rights are regul
   COPYR  = If you do not have a valid VASP license, you may not use, copy or distribute this file. 
   VRHFIN =H: ultrasoft test                                                                        
   LEXCH  = PE                                                                                      
   EATOM  =    12.4884 eV,    0.9179 Ry                                                             
                                                                                                    
   TITEL  = PAW_PBE H 15Jun2001                                                                     
   LULTRA =        F    use ultrasoft PP ?                                                          
   IUNSCR =        0    unscreen: 0-lin 1-nonlin 2-no                                               
   RPACOR =    0.000    partial core radius                                                         
   POMASS =    1.000; ZVAL   =    1.000    mass and valenz                                          
   RCORE  =    1.100    outmost cutoff radius                                                       
   RWIGS  =    0.700; RWIGS  =    0.370    wigner-seitz radius (au A)                               
   ENMAX  =  250.000; ENMIN  =  200.000 eV                                                          
   RCLOC  =    0.701    cutoff for local pot                                                        
   LCOR   =        T    correct aug charges                                                         
   LPAW   =        T    paw PP                                                                      
   EAUG   =  400.000                                                                                
   RMAX   =    1.123    core radius for proj-oper                                                   
   RAUG   =    1.200    factor for augmentation sphere                                              
   RDEP   =    1.112    radius for radial grids                                                     
   RDEPT  =    0.926    core radius for aug-charge                                                  
                                                                                                    
   Atomic configuration                                                                             
    2 entries                                                                                       
     n  l   j            E        occ.                                                              
     1  0  0.50        -6.4927   1.0000                                                             
     2  1  0.50        -3.4015   0.0000                                                             
   Description                                                                                      
     l       E           TYP  RCUT    TYP  RCUT                                                     
     0     -6.4927494     23  1.100                                                                 
     0      6.8029130     23  1.100                                                                 
     1     -4.0817478     23  1.100                                                                 
  local pseudopotential read in
  atomic valenz-charges read in
  non local Contribution for L=           0  read in
    real space projection operators read in
  non local Contribution for L=           0  read in
    real space projection operators read in
  non local Contribution for L=           1  read in
    real space projection operators read in
    PAW grid and wavefunctions read in

   number of l-projection  operators is LMAX  =           3
   number of lm-projection operators is LMMAX =           5

 -----------------------------------------------------------------------------
|                                                                             |
|               ----> ADVICE to this user running VASP <----                  |
|                                                                             |
|     You have a (more or less) 'large supercell' and for larger cells it     |
|     might be more efficient to use real-space projection operators.         |
|     Therefore, try LREAL= Auto in the INCAR file.                           |
|     Mind: For very accurate calculation, you might also keep the            |
|     reciprocal projection scheme (i.e. LREAL=.FALSE.).                      |
|                                                                             |
 -----------------------------------------------------------------------------

 -----------------------------------------------------------------------------
|                                                                             |
|               ----> ADVICE to this user running VASP <----                  |
|                                                                             |
|     You enforced a specific xc type in the INCAR file but a different       |
|     type was found in the POTCAR file.                                      |
|     I HOPE YOU KNOW WHAT YOU ARE DOING!                                     |
|                                                                             |
 -----------------------------------------------------------------------------

  PAW_PBE Si_GW 04May2012               :
 energy of atom  1       EATOM= -103.0669
 kinetic energy error for atom=    0.0001 (will be added to EATOM!!)
  PAW_PBE H 15Jun2001                   :
 energy of atom  2       EATOM=  -12.4884
 kinetic energy error for atom=    0.0000 (will be added to EATOM!!)


 POSCAR: Si H
  positions in cartesian coordinates
  No initial velocities read in


 exchange-correlation table for SCAN
   RHO(1)=    0.500       N(1)  =     2000
   RHO(2)=  100.500       N(2)  =     4000



--------------------------------------------------------------------------------------------------------


 ion  position               nearest neighbor table
   1  0.000  0.000  0.000-   2 2.35  28 2.35  46 2.35  56 2.35
   2  0.125  0.125  0.125-   1 2.35   3 2.35   5 2.35   7 2.35
   3  0.000  0.250  0.250-   2 2.35   4 2.35  38 2.35  40 2.35
   4  0.125  0.375  0.375-   3 2.35  15 2.35  21 2.35  25 2.35
   5  0.250  0.000  0.250-   2 2.35   6 2.35  20 2.35  24 2.35
   6  0.375  0.125  0.375-   5 2.35  15 2.35  35 2.35  41 2.35
   7  0.250  0.250  0.000-   2 2.35   8 2.35  12 2.35  14 2.35
   8  0.375  0.375  0.125-   7 2.35  21 2.35  35 2.35  49 2.35
   9  0.000  0.000  0.500-  10 2.35  20 2.35  38 2.35  64 2.35
  10  0.125  0.125  0.625-   9 2.35  11 2.35  13 2.35  15 2.35
  11  0.000  0.250  0.750-  10 2.35  12 2.35  46 2.35  48 2.35
  12  0.125  0.375  0.875-   7 2.35  11 2.35  17 2.35  29 2.35
  13  0.250  0.000  0.750-  10 2.35  14 2.35  28 2.35  32 2.35
  14  0.375  0.125  0.875-   7 2.35  13 2.35  33 2.35  43 2.35
  15  0.250  0.250  0.500-   4 2.35   6 2.35  10 2.35  16 2.35
  16  0.375  0.375  0.625-  15 2.35  29 2.35  43 2.35  57 2.35
  17  0.000  0.500  0.000-  12 2.35  18 2.35  40 2.35  62 2.35
  18  0.125  0.625  0.125-  17 2.35  19 2.35  21 2.35  23 2.35
  19  0.000  0.750  0.250-  18 2.35  20 2.35  54 2.35  56 2.35
  20  0.125  0.875  0.375-   5 2.35   9 2.35  19 2.35  31 2.35
  21  0.250  0.500  0.250-   4 2.35   8 2.35  18 2.35  22 2.35
  22  0.375  0.625  0.375-  21 2.35  31 2.35  51 2.35  57 2.35
  23  0.250  0.750  0.000-  18 2.35  24 2.35  28 2.35  30 2.35
  24  0.375  0.875  0.125-   5 2.35  23 2.35  33 2.35  51 2.35
  25  0.000  0.500  0.500-   4 2.35  26 2.35  48 2.35  54 2.35
  26  0.125  0.625  0.625-  25 2.35  27 2.35  29 2.35  31 2.35
  27  0.000  0.750  0.750-  26 2.35  28 2.35  62 2.35  64 2.35
  28  0.125  0.875  0.875-   1 2.35  13 2.35  23 2.35  27 2.35
  29  0.250  0.500  0.750-  12 2.35  16 2.35  26 2.35  30 2.35
  30  0.375  0.625  0.875-  23 2.35  29 2.35  49 2.35  59 2.35
  31  0.250  0.750  0.500-  20 2.35  22 2.35  26 2.35  32 2.35
  32  0.375  0.875  0.625-  13 2.35  31 2.35  41 2.35  59 2.35
  33  0.500  0.000  0.000-  14 2.35  24 2.35  34 2.35  60 2.35
  34  0.625  0.125  0.125-  33 2.35  35 2.35  37 2.35  39 2.35
  35  0.500  0.250  0.250-   6 2.35   8 2.35  34 2.35  36 2.35
  36  0.625  0.375  0.375-  35 2.35  47 2.35  53 2.35  57 2.35
  37  0.750  0.000  0.250-  34 2.35  38 2.35  52 2.35  56 2.35
  38  0.875  0.125  0.375-   3 2.35   9 2.35  37 2.35  47 2.35
  39  0.750  0.250  0.000-  34 2.35  40 2.35  44 2.35  46 2.35
  40  0.875  0.375  0.125-   3 2.35  17 2.35  39 2.35  53 2.35
  41  0.500  0.000  0.500-   6 2.35  32 2.35  42 2.35  52 2.35
  42  0.625  0.125  0.625-  41 2.35  43 2.35  45 2.35  47 2.35
  43  0.500  0.250  0.750-  14 2.35  16 2.35  42 2.35  44 2.35
  44  0.625  0.375  0.875-  39 2.35  43 2.35  49 2.35  61 2.35
  45  0.750  0.000  0.750-  42 2.35  46 2.35  60 2.35  64 2.35
  46  0.875  0.125  0.875-   1 2.35  11 2.35  39 2.35  45 2.35
  47  0.750  0.250  0.500-  36 2.35  38 2.35  42 2.35  48 2.35
  48  0.875  0.375  0.625-  11 2.35  25 2.35  47 2.35  61 2.35
  49  0.500  0.500  0.000-   8 2.35  30 2.35  44 2.35  50 2.35
  50  0.625  0.625  0.125-  49 2.35  51 2.35  53 2.35  55 2.35
  51  0.500  0.750  0.250-  22 2.35  24 2.35  50 2.35  52 2.35
  52  0.625  0.875  0.375-  37 2.35  41 2.35  51 2.35  63 2.35
  53  0.750  0.500  0.250-  36 2.35  40 2.35  50 2.35  54 2.35
  54  0.875  0.625  0.375-  19 2.35  25 2.35  53 2.35  63 2.35
  55  0.750  0.750  0.000-  50 2.35  56 2.35  60 2.35  62 2.35
  56  0.875  0.875  0.125-   1 2.35  19 2.35  37 2.35  55 2.35
  57  0.500  0.500  0.500-  16 2.35  22 2.35  36 2.35  58 2.35
  58  0.625  0.625  0.625-  57 2.35  59 2.35  61 2.35  63 2.35
  59  0.500  0.750  0.750-  30 2.35  32 2.35  58 2.35  60 2.35
  60  0.625  0.875  0.875-  33 2.35  45 2.35  55 2.35  59 2.35
  61  0.750  0.500  0.750-  44 2.35  48 2.35  58 2.35  62 2.35
  62  0.875  0.625  0.875-  17 2.35  27 2.35  55 2.35  61 2.35
  63  0.750  0.750  0.500-  52 2.35  54 2.35  58 2.35  64 2.35
  64  0.875  0.875  0.625-   9 2.35  27 2.35  45 2.35  63 2.35
  65  0.226  0.226  0.250-  66 0.74
  66  0.274  0.274  0.250-  65 0.74

  LATTYP: Found a simple cubic cell.
 ALAT       =    10.8600000000
  
  Lattice vectors:
  
 A1 = (  10.8600000000,   0.0000000000,   0.0000000000)
 A2 = (   0.0000000000,  10.8600000000,   0.0000000000)
 A3 = (   0.0000000000,   0.0000000000,  10.8600000000)


Analysis of symmetry for initial positions (statically):
=====================================================================
 Subroutine PRICEL returns:
 Original cell was already a primitive cell.
 

 Routine SETGRP: Setting up the symmetry group for a 
 simple cubic supercell.


 Subroutine GETGRP returns: Found  4 space group operations
 (whereof  2 operations were pure point group operations)
 out of a pool of 48 trial point group operations.


The static configuration has the point symmetry C_1h.
 The point group associated with its full space group is C_2v.


Analysis of symmetry for dynamics (positions and initial velocities):
=====================================================================
 Subroutine PRICEL returns:
 Original cell was already a primitive cell.
 

 Routine SETGRP: Setting up the symmetry group for a 
 simple cubic supercell.


 Subroutine GETGRP returns: Found  4 space group operations
 (whereof  2 operations were pure point group operations)
 out of a pool of 48 trial point group operations.


The dynamic configuration has the point symmetry C_1h.
 The point group associated with its full space group is C_2v.


 Subroutine INISYM returns: Found  4 space group operations
 (whereof  2 operations are pure point group operations),
 and found     1 'primitive' translations


----------------------------------------------------------------------------------------

                                     Primitive cell                                     

  volume of cell :    1280.8241

  direct lattice vectors                    reciprocal lattice vectors
    10.860000000  0.000000000  0.000000000     0.092081031  0.000000000  0.000000000
     0.000000000 10.860000000  0.000000000     0.000000000  0.092081031  0.000000000
     0.000000000  0.000000000 10.860000000     0.000000000  0.000000000  0.092081031

  length of vectors
    10.860000000 10.860000000 10.860000000     0.092081031  0.092081031  0.092081031

  position of ions in fractional coordinates (direct lattice)
     0.000000000  0.000000000  0.000000000
     0.125000000  0.125000000  0.125000000
     0.000000000  0.250000000  0.250000000
     0.125000000  0.375000000  0.375000000
     0.250000000  0.000000000  0.250000000
     0.375000000  0.125000000  0.375000000
     0.250000000  0.250000000  0.000000000
     0.375000000  0.375000000  0.125000000
     0.000000000  0.000000000  0.500000000
     0.125000000  0.125000000  0.625000000
     0.000000000  0.250000000  0.750000000
     0.125000000  0.375000000  0.875000000
     0.250000000  0.000000000  0.750000000
     0.375000000  0.125000000  0.875000000
     0.250000000  0.250000000  0.500000000
     0.375000000  0.375000000  0.625000000
     0.000000000  0.500000000  0.000000000
     0.125000000  0.625000000  0.125000000
     0.000000000  0.750000000  0.250000000
     0.125000000  0.875000000  0.375000000
     0.250000000  0.500000000  0.250000000
     0.375000000  0.625000000  0.375000000
     0.250000000  0.750000000  0.000000000
     0.375000000  0.875000000  0.125000000
     0.000000000  0.500000000  0.500000000
     0.125000000  0.625000000  0.625000000
     0.000000000  0.750000000  0.750000000
     0.125000000  0.875000000  0.875000000
     0.250000000  0.500000000  0.750000000
     0.375000000  0.625000000  0.875000000
     0.250000000  0.750000000  0.500000000
     0.375000000  0.875000000  0.625000000
     0.500000000  0.000000000  0.000000000
     0.625000000  0.125000000  0.125000000
     0.500000000  0.250000000  0.250000000
     0.625000000  0.375000000  0.375000000
     0.750000000  0.000000000  0.250000000
     0.875000000  0.125000000  0.375000000
     0.750000000  0.250000000  0.000000000
     0.875000000  0.375000000  0.125000000
     0.500000000  0.000000000  0.500000000
     0.625000000  0.125000000  0.625000000
     0.500000000  0.250000000  0.750000000
     0.625000000  0.375000000  0.875000000
     0.750000000  0.000000000  0.750000000
     0.875000000  0.125000000  0.875000000
     0.750000000  0.250000000  0.500000000
     0.875000000  0.375000000  0.625000000
     0.500000000  0.500000000  0.000000000
     0.625000000  0.625000000  0.125000000
     0.500000000  0.750000000  0.250000000
     0.625000000  0.875000000  0.375000000
     0.750000000  0.500000000  0.250000000
     0.875000000  0.625000000  0.375000000
     0.750000000  0.750000000  0.000000000
     0.875000000  0.875000000  0.125000000
     0.500000000  0.500000000  0.500000000
     0.625000000  0.625000000  0.625000000
     0.500000000  0.750000000  0.750000000
     0.625000000  0.875000000  0.875000000
     0.750000000  0.500000000  0.750000000
     0.875000000  0.625000000  0.875000000
     0.750000000  0.750000000  0.500000000
     0.875000000  0.875000000  0.625000000
     0.225908885  0.225908885  0.250000000
     0.274091115  0.274091115  0.250000000

  ion indices of the primitive-cell ions
   primitive index   ion index
                 1           1
                 2           2
                 3           3
                 4           4
                 5           5
                 6           6
                 7           7
                 8           8
                 9           9
                10          10
                11          11
                12          12
                13          13
                14          14
                15          15
                16          16
                17          17
                18          18
                19          19
                20          20
                21          21
                22          22
                23          23
                24          24
                25          25
                26          26
                27          27
                28          28
                29          29
                30          30
                31          31
                32          32
                33          33
                34          34
                35          35
                36          36
                37          37
                38          38
                39          39
                40          40
                41          41
                42          42
                43          43
                44          44
                45          45
                46          46
                47          47
                48          48
                49          49
                50          50
                51          51
                52          52
                53          53
                54          54
                55          55
                56          56
                57          57
                58          58
                59          59
                60          60
                61          61
                62          62
                63          63
                64          64
                65          65
                66          66

----------------------------------------------------------------------------------------


 -----------------------------------------------------------------------------
|                                                                             |
|           W    W    AA    RRRRR   N    N  II  N    N   GGGG   !!!           |
|           W    W   A  A   R    R  NN   N  II  NN   N  G    G  !!!           |
|           W    W  A    A  R    R  N N  N  II  N N  N  G       !!!           |
|           W WW W  AAAAAA  RRRRR   N  N N  II  N  N N  G  GGG   !            |
|           WW  WW  A    A  R   R   N   NN  II  N   NN  G    G                |
|           W    W  A    A  R    R  N    N  II  N    N   GGGG   !!!           |
|                                                                             |
|     The requested file  could not be found or opened for reading            |
|     k-point information. Automatic k-point generation is used as a          |
|     fallback, which may lead to unwanted results.                           |
|                                                                             |
 -----------------------------------------------------------------------------



Automatic generation of k-mesh.
 Grid dimensions derived from KSPACING:
 generate k-points for:    3    3    3

 Generating k-lattice:

  Cartesian coordinates                     Fractional coordinates (reciprocal lattice)
     0.030693677  0.000000000  0.000000000     0.333333333  0.000000000  0.000000000
     0.000000000  0.030693677  0.000000000     0.000000000  0.333333333  0.000000000
     0.000000000  0.000000000  0.030693677     0.000000000  0.000000000  0.333333333

  Length of vectors
     0.030693677  0.030693677  0.030693677

  Shift w.r.t. Gamma in fractional coordinates (k-lattice)
     0.000000000  0.000000000  0.000000000

 
 Subroutine IBZKPT returns following result:
 ===========================================
 
 Found      8 irreducible k-points:
 
 Following reciprocal coordinates:
            Coordinates               Weight
  0.000000  0.000000  0.000000      1.000000
  0.333333  0.000000  0.000000      4.000000
  0.000000  0.000000  0.333333      2.000000
  0.333333  0.333333  0.000000      2.000000
  0.000000  0.333333  0.333333      8.000000
 -0.333333  0.333333  0.000000      2.000000
  0.333333  0.333333  0.333333      4.000000
 -0.333333  0.333333  0.333333      4.000000
 
 Following cartesian coordinates:
            Coordinates               Weight
  0.000000  0.000000  0.000000      1.000000
  0.030694  0.000000  0.000000      4.000000
  0.000000  0.000000  0.030694      2.000000
  0.030694  0.030694  0.000000      2.000000
  0.000000  0.030694  0.030694      8.000000
 -0.030694  0.030694  0.000000      2.000000
  0.030694  0.030694  0.030694      4.000000
 -0.030694  0.030694  0.030694      4.000000
 


--------------------------------------------------------------------------------------------------------




 Dimension of arrays:
   k-points           NKPTS =      8   k-points in BZ     NKDIM =      8   number of bands    NBANDS=    164
   number of dos      NEDOS =   2000   number of ions     NIONS =     66
   non local maximal  LDIM  =      6   non local SUM 2l+1 LMDIM =     18
   total plane-waves  NPLWV = ******
   max r-space proj   IRMAX =      1   max aug-charges    IRDMAX= 613440
   dimension x,y,z NGX =   126 NGY =  126 NGZ =  126
   dimension x,y,z NGXF=   252 NGYF=  252 NGZF=  252
   support grid    NGXF=   504 NGYF=  504 NGZF=  504
   ions per type =              64   2
   NGX,Y,Z   is equivalent  to a cutoff of  19.29, 19.29, 19.29 a.u.
   NGXF,Y,Z  is equivalent  to a cutoff of  38.58, 38.58, 38.58 a.u.

 SYSTEM =  a-Si SPC                                
 POSCAR =  Si H                                    

 Startparameter for this run:
   NWRITE =      2    write-flag & timer
   PREC   = accura    normal or accurate (medium, high low for compatibility)
   ISTART =      1    job   : 0-new  1-cont  2-samecut
   ICHARG =      1    charge: 1-file 2-atom 10-const
   ISPIN  =      1    spin polarized calculation?
   LNONCOLLINEAR =      F non collinear calculations
   LSORBIT =      F    spin-orbit coupling
   INIWAV =      1    electr: 0-lowe 1-rand  2-diag
   LASPH  =      T    aspherical Exc in radial PAW
 Electronic Relaxation 1
   ENCUT  = 1200.0 eV  88.20 Ry    9.39 a.u.  30.67 30.67 30.67*2*pi/ulx,y,z
   ENINI  = 1200.0     initial cutoff
   ENAUG  =  413.0 eV  augmentation charge cutoff
   NELM   =    150;   NELMIN=  2; NELMDL=  0     # of ELM steps 
   EDIFF  = 0.1E-05   stopping-criterion for ELM
   LREAL  =      F    real-space projection
   NLSPLINE    = F    spline interpolate recip. space projectors
   LCOMPAT=      F    compatible to vasp.4.4
   GGA_COMPAT  = T    GGA compatible to vasp.4.4-vasp.4.6
   LMAXPAW     = -100 max onsite density
   LMAXMIX     =    2 max onsite mixed and CHGCAR
   VOSKOWN=      0    Vosko Wilk Nusair interpolation
   ROPT   =    0.00000   0.00000
 Ionic relaxation
   EDIFFG = -.1E-01   stopping-criterion for IOM
   NSW    =      0    number of steps for IOM
   NBLOCK =      1;   KBLOCK =      1    inner block; outer block 
   IBRION =     -1    ionic relax: 0-MD 1-quasi-New 2-CG
   NFREE  =      0    steps in history (QN), initial steepest desc. (CG)
   ISIF   =      2    stress and relaxation
   IWAVPR =     10    prediction:  0-non 1-charg 2-wave 3-comb
   ISYM   =      1    0-nonsym 1-usesym 2-fastsym
   LCORR  =      T    Harris-Foulkes like correction to forces

   POTIM  = 0.5000    time-step for ionic-motion
   TEIN   =    0.0    initial temperature
   TEBEG  =    0.0;   TEEND  =   0.0 temperature during run
   SMASS  =  -3.00    Nose mass-parameter (am)
   estimated Nose-frequenzy (Omega)   =  0.10E-29 period in steps = 0.13E+47 mass=  -0.270E-26a.u.
   SCALEE = 1.0000    scale energy and forces
   NPACO  =    256;   APACO  = 10.0  distance and # of slots for P.C.
   PSTRESS=    0.0 pullay stress

  Mass of Ions in am
   POMASS =  28.09  1.00
  Ionic Valenz
   ZVAL   =   4.00  1.00
  Atomic Wigner-Seitz radii
   RWIGS  =  -1.00 -1.00
  virtual crystal weights 
   VCA    =   1.00  1.00
   NELECT =     258.0000    total number of electrons
   NUPDOWN=      -1.0000    fix difference up-down

 DOS related values:
   EMIN   =  10.00;   EMAX   =-10.00  energy-range for DOS
   EFERMI =   0.00;   METHOD = LEGACY      
   ISMEAR =     0;   SIGMA  =   0.10  broadening in eV -4-tet -1-fermi 0-gaus
   EFERMI_NEDOS =   21; number of points for ismear=-14 and -15

 Electronic relaxation 2 (details)
   IALGO  =     38    algorithm
   LDIAG  =      F    sub-space diagonalisation (order eigenvalues)
   LSUBROT=      F    optimize rotation matrix (better conditioning)
   TURBO    =      0    0=normal 1=particle mesh
   IRESTART =      0    0=no restart 2=restart with 2 vectors
   NREBOOT  =      0    no. of reboots
   NMIN     =      0    reboot dimension
   EREF     =   0.00    reference energy to select bands
   IMIX   =      4    mixing-type and parameters
     AMIX     =   0.40;   BMIX     =  1.00
     AMIX_MAG =   1.60;   BMIX_MAG =  1.00
     AMIN     =   0.10
     WC   =   100.;   INIMIX=   1;  MIXPRE=   1;  MAXMIX= -45

 Intra band minimization:
   WEIMIN = 0.0000     energy-eigenvalue tresh-hold
   EBREAK =  0.15E-08  absolut break condition
   DEPER  =   0.30     relativ break condition  

   TIME   =   0.40     timestep for ELM

  volume/ion in A,a.u.               =      19.41       130.96
  Fermi-wavevector in a.u.,A,eV,Ry     =   0.959662  1.813498 12.530298  0.920951
  Thomas-Fermi vector in A             =   2.088878

 Write flags
   LWAVE        =      F    write WAVECAR
   LDOWNSAMPLE  =      F    k-point downsampling of WAVECAR
   LCHARG       =      F    write CHGCAR
   LVTOT        =      F    write LOCPOT, total local potential
   LVHAR        =      F    write LOCPOT, Hartree potential only
   WRT_POTENTIAL= false  ! write potential to hdf5 file
   LELF         =      F    write electronic localiz. function (ELF)
   LORBIT       =     11    0 simple, 1 ext, 2 COOP (PROOUT), +10 PAW based schemes


 Python interface
   PLUGINS active      =      F    recompile with -DPLUGINS to activate

 Dipole corrections
   LMONO      =      F    monopole corrections only (constant potential shift)
   LDIPOL     =      F    correct potential (dipole corrections)
   IDIPOL     =      0    1-x, 2-y, 3-z, 4-all directions 
   EPSILON    =  1.0000000 bulk dielectric constant
   LVACPOTAV  =      F  vacuum potentials using an averaging scheme for the charge density
   VACPOTFLAT =  0.1000000 required flatness to determine vacuum potential

Coulomb truncation method
  LTRUNCATE          =      F  Coulomb kernel truncation to be used
  IDIMENSIONALITY    =      3  Dimensionality of cutoff (0 molecules / 2 surfaces)
  ISURFACE           =     -1  Direction of surface normal
  LCOARSEN           =      F  Coarsen the charge grid before padding, preferred


 Exchange correlation treatment:
   METAGGA = SCAN    functional components
   XC_C    = 1    coefficients multiplying the functional components
   LIBXC   =     F    Libxc                    
   VOSKOWN =     0    Vosko Wilk Nusair interpolation
   LHFCALC =     F    Hartree Fock is set to
   LHFONE  =     F    Hartree Fock one center treatment
   AEXX    =    0.0000 exact exchange contribution

 Parameters of functionals:
   SCAN:
     P1 =  0.000000E+00
     P2 =  0.000000E+00
     P3 =  0.000000E+00

 Accuracy and mixing parameters for tau-dependent meta-GGA functionals:
   LMAXTAU = 6
   LMIXTAU = T

 Van der Waals corrections
   IVDW    =     0    specifies the selected vdW correction

 Linear response parameters
   LEPSILON=     F    determine dielectric tensor
   LRPA    =     F    only Hartree local field effects (RPA)
   LNABLA  =     F    use nabla operator in PAW spheres
   LVEL    =     F    velocity operator in full k-point grid
   CSHIFT  =0.1000    complex shift for real part using Kramers Kronig
   OMEGAMAX=  -1.0    maximum frequency
   DEG_THRESHOLD= 0.2000000E-02 threshold for treating states as degnerate
   RTIME   =   -0.100 relaxation time in fs
  (WPLASMAI=    0.000 imaginary part of plasma frequency in eV, 0.658/RTIME)
   DFIELD  = 0.0000000 0.0000000 0.0000000 field for delta impulse in time

  Optional k-point grid parameters
   LKPOINTS_OPT  =     F    use optional k-point grid
   KPOINTS_OPT_MODE=     1    mode for optional k-point grid

 Orbital magnetization related:
   ORBITALMAG=     F  switch on orbital magnetization
   LCHIMAG   =     F  perturbation theory with respect to B field
   DQ        =  0.001000  dq finite difference perturbation B field
   LLRAUG    =     F  two centre corrections for induced B field
   LBONE     =     F  B-component reconstruction in AE one-centre
   LVGVCALC  =     T  calculate vGv susceptibility
   LVGVAPPL  =     F  apply vGv susceptibility instead of pGv for G=0

 Random number generation:
   RANDOM_GENERATOR = DEFAULT
   PCG_SEED         = not used


--------------------------------------------------------------------------------------------------------


 Static calculation
 charge density and potential will be updated during run
 non-spin polarized calculation
 Variant of blocked Davidson
 perform Loewdin sub-space diagonalisation
    ordering is kept fixed
    before iterative eigenvector-optimisation
 modified Broyden-mixing scheme, WC =      100.0
 initial mixing is a Kerker type mixing with AMIX =  0.4000 and BMIX =      1.0000
 Hartree-type preconditioning will be used
 using additional bands           35
 reciprocal scheme for non local part
 use partial core corrections
 calculate Harris-corrections to forces   (improved forces if not selfconsistent)
 use gradient corrections 
 use of overlap-Matrix (Vanderbilt PP)
 Gauss-broadening in eV      SIGMA  =   0.10


--------------------------------------------------------------------------------------------------------


  energy-cutoff  :     1200.00
  volume of cell :     1280.82
      direct lattice vectors                 reciprocal lattice vectors
    10.860000000  0.000000000  0.000000000     0.092081031  0.000000000  0.000000000
     0.000000000 10.860000000  0.000000000     0.000000000  0.092081031  0.000000000
     0.000000000  0.000000000 10.860000000     0.000000000  0.000000000  0.092081031

  length of vectors
    10.860000000 10.860000000 10.860000000     0.092081031  0.092081031  0.092081031



 old parameters found on file WAVECAR:
  energy-cutoff  :     1200.00
  volume of cell :     1280.82
      direct lattice vectors                 reciprocal lattice vectors
    10.860000000  0.000000000  0.000000000     0.092081031  0.000000000  0.000000000
     0.000000000 10.860000000  0.000000000     0.000000000  0.092081031  0.000000000
     0.000000000  0.000000000 10.860000000     0.000000000  0.000000000  0.092081031

  length of vectors


 k-points in units of 2pi/SCALE and weight: read from INCAR                         
   0.00000000  0.00000000  0.00000000       0.037
   0.03069368  0.00000000  0.00000000       0.148
   0.00000000  0.00000000  0.03069368       0.074
   0.03069368  0.03069368  0.00000000       0.074
   0.00000000  0.03069368  0.03069368       0.296
  -0.03069368  0.03069368  0.00000000       0.074
   0.03069368  0.03069368  0.03069368       0.148
  -0.03069368  0.03069368  0.03069368       0.148

 k-points in reciprocal lattice and weights: read from INCAR                         
   0.00000000  0.00000000  0.00000000       0.037
   0.33333333  0.00000000  0.00000000       0.148
   0.00000000  0.00000000  0.33333333       0.074
   0.33333333  0.33333333  0.00000000       0.074
   0.00000000  0.33333333  0.33333333       0.296
  -0.33333333  0.33333333  0.00000000       0.074
   0.33333333  0.33333333  0.33333333       0.148
  -0.33333333  0.33333333  0.33333333       0.148

 position of ions in fractional coordinates (direct lattice) 
   0.00000000  0.00000000  0.00000000
   0.12500000  0.12500000  0.12500000
   0.00000000  0.25000000  0.25000000
   0.12500000  0.37500000  0.37500000
   0.25000000  0.00000000  0.25000000
   0.37500000  0.12500000  0.37500000
   0.25000000  0.25000000  0.00000000
   0.37500000  0.37500000  0.12500000
   0.00000000  0.00000000  0.50000000
   0.12500000  0.12500000  0.62500000
   0.00000000  0.25000000  0.75000000
   0.12500000  0.37500000  0.87500000
   0.25000000  0.00000000  0.75000000
   0.37500000  0.12500000  0.87500000
   0.25000000  0.25000000  0.50000000
   0.37500000  0.37500000  0.62500000
   0.00000000  0.50000000  0.00000000
   0.12500000  0.62500000  0.12500000
   0.00000000  0.75000000  0.25000000
   0.12500000  0.87500000  0.37500000
   0.25000000  0.50000000  0.25000000
   0.37500000  0.62500000  0.37500000
   0.25000000  0.75000000  0.00000000
   0.37500000  0.87500000  0.12500000
   0.00000000  0.50000000  0.50000000
   0.12500000  0.62500000  0.62500000
   0.00000000  0.75000000  0.75000000
   0.12500000  0.87500000  0.87500000
   0.25000000  0.50000000  0.75000000
   0.37500000  0.62500000  0.87500000
   0.25000000  0.75000000  0.50000000
   0.37500000  0.87500000  0.62500000
   0.50000000  0.00000000  0.00000000
   0.62500000  0.12500000  0.12500000
   0.50000000  0.25000000  0.25000000
   0.62500000  0.37500000  0.37500000
   0.75000000  0.00000000  0.25000000
   0.87500000  0.12500000  0.37500000
   0.75000000  0.25000000  0.00000000
   0.87500000  0.37500000  0.12500000
   0.50000000  0.00000000  0.50000000
   0.62500000  0.12500000  0.62500000
   0.50000000  0.25000000  0.75000000
   0.62500000  0.37500000  0.87500000
   0.75000000  0.00000000  0.75000000
   0.87500000  0.12500000  0.87500000
   0.75000000  0.25000000  0.50000000
   0.87500000  0.37500000  0.62500000
   0.50000000  0.50000000  0.00000000
   0.62500000  0.62500000  0.12500000
   0.50000000  0.75000000  0.25000000
   0.62500000  0.87500000  0.37500000
   0.75000000  0.50000000  0.25000000
   0.87500000  0.62500000  0.37500000
   0.75000000  0.75000000  0.00000000
   0.87500000  0.87500000  0.12500000
   0.50000000  0.50000000  0.50000000
   0.62500000  0.62500000  0.62500000
   0.50000000  0.75000000  0.75000000
   0.62500000  0.87500000  0.87500000
   0.75000000  0.50000000  0.75000000
   0.87500000  0.62500000  0.87500000
   0.75000000  0.75000000  0.50000000
   0.87500000  0.87500000  0.62500000
   0.22590888  0.22590888  0.25000000
   0.27409112  0.27409112  0.25000000

 position of ions in cartesian coordinates  (Angst):
   0.00000000  0.00000000  0.00000000
   1.35750000  1.35750000  1.35750000
   0.00000000  2.71500000  2.71500000
   1.35750000  4.07250000  4.07250000
   2.71500000  0.00000000  2.71500000
   4.07250000  1.35750000  4.07250000
   2.71500000  2.71500000  0.00000000
   4.07250000  4.07250000  1.35750000
   0.00000000  0.00000000  5.43000000
   1.35750000  1.35750000  6.78750000
   0.00000000  2.71500000  8.14500000
   1.35750000  4.07250000  9.50250000
   2.71500000  0.00000000  8.14500000
   4.07250000  1.35750000  9.50250000
   2.71500000  2.71500000  5.43000000
   4.07250000  4.07250000  6.78750000
   0.00000000  5.43000000  0.00000000
   1.35750000  6.78750000  1.35750000
   0.00000000  8.14500000  2.71500000
   1.35750000  9.50250000  4.07250000
   2.71500000  5.43000000  2.71500000
   4.07250000  6.78750000  4.07250000
   2.71500000  8.14500000  0.00000000
   4.07250000  9.50250000  1.35750000
   0.00000000  5.43000000  5.43000000
   1.35750000  6.78750000  6.78750000
   0.00000000  8.14500000  8.14500000
   1.35750000  9.50250000  9.50250000
   2.71500000  5.43000000  8.14500000
   4.07250000  6.78750000  9.50250000
   2.71500000  8.14500000  5.43000000
   4.07250000  9.50250000  6.78750000
   5.43000000  0.00000000  0.00000000
   6.78750000  1.35750000  1.35750000
   5.43000000  2.71500000  2.71500000
   6.78750000  4.07250000  4.07250000
   8.14500000  0.00000000  2.71500000
   9.50250000  1.35750000  4.07250000
   8.14500000  2.71500000  0.00000000
   9.50250000  4.07250000  1.35750000
   5.43000000  0.00000000  5.43000000
   6.78750000  1.35750000  6.78750000
   5.43000000  2.71500000  8.14500000
   6.78750000  4.07250000  9.50250000
   8.14500000  0.00000000  8.14500000
   9.50250000  1.35750000  9.50250000
   8.14500000  2.71500000  5.43000000
   9.50250000  4.07250000  6.78750000
   5.43000000  5.43000000  0.00000000
   6.78750000  6.78750000  1.35750000
   5.43000000  8.14500000  2.71500000
   6.78750000  9.50250000  4.07250000
   8.14500000  5.43000000  2.71500000
   9.50250000  6.78750000  4.07250000
   8.14500000  8.14500000  0.00000000
   9.50250000  9.50250000  1.35750000
   5.43000000  5.43000000  5.43000000
   6.78750000  6.78750000  6.78750000
   5.43000000  8.14500000  8.14500000
   6.78750000  9.50250000  9.50250000
   8.14500000  5.43000000  8.14500000
   9.50250000  6.78750000  9.50250000
   8.14500000  8.14500000  5.43000000
   9.50250000  9.50250000  6.78750000
   2.45337049  2.45337049  2.71500000
   2.97662951  2.97662951  2.71500000



--------------------------------------------------------------------------------------------------------


 k-point     1 :   0.0000 0.0000 0.0000  plane waves:  120713
 k-point     2 :   0.3333 0.0000 0.0000  plane waves:  120938
 k-point     3 :   0.0000 0.0000 0.3333  plane waves:  120938
 k-point     4 :   0.3333 0.3333 0.0000  plane waves:  120876
 k-point     5 :   0.0000 0.3333 0.3333  plane waves:  120876
 k-point     6 :  -0.3333 0.3333 0.0000  plane waves:  120876
 k-point     7 :   0.3333 0.3333 0.3333  plane waves:  120885
 k-point     8 :  -0.3333 0.3333 0.3333  plane waves:  120885

 maximum and minimum number of plane-waves per node :      7587     7511

 maximum number of plane-waves:    120938
 maximum index in each direction: 
   IXMAX=   31   IYMAX=   30   IZMAX=   30
   IXMIN=  -31   IYMIN=  -31   IZMIN=  -31


 parallel 3D FFT for wavefunctions:
    minimum data exchange during FFTs selected (reduces bandwidth)
 parallel 3D FFT for charge:
    minimum data exchange during FFTs selected (reduces bandwidth)


 total amount of memory used by VASP MPI-rank0   161911. kBytes
=======================================================================

   base                                    :      30000. kBytes
   nonl-proj                               :      25441. kBytes
   fftplans                                :      40723. kBytes
   grid                                    :      25513. kBytes
   one-center                              :         77. kBytes
   wavefun                                 :      40157. kBytes

     INWAV:  cpu time      2.3535: real time      2.3546
 Broyden mixing: mesh for mixing (old mesh)
   NGX = 61   NGY = 61   NGZ = 61
  (NGX  =252   NGY  =252   NGZ  =252)
  gives a total of 226981 points

 initial charge density was supplied:
 number of electron     257.9999999 magnetization 
 keeping initial charge density in first step


--------------------------------------------------------------------------------------------------------


 Maximum index for augmentation-charges         8553 (set IRDMAX)


--------------------------------------------------------------------------------------------------------


 First call to EWALD:  gamma=   0.163
 Maximum number of real-space cells   3x   3x   3
 Maximum number of reciprocal cells   3x   3x   3

    FEWALD:  cpu time      0.0076: real time      0.0076


--------------------------------------- Ionic step        1  -------------------------------------------




--------------------------------------- Iteration      1(   1)  ---------------------------------------


    POTLOK:  cpu time      0.7020: real time      0.7024
    SETDIJ:  cpu time      1.9662: real time      1.9669
    EDDIAG:  cpu time     13.7757: real time     13.7846
     EDDAV:  cpu time     89.5442: real time     89.6008
       DOS:  cpu time      0.0069: real time      0.0070
    CHARGE:  cpu time      9.4638: real time      9.4688
    MIXING:  cpu time      0.0188: real time      0.0190
    --------------------------------------------
      LOOP:  cpu time    115.4775: real time    115.5494

 eigenvalue-minimisations  :  4040
 total energy-change (2. order) :-0.6885605E+03  (-0.6014594E+00)
 number of electron     257.9999999 magnetization 
 augmentation part      -14.9607510 magnetization 

 Broyden mixing:
  rms(total) = 0.89918E-01    rms(broyden)= 0.61108E+02
  rms(prec ) = 0.62395E+00
  weight for this iteration     100.00
  WARNING: grid for Broyden might be to small

 Free energy of the ion-electron system (eV)
  ---------------------------------------------------
  alpha Z        PSCENC =       197.34565003
  Ewald energy   TEWEN  =     -7340.57008550
  -Hartree energ DENC   =      -491.69140152
  -exchange      EXHF   =         0.00000000
  -V(xc)+E(xc)   XCENC  =      -302.67281803
  PAW double counting   =      7952.42925725    -7299.85063486
  entropy T*S    EENTRO =        -0.00000574
  eigenvalues    EBANDS =       -24.80468884
  atomic energy  EATOM  =      6621.25421386
  Solvation  Ediel_sol  =         0.00000000
  ---------------------------------------------------
  free energy    TOTEN  =      -688.56051337 eV

  energy without entropy =     -688.56050763  energy(sigma->0) =     -688.56051050


--------------------------------------------------------------------------------------------------------




--------------------------------------- Iteration      1(   2)  ---------------------------------------


    POTLOK:  cpu time      0.7038: real time      0.7088
    SETDIJ:  cpu time      1.9625: real time      1.9634
    EDDIAG:  cpu time     13.9126: real time     13.9220
     EDDAV:  cpu time     73.2014: real time     73.2472
       DOS:  cpu time      0.0075: real time      0.0075
    CHARGE:  cpu time      9.4584: real time      9.4635
    MIXING:  cpu time      0.0174: real time      0.0176
    --------------------------------------------
      LOOP:  cpu time     99.2637: real time     99.3300

 eigenvalue-minimisations  :  2956
 total energy-change (2. order) : 0.4542238E+02  (-0.6254505E+00)
 number of electron     257.9999999 magnetization 
 augmentation part      -14.8885022 magnetization 

 Broyden mixing:
  rms(total) = 0.95468E-01    rms(broyden)= 0.35430E+02
  rms(prec ) = 0.37282E+00
  weight for this iteration     100.00
  WARNING: grid for Broyden might be to small

 eigenvalues of (default mixing * dielectric matrix)
  average eigenvalue GAMMA=   0.6329
  0.6329

 Free energy of the ion-electron system (eV)
  ---------------------------------------------------
  alpha Z        PSCENC =       197.34565003
  Ewald energy   TEWEN  =     -7340.57008550
  -Hartree energ DENC   =      -488.07733572
  -exchange      EXHF   =         0.00000000
  -V(xc)+E(xc)   XCENC  =      -296.89646564
  PAW double counting   =      7981.23503454    -7328.82184326
  entropy T*S    EENTRO =        -0.00000000
  eigenvalues    EBANDS =        11.39269722
  atomic energy  EATOM  =      6621.25421386
  Solvation  Ediel_sol  =         0.00000000
  ---------------------------------------------------
  free energy    TOTEN  =      -643.13813448 eV

  energy without entropy =     -643.13813448  energy(sigma->0) =     -643.13813448


--------------------------------------------------------------------------------------------------------




--------------------------------------- Iteration      1(   3)  ---------------------------------------


    POTLOK:  cpu time      0.7100: real time      0.7164
    SETDIJ:  cpu time      1.9615: real time      1.9625
    EDDIAG:  cpu time     13.9387: real time     13.9473
     EDDAV:  cpu time     72.3518: real time     72.4005
       DOS:  cpu time      0.0057: real time      0.0057
    CHARGE:  cpu time      9.4375: real time      9.4430
    MIXING:  cpu time      0.0168: real time      0.0168
    --------------------------------------------
      LOOP:  cpu time     98.4220: real time     98.4923

 eigenvalue-minimisations  :  2896
 total energy-change (2. order) :-0.2842391E+01  (-0.5342706E+00)
 number of electron     257.9999999 magnetization 
 augmentation part      -14.8498938 magnetization 

 Broyden mixing:
  rms(total) = 0.10233E+00    rms(broyden)= 0.80601E+00
  rms(prec ) = 0.12378E+00
  weight for this iteration     100.00
  WARNING: grid for Broyden might be to small

 eigenvalues of (default mixing * dielectric matrix)
  average eigenvalue GAMMA=   0.6685
  0.7181  0.6189

 Free energy of the ion-electron system (eV)
  ---------------------------------------------------
  alpha Z        PSCENC =       197.34565003
  Ewald energy   TEWEN  =     -7340.57008550
  -Hartree energ DENC   =      -489.54352435
  -exchange      EXHF   =         0.00000000
  -V(xc)+E(xc)   XCENC  =      -301.76895414
  PAW double counting   =      8021.26722781    -7368.89566514
  entropy T*S    EENTRO =        -0.00000000
  eigenvalues    EBANDS =        14.93061201
  atomic energy  EATOM  =      6621.25421386
  Solvation  Ediel_sol  =         0.00000000
  ---------------------------------------------------
  free energy    TOTEN  =      -645.98052543 eV

  energy without entropy =     -645.98052543  energy(sigma->0) =     -645.98052543


--------------------------------------------------------------------------------------------------------




--------------------------------------- Iteration      1(   4)  ---------------------------------------


    POTLOK:  cpu time      0.7094: real time      0.7102
    SETDIJ:  cpu time      1.9618: real time      1.9629
    EDDIAG:  cpu time     13.9074: real time     13.9168
     EDDAV:  cpu time     78.9354: real time     78.9885
       DOS:  cpu time      0.0057: real time      0.0057
    CHARGE:  cpu time      9.4870: real time      9.4916
    MIXING:  cpu time      0.0171: real time      0.0171
    --------------------------------------------
      LOOP:  cpu time    105.0238: real time    105.0929

 eigenvalue-minimisations  :  3320
 total energy-change (2. order) :-0.2089484E+00  (-0.5108046E-01)
 number of electron     257.9999999 magnetization 
 augmentation part      -14.8520767 magnetization 

 Broyden mixing:
  rms(total) = 0.12401E+00    rms(broyden)= 0.11324E+01
  rms(prec ) = 0.15112E+00
  weight for this iteration     100.00
  WARNING: grid for Broyden might be to small

 eigenvalues of (default mixing * dielectric matrix)
  average eigenvalue GAMMA=   0.6206
  0.8638  0.6350  0.3630

 Free energy of the ion-electron system (eV)
  ---------------------------------------------------
  alpha Z        PSCENC =       197.34565003
  Ewald energy   TEWEN  =     -7340.57008550
  -Hartree energ DENC   =      -489.09983618
  -exchange      EXHF   =         0.00000000
  -V(xc)+E(xc)   XCENC  =      -303.83951908
  PAW double counting   =      8013.86996084    -7361.50397651
  entropy T*S    EENTRO =        -0.00000000
  eigenvalues    EBANDS =        16.35411876
  atomic energy  EATOM  =      6621.25421386
  Solvation  Ediel_sol  =         0.00000000
  ---------------------------------------------------
  free energy    TOTEN  =      -646.18947379 eV

  energy without entropy =     -646.18947379  energy(sigma->0) =     -646.18947379


--------------------------------------------------------------------------------------------------------




--------------------------------------- Iteration      1(   5)  ---------------------------------------


    POTLOK:  cpu time      0.7131: real time      0.7138
    SETDIJ:  cpu time      1.9640: real time      1.9650
    EDDIAG:  cpu time     13.9046: real time     13.9141
     EDDAV:  cpu time     82.0830: real time     82.1354
       DOS:  cpu time      0.0053: real time      0.0053
    CHARGE:  cpu time      9.4434: real time      9.4477
    MIXING:  cpu time      0.0171: real time      0.0172
    --------------------------------------------
      LOOP:  cpu time    108.1305: real time    108.1985

 eigenvalue-minimisations  :  3536
 total energy-change (2. order) :-0.1231007E-02  (-0.9341833E-02)
 number of electron     257.9999999 magnetization 
 augmentation part      -14.8475459 magnetization 

 Broyden mixing:
  rms(total) = 0.56318E-01    rms(broyden)= 0.14464E+01
  rms(prec ) = 0.72961E-01
  weight for this iteration     100.00
  WARNING: grid for Broyden might be to small

 eigenvalues of (default mixing * dielectric matrix)
  average eigenvalue GAMMA=   0.6979
  1.2023  0.6453  0.6154  0.3288

 Free energy of the ion-electron system (eV)
  ---------------------------------------------------
  alpha Z        PSCENC =       197.34565003
  Ewald energy   TEWEN  =     -7340.57008550
  -Hartree energ DENC   =      -491.84928084
  -exchange      EXHF   =         0.00000000
  -V(xc)+E(xc)   XCENC  =      -302.17154090
  PAW double counting   =      8095.22240416    -7442.91849605
  entropy T*S    EENTRO =        -0.00000000
  eigenvalues    EBANDS =        17.49643046
  atomic energy  EATOM  =      6621.25421386
  Solvation  Ediel_sol  =         0.00000000
  ---------------------------------------------------
  free energy    TOTEN  =      -646.19070479 eV

  energy without entropy =     -646.19070479  energy(sigma->0) =     -646.19070479


--------------------------------------------------------------------------------------------------------




--------------------------------------- Iteration      1(   6)  ---------------------------------------


    POTLOK:  cpu time      0.7076: real time      0.7086
    SETDIJ:  cpu time      1.9611: real time      1.9619
    EDDIAG:  cpu time     13.9256: real time     13.9337
     EDDAV:  cpu time     83.7918: real time     83.8495
       DOS:  cpu time      0.0059: real time      0.0059
    CHARGE:  cpu time      9.4487: real time      9.4547
    MIXING:  cpu time      0.0173: real time      0.0174
    --------------------------------------------
      LOOP:  cpu time    109.8580: real time    109.9317

 eigenvalue-minimisations  :  3656
 total energy-change (2. order) :-0.2431839E-02  (-0.7967791E-03)
 number of electron     257.9999999 magnetization 
 augmentation part      -14.8471788 magnetization 

 Broyden mixing:
  rms(total) = 0.46272E-01    rms(broyden)= 0.49641E+00
  rms(prec ) = 0.59471E-01
  weight for this iteration     100.00
  WARNING: grid for Broyden might be to small

 eigenvalues of (default mixing * dielectric matrix)
  average eigenvalue GAMMA=   0.9210
  2.0262  0.9254  0.3682  0.6494  0.6358

 Free energy of the ion-electron system (eV)
  ---------------------------------------------------
  alpha Z        PSCENC =       197.34565003
  Ewald energy   TEWEN  =     -7340.57008550
  -Hartree energ DENC   =      -492.71494754
  -exchange      EXHF   =         0.00000000
  -V(xc)+E(xc)   XCENC  =      -302.32627389
  PAW double counting   =      8105.83006135    -7453.54426655
  entropy T*S    EENTRO =        -0.00000000
  eigenvalues    EBANDS =        18.53251162
  atomic energy  EATOM  =      6621.25421386
  Solvation  Ediel_sol  =         0.00000000
  ---------------------------------------------------
  free energy    TOTEN  =      -646.19313663 eV

  energy without entropy =     -646.19313663  energy(sigma->0) =     -646.19313663


--------------------------------------------------------------------------------------------------------




--------------------------------------- Iteration      1(   7)  ---------------------------------------


    POTLOK:  cpu time      0.7074: real time      0.7084
    SETDIJ:  cpu time      1.9644: real time      1.9654
    EDDIAG:  cpu time     13.9596: real time     13.9697
     EDDAV:  cpu time     85.0543: real time     85.1143
       DOS:  cpu time      0.0056: real time      0.0056
    CHARGE:  cpu time      9.4189: real time      9.4247
    MIXING:  cpu time      0.0177: real time      0.0177
    --------------------------------------------
      LOOP:  cpu time    111.1280: real time    111.2058

 eigenvalue-minimisations  :  3736
 total energy-change (2. order) :-0.3853718E-03  (-0.1098243E-03)
 number of electron     257.9999999 magnetization 
 augmentation part      -14.8461986 magnetization 

 Broyden mixing:
  rms(total) = 0.42897E-01    rms(broyden)= 0.58754E+00
  rms(prec ) = 0.55112E-01
  weight for this iteration     100.00
  WARNING: grid for Broyden might be to small

 eigenvalues of (default mixing * dielectric matrix)
  average eigenvalue GAMMA=   0.9991
  2.3446  1.2029  0.3626  0.7980  0.6605  0.6258

 Free energy of the ion-electron system (eV)
  ---------------------------------------------------
  alpha Z        PSCENC =       197.34565003
  Ewald energy   TEWEN  =     -7340.57008550
  -Hartree energ DENC   =      -493.06893183
  -exchange      EXHF   =         0.00000000
  -V(xc)+E(xc)   XCENC  =      -302.38313419
  PAW double counting   =      8106.38035258    -7454.10106659
  entropy T*S    EENTRO =        -0.00000000
  eigenvalues    EBANDS =        18.94947965
  atomic energy  EATOM  =      6621.25421386
  Solvation  Ediel_sol  =         0.00000000
  ---------------------------------------------------
  free energy    TOTEN  =      -646.19352200 eV

  energy without entropy =     -646.19352200  energy(sigma->0) =     -646.19352200


--------------------------------------------------------------------------------------------------------




--------------------------------------- Iteration      1(   8)  ---------------------------------------


    POTLOK:  cpu time      0.7068: real time      0.7073
    SETDIJ:  cpu time      1.9629: real time      1.9640
    EDDIAG:  cpu time     13.9330: real time     13.9434
     EDDAV:  cpu time     76.7051: real time     76.7584
       DOS:  cpu time      0.0057: real time      0.0057
    CHARGE:  cpu time      9.4470: real time      9.4515
    MIXING:  cpu time      0.0181: real time      0.0182
    --------------------------------------------
      LOOP:  cpu time    102.7786: real time    102.8485

 eigenvalue-minimisations  :  3184
 total energy-change (2. order) : 0.3292615E-03  (-0.1297300E-03)
 number of electron     257.9999999 magnetization 
 augmentation part      -14.8436725 magnetization 

 Broyden mixing:
  rms(total) = 0.31800E-01    rms(broyden)= 0.41778E+00
  rms(prec ) = 0.40804E-01
  weight for this iteration     100.00
  WARNING: grid for Broyden might be to small

 eigenvalues of (default mixing * dielectric matrix)
  average eigenvalue GAMMA=   1.0266
  2.4996  1.4349  0.9336  0.3658  0.7148  0.6187  0.6187

 Free energy of the ion-electron system (eV)
  ---------------------------------------------------
  alpha Z        PSCENC =       197.34565003
  Ewald energy   TEWEN  =     -7340.57008550
  -Hartree energ DENC   =      -494.06153825
  -exchange      EXHF   =         0.00000000
  -V(xc)+E(xc)   XCENC  =      -302.28657491
  PAW double counting   =      8110.12672684    -7457.86276360
  entropy T*S    EENTRO =        -0.00000000
  eigenvalues    EBANDS =        19.86117879
  atomic energy  EATOM  =      6621.25421386
  Solvation  Ediel_sol  =         0.00000000
  ---------------------------------------------------
  free energy    TOTEN  =      -646.19319274 eV

  energy without entropy =     -646.19319274  energy(sigma->0) =     -646.19319274


--------------------------------------------------------------------------------------------------------




--------------------------------------- Iteration      1(   9)  ---------------------------------------


    POTLOK:  cpu time      0.7066: real time      0.7074
    SETDIJ:  cpu time      1.9599: real time      1.9608
    EDDIAG:  cpu time     13.9280: real time     13.9374
     EDDAV:  cpu time     79.4810: real time     79.5380
       DOS:  cpu time      0.0057: real time      0.0057
    CHARGE:  cpu time      9.4416: real time      9.4468
    MIXING:  cpu time      0.0183: real time      0.0183
    --------------------------------------------
      LOOP:  cpu time    105.5413: real time    105.6147

 eigenvalue-minimisations  :  3376
 total energy-change (2. order) : 0.3435864E-03  (-0.1461233E-03)
 number of electron     257.9999999 magnetization 
 augmentation part      -14.8408942 magnetization 

 Broyden mixing:
  rms(total) = 0.19377E-01    rms(broyden)= 0.26237E+00
  rms(prec ) = 0.24881E-01
  weight for this iteration     100.00
  WARNING: grid for Broyden might be to small

 eigenvalues of (default mixing * dielectric matrix)
  average eigenvalue GAMMA=   1.0464
  2.5815  1.6231  1.0393  0.3642  0.8427  0.6586  0.6586  0.6034

 Free energy of the ion-electron system (eV)
  ---------------------------------------------------
  alpha Z        PSCENC =       197.34565003
  Ewald energy   TEWEN  =     -7340.57008550
  -Hartree energ DENC   =      -495.16247621
  -exchange      EXHF   =         0.00000000
  -V(xc)+E(xc)   XCENC  =      -302.14650409
  PAW double counting   =      8114.36630771    -7462.11724775
  entropy T*S    EENTRO =        -0.00000000
  eigenvalues    EBANDS =        20.83729280
  atomic energy  EATOM  =      6621.25421386
  Solvation  Ediel_sol  =         0.00000000
  ---------------------------------------------------
  free energy    TOTEN  =      -646.19284916 eV

  energy without entropy =     -646.19284915  energy(sigma->0) =     -646.19284915


--------------------------------------------------------------------------------------------------------




--------------------------------------- Iteration      1(  10)  ---------------------------------------


    POTLOK:  cpu time      0.7088: real time      0.7095
    SETDIJ:  cpu time      1.9640: real time      1.9650
    EDDIAG:  cpu time     13.9439: real time     13.9534
     EDDAV:  cpu time     78.6859: real time     78.7383
       DOS:  cpu time      0.0059: real time      0.0059
    CHARGE:  cpu time      9.4565: real time      9.4623
    MIXING:  cpu time      0.0184: real time      0.0184
    --------------------------------------------
      LOOP:  cpu time    104.7832: real time    104.8527

 eigenvalue-minimisations  :  3312
 total energy-change (2. order) : 0.2310987E-03  (-0.1220242E-03)
 number of electron     257.9999999 magnetization 
 augmentation part      -14.8381227 magnetization 

 Broyden mixing:
  rms(total) = 0.77685E-02    rms(broyden)= 0.10743E+00
  rms(prec ) = 0.99709E-02
  weight for this iteration     100.00
  WARNING: grid for Broyden might be to small

 eigenvalues of (default mixing * dielectric matrix)
  average eigenvalue GAMMA=   1.2746
  3.5801  2.3891  1.4192  1.0259  0.3647  0.7901  0.6674  0.6174  0.6174

 Free energy of the ion-electron system (eV)
  ---------------------------------------------------
  alpha Z        PSCENC =       197.34565003
  Ewald energy   TEWEN  =     -7340.57008550
  -Hartree energ DENC   =      -496.19262703
  -exchange      EXHF   =         0.00000000
  -V(xc)+E(xc)   XCENC  =      -302.02041632
  PAW double counting   =      8117.89271651    -7465.65573137
  entropy T*S    EENTRO =        -0.00000000
  eigenvalues    EBANDS =        21.75366177
  atomic energy  EATOM  =      6621.25421386
  Solvation  Ediel_sol  =         0.00000000
  ---------------------------------------------------
  free energy    TOTEN  =      -646.19261806 eV

  energy without entropy =     -646.19261806  energy(sigma->0) =     -646.19261806


--------------------------------------------------------------------------------------------------------




--------------------------------------- Iteration      1(  11)  ---------------------------------------


    POTLOK:  cpu time      0.7037: real time      0.7047
    SETDIJ:  cpu time      1.9632: real time      1.9643
    EDDIAG:  cpu time     13.9741: real time     13.9833
     EDDAV:  cpu time     87.3012: real time     87.3584
       DOS:  cpu time      0.0060: real time      0.0060
    CHARGE:  cpu time      9.4342: real time      9.4392
    MIXING:  cpu time      0.0187: real time      0.0187
    --------------------------------------------
      LOOP:  cpu time    113.4011: real time    113.4746

 eigenvalue-minimisations  :  3888
 total energy-change (2. order) : 0.9193296E-05  (-0.3349546E-04)
 number of electron     257.9999999 magnetization 
 augmentation part      -14.8367778 magnetization 

 Broyden mixing:
  rms(total) = 0.20108E-02    rms(broyden)= 0.26839E-01
  rms(prec ) = 0.25963E-02
  weight for this iteration     100.00
  WARNING: grid for Broyden might be to small

 eigenvalues of (default mixing * dielectric matrix)
  average eigenvalue GAMMA=   1.5078
  6.1274  2.4913  1.5183  1.0802  0.3647  0.8813  0.7345  0.6278  0.6278  0.6244

 Free energy of the ion-electron system (eV)
  ---------------------------------------------------
  alpha Z        PSCENC =       197.34565003
  Ewald energy   TEWEN  =     -7340.57008550
  -Hartree energ DENC   =      -496.70607588
  -exchange      EXHF   =         0.00000000
  -V(xc)+E(xc)   XCENC  =      -301.95977369
  PAW double counting   =      8119.64706364    -7467.41456411
  entropy T*S    EENTRO =        -0.00000000
  eigenvalues    EBANDS =        22.21096280
  atomic energy  EATOM  =      6621.25421386
  Solvation  Ediel_sol  =         0.00000000
  ---------------------------------------------------
  free energy    TOTEN  =      -646.19260886 eV

  energy without entropy =     -646.19260886  energy(sigma->0) =     -646.19260886


--------------------------------------------------------------------------------------------------------




--------------------------------------- Iteration      1(  12)  ---------------------------------------


    POTLOK:  cpu time      0.7067: real time      0.7076
    SETDIJ:  cpu time      1.9666: real time      1.9676
    EDDIAG:  cpu time     13.9027: real time     13.9116
     EDDAV:  cpu time     84.3005: real time     84.3608
       DOS:  cpu time      0.0042: real time      0.0042
    CHARGE:  cpu time      9.4302: real time      9.4362
    MIXING:  cpu time      0.0190: real time      0.0190
    --------------------------------------------
      LOOP:  cpu time    110.3299: real time    110.4070

 eigenvalue-minimisations  :  3696
 total energy-change (2. order) :-0.3784193E-05  (-0.4323186E-05)
 number of electron     257.9999999 magnetization 
 augmentation part      -14.8362773 magnetization 

 Broyden mixing:
  rms(total) = 0.20110E-03    rms(broyden)= 0.40716E-02
  rms(prec ) = 0.24681E-03
  weight for this iteration     100.00
  WARNING: grid for Broyden might be to small

 eigenvalues of (default mixing * dielectric matrix)
  average eigenvalue GAMMA=   1.4958
  6.5141  2.5024  1.5483  1.1747  0.3647  0.9555  0.8154  0.7023  0.6426  0.6292
  0.6038

 Free energy of the ion-electron system (eV)
  ---------------------------------------------------
  alpha Z        PSCENC =       197.34565003
  Ewald energy   TEWEN  =     -7340.57008550
  -Hartree energ DENC   =      -496.90110125
  -exchange      EXHF   =         0.00000000
  -V(xc)+E(xc)   XCENC  =      -301.93749268
  PAW double counting   =      8120.41560127    -7468.18469730
  entropy T*S    EENTRO =        -0.00000000
  eigenvalues    EBANDS =        22.38529893
  atomic energy  EATOM  =      6621.25421386
  Solvation  Ediel_sol  =         0.00000000
  ---------------------------------------------------
  free energy    TOTEN  =      -646.19261265 eV

  energy without entropy =     -646.19261265  energy(sigma->0) =     -646.19261265


--------------------------------------------------------------------------------------------------------




--------------------------------------- Iteration      1(  13)  ---------------------------------------


    POTLOK:  cpu time      0.6956: real time      0.7057
    SETDIJ:  cpu time      1.9663: real time      1.9671
    EDDIAG:  cpu time     13.9387: real time     13.9481
     EDDAV:  cpu time     75.4989: real time     75.5517
       DOS:  cpu time      0.0054: real time      0.0054
    CHARGE:  cpu time      9.4904: real time      9.4956
    MIXING:  cpu time      0.0186: real time      0.0190
    --------------------------------------------
      LOOP:  cpu time    101.6139: real time    101.6925

 eigenvalue-minimisations  :  3104
 total energy-change (2. order) :-0.8523899E-05  (-0.5372141E-06)
 number of electron     257.9999999 magnetization 
 augmentation part      -14.8364007 magnetization 

 Broyden mixing:
  rms(total) = 0.29116E-03    rms(broyden)= 0.38079E-02
  rms(prec ) = 0.38454E-03
  weight for this iteration     100.00
  WARNING: grid for Broyden might be to small

 eigenvalues of (default mixing * dielectric matrix)
  average eigenvalue GAMMA=   1.4679
  6.6761  2.5069  1.5726  1.3247  0.9899  0.9168  0.3647  0.7576  0.6451  0.6451
  0.6076  0.6076

 Free energy of the ion-electron system (eV)
  ---------------------------------------------------
  alpha Z        PSCENC =       197.34565003
  Ewald energy   TEWEN  =     -7340.57008550
  -Hartree energ DENC   =      -496.86593331
  -exchange      EXHF   =         0.00000000
  -V(xc)+E(xc)   XCENC  =      -301.94568388
  PAW double counting   =      8120.31450660    -7468.08293028
  entropy T*S    EENTRO =        -0.00000000
  eigenvalues    EBANDS =        22.35764131
  atomic energy  EATOM  =      6621.25421386
  Solvation  Ediel_sol  =         0.00000000
  ---------------------------------------------------
  free energy    TOTEN  =      -646.19262117 eV

  energy without entropy =     -646.19262117  energy(sigma->0) =     -646.19262117


--------------------------------------------------------------------------------------------------------




--------------------------------------- Iteration      1(  14)  ---------------------------------------


    POTLOK:  cpu time      0.7079: real time      0.7083
    SETDIJ:  cpu time      1.9667: real time      1.9677
    EDDIAG:  cpu time     13.8878: real time     13.8981
     EDDAV:  cpu time     57.4503: real time     57.4876
       DOS:  cpu time      0.0054: real time      0.0054
    --------------------------------------------
      LOOP:  cpu time     74.0185: real time     74.0674

 eigenvalue-minimisations  :  1896
 total energy-change (2. order) :-0.2778779E-06  (-0.6159180E-07)
 number of electron     257.9999999 magnetization 
 augmentation part      -14.8364007 magnetization 

 Free energy of the ion-electron system (eV)
  ---------------------------------------------------
  alpha Z        PSCENC =       197.34565003
  Ewald energy   TEWEN  =     -7340.57008550
  -Hartree energ DENC   =      -496.88301197
  -exchange      EXHF   =         0.00000000
  -V(xc)+E(xc)   XCENC  =      -301.94271991
  PAW double counting   =      8120.40601145    -7468.17449615
  entropy T*S    EENTRO =        -0.00000000
  eigenvalues    EBANDS =        22.37181675
  atomic energy  EATOM  =      6621.25421386
  Solvation  Ediel_sol  =         0.00000000
  ---------------------------------------------------
  free energy    TOTEN  =      -646.19262145 eV

  energy without entropy =     -646.19262145  energy(sigma->0) =     -646.19262145


--------------------------------------------------------------------------------------------------------




 average (electrostatic) potential at core
  the test charge radii are     1.1243  0.5201
  (the norm of the test charge is              1.0000)
       1 -69.3292       2 -69.4038       3 -69.3763       4 -69.3753       5 -69.3764
       6 -69.3753       7 -69.3490       8 -69.4038       9 -69.3481      10 -69.3424
      11 -69.3429      12 -69.3446      13 -69.3429      14 -69.3446      15 -69.3403
      16 -69.3424      17 -69.3482      18 -69.3537      19 -69.3495      20 -69.3537
      21 -69.3764      22 -69.3537      23 -69.3477      24 -69.3537      25 -69.3026
      26 -69.3395      27 -69.3449      28 -69.3434      29 -69.3429      30 -69.3434
      31 -69.3475      32 -69.3395      33 -69.3482      34 -69.3537      35 -69.3764
      36 -69.3537      37 -69.3495      38 -69.3537      39 -69.3477      40 -69.3537
      41 -69.3026      42 -69.3395      43 -69.3429      44 -69.3434      45 -69.3449
      46 -69.3434      47 -69.3475      48 -69.3395      49 -69.3292      50 -69.3454
      51 -69.3495      52 -69.3382      53 -69.3495      54 -69.3382      55 -69.3458
      56 -69.3454      57 -69.3481      58 -69.3458      59 -69.3449      60 -69.3467
      61 -69.3449      62 -69.3467      63 -69.3411      64 -69.3458      65 -35.4290
      66 -35.4313



 E-fermi :   5.7466     XC(G=0):  -9.8271     alpha+bet :-11.6589

 WARNING: Could not determine fundamental gap because eigenvalues are not
     sorted.

 Fermi energy:         5.7465728280

 k-point     1 :       0.0000    0.0000    0.0000
  band No.  band energies     occupation 
      1      -7.2600      2.00000
      2      -6.5277      2.00000
      3      -5.9628      2.00000
      4      -5.9499      2.00000
      5      -5.9493      2.00000
      6      -5.9456      2.00000
      7      -5.9425      2.00000
      8      -5.3457      2.00000
      9      -5.0122      2.00000
     10      -4.9743      2.00000
     11      -4.9676      2.00000
     12      -4.9427      2.00000
     13      -4.9403      2.00000
     14      -4.9389      2.00000
     15      -4.9385      2.00000
     16      -4.9370      2.00000
     17      -4.9366      2.00000
     18      -4.9365      2.00000
     19      -4.9336      2.00000
     20      -4.6656      2.00000
     21      -4.6572      2.00000
     22      -4.6548      2.00000
     23      -4.6518      2.00000
     24      -3.2382      2.00000
     25      -2.7895      2.00000
     26      -2.7582      2.00000
     27      -2.7549      2.00000
     28      -2.7543      2.00000
     29      -2.7470      2.00000
     30      -2.6278      2.00000
     31      -2.6029      2.00000
     32      -2.5994      2.00000
     33      -2.5880      2.00000
     34      -2.5810      2.00000
     35      -2.5724      2.00000
     36      -2.5684      2.00000
     37      -2.5679      2.00000
     38      -2.5675      2.00000
     39      -2.5671      2.00000
     40      -2.5668      2.00000
     41      -2.5656      2.00000
     42      -2.5151      2.00000
     43      -1.8560      2.00000
     44      -1.8540      2.00000
     45      -1.8539      2.00000
     46      -1.2235      2.00000
     47      -0.3496      2.00000
     48      -0.3173      2.00000
     49      -0.3145      2.00000
     50      -0.3118      2.00000
     51      -0.3087      2.00000
     52      -0.3062      2.00000
     53      -0.3057      2.00000
     54      -0.3002      2.00000
     55      -0.2945      2.00000
     56      -0.2929      2.00000
     57      -0.2921      2.00000
     58      -0.1490      2.00000
     59       1.2621      2.00000
     60       1.3425      2.00000
     61       1.3449      2.00000
     62       1.3730      2.00000
     63       1.3744      2.00000
     64       1.3781      2.00000
     65       1.3795      2.00000
     66       1.3827      2.00000
     67       1.3850      2.00000
     68       1.3856      2.00000
     69       1.3860      2.00000
     70       1.4385      2.00000
     71       1.4632      2.00000
     72       1.4754      2.00000
     73       1.4775      2.00000
     74       1.4825      2.00000
     75       1.4839      2.00000
     76       1.4869      2.00000
     77       1.4902      2.00000
     78       1.4902      2.00000
     79       1.4932      2.00000
     80       1.4933      2.00000
     81       1.4961      2.00000
     82       1.7486      2.00000
     83       1.7499      2.00000
     84       1.7500      2.00000
     85       1.7549      2.00000
     86       1.7561      2.00000
     87       1.7610      2.00000
     88       2.3239      2.00000
     89       2.3630      2.00000
     90       2.3670      2.00000
     91       2.3827      2.00000
     92       2.3835      2.00000
     93       2.3852      2.00000
     94       2.9768      2.00000
     95       3.2879      2.00000
     96       3.3466      2.00000
     97       3.3554      2.00000
     98       3.3800      2.00000
     99       3.3820      2.00000
    100       3.3837      2.00000
    101       3.3889      2.00000
    102       3.3893      2.00000
    103       3.3918      2.00000
    104       3.3948      2.00000
    105       3.3960      2.00000
    106       3.3971      2.00000
    107       3.9151      2.00000
    108       3.9235      2.00000
    109       3.9386      2.00000
    110       3.9465      2.00000
    111       3.9504      2.00000
    112       3.9591      2.00000
    113       3.9609      2.00000
    114       3.9638      2.00000
    115       3.9691      2.00000
    116       3.9695      2.00000
    117       3.9711      2.00000
    118       3.9711      2.00000
    119       4.0814      2.00000
    120       4.0850      2.00000
    121       4.0849      2.00000
    122       4.0898      2.00000
    123       4.0912      2.00000
    124       4.0918      2.00000
    125       4.0935      2.00000
    126       4.0945      2.00000
    127       5.3227      2.00000
    128       5.3232      2.00000
    129       5.3245      2.00000
    130       6.2711      0.00000
    131       6.2806      0.00000
    132       6.2859      0.00000
    133       6.2948      0.00000
    134       6.2952      0.00000
    135       6.4861      0.00000
    136       6.6860      0.00000
    137       6.7011      0.00000
    138       6.7072      0.00000
    139       6.7206      0.00000
    140       6.7232      0.00000
    141       7.0140      0.00000
    142       7.2061      0.00000
    143       7.2324      0.00000
    144       7.2356      0.00000
    145       7.4575      0.00000
    146       7.8120      0.00000
    147       8.0398      0.00000
    148       8.0494      0.00000
    149       8.1160      0.00000
[...]

  length of vectors
    10.860000000 10.860000000 10.860000000     0.092081031  0.092081031  0.092081031


 FORCES acting on ions
    electron-ion (+dipol)            ewald-force                    non-local-force                 convergence-correction
 -----------------------------------------------------------------------------------------------
   0.241E+01 0.241E+01 0.246E+01   -.231E+01 -.231E+01 -.237E+01   -.115E+00 -.115E+00 -.930E-01   0.564E-04 0.564E-04 -.742E-05
   0.117E+02 0.117E+02 0.124E+02   -.117E+02 -.117E+02 -.126E+02   -.201E+00 -.201E+00 -.104E+00   0.978E-04 0.978E-04 0.679E-04
   0.146E+02 -.381E+00 0.525E-01   -.146E+02 0.433E+00 0.538E-15   -.240E+00 -.145E-01 -.353E-01   0.129E-03 -.456E-05 -.183E-05
   0.111E+02 -.111E+02 -.110E+02   -.111E+02 0.111E+02 0.111E+02   -.164E+00 0.164E+00 0.123E+00   0.144E-03 -.144E-03 -.930E-04
   -.381E+00 0.146E+02 0.525E-01   0.433E+00 -.146E+02 -.102E-13   -.145E-01 -.240E+00 -.353E-01   -.456E-05 0.129E-03 -.183E-05
   -.111E+02 0.111E+02 -.110E+02   0.111E+02 -.111E+02 0.111E+02   0.164E+00 -.164E+00 0.123E+00   -.144E-03 0.144E-03 -.930E-04
   0.237E-09 0.237E-09 0.141E+02   0.143E-13 0.457E-14 -.140E+02   -.511E-18 -.226E-17 -.361E+00   0.174E-13 0.426E-14 0.584E-04
   -.117E+02 -.117E+02 0.124E+02   0.117E+02 0.117E+02 -.126E+02   0.201E+00 0.201E+00 -.104E+00   -.978E-04 -.978E-04 0.679E-04
   0.233E+01 0.233E+01 -.236E+01   -.231E+01 -.231E+01 0.237E+01   -.954E-02 -.954E-02 -.534E-02   0.969E-04 0.969E-04 -.149E-04
   0.154E+01 0.154E+01 -.318E+01   -.151E+01 -.151E+01 0.320E+01   -.142E-01 -.142E-01 -.289E-02   0.662E-04 0.662E-04 -.974E-05
   0.145E+01 -.116E-01 -.418E-02   -.146E+01 0.111E-01 -.193E-14   0.395E-02 -.849E-03 0.304E-02   0.625E-04 -.146E-04 0.557E-05
   0.154E+01 -.154E+01 0.313E+01   -.152E+01 0.152E+01 -.316E+01   -.471E-02 0.471E-02 0.800E-02   0.574E-04 -.574E-04 0.169E-04
   -.116E-01 0.145E+01 -.418E-02   0.111E-01 -.146E+01 0.298E-14   -.849E-03 0.395E-02 0.304E-02   -.146E-04 0.625E-04 0.557E-05
   -.154E+01 0.154E+01 0.313E+01   0.152E+01 -.152E+01 -.316E+01   0.471E-02 -.471E-02 0.800E-02   -.574E-04 0.574E-04 0.169E-04
   0.194E-09 0.194E-09 -.141E+02   -.829E-14 -.104E-13 0.140E+02   -.134E-17 -.126E-17 0.376E+00   0.517E-14 0.290E-15 -.696E-04
   -.154E+01 -.154E+01 -.318E+01   0.151E+01 0.151E+01 0.320E+01   0.142E-01 0.142E-01 -.289E-02   -.662E-04 -.662E-04 -.974E-05
   0.228E+01 -.228E+01 0.228E+01   -.227E+01 0.227E+01 -.228E+01   -.849E-02 0.849E-02 0.397E-02   0.749E-04 -.749E-04 0.134E-04
   0.156E+01 -.309E+01 0.154E+01   -.157E+01 0.315E+01 -.155E+01   0.132E-01 -.390E-01 0.984E-02   0.726E-04 -.627E-04 0.970E-05
   0.146E+01 0.434E-01 0.901E-02   -.149E+01 -.445E-01 0.145E-14   0.229E-01 -.880E-03 -.519E-02   0.736E-04 0.163E-04 -.303E-04
   0.152E+01 0.322E+01 -.158E+01   -.153E+01 -.327E+01 0.159E+01   0.137E-01 0.357E-01 -.196E-01   0.686E-04 0.819E-04 -.344E-04
   0.381E+00 -.146E+02 0.525E-01   -.433E+00 0.146E+02 -.109E-13   0.145E-01 0.240E+00 -.353E-01   0.456E-05 -.129E-03 -.183E-05
   -.152E+01 -.322E+01 -.158E+01   0.153E+01 0.327E+01 0.159E+01   -.137E-01 -.357E-01 -.196E-01   -.686E-04 -.819E-04 -.344E-04
   0.237E-09 0.218E-09 0.148E+01   0.852E-14 -.119E-13 -.150E+01   0.425E-17 0.507E-17 0.202E-01   0.156E-13 -.560E-14 -.356E-05
   -.156E+01 0.309E+01 0.154E+01   0.157E+01 -.315E+01 -.155E+01   -.132E-01 0.390E-01 0.984E-02   -.726E-04 0.627E-04 0.970E-05
   0.247E+01 -.247E+01 -.249E+01   -.227E+01 0.227E+01 0.228E+01   -.189E+00 0.189E+00 0.191E+00   0.648E-04 -.648E-04 0.217E-04
   0.663E+00 -.114E+01 -.115E+01   -.691E+00 0.114E+01 0.116E+01   0.181E-01 0.985E-02 -.166E-02   0.560E-04 -.338E-04 0.282E-04
   0.679E+00 0.154E-03 -.116E-01   -.669E+00 -.765E-02 0.972E-14   -.514E-03 0.873E-02 0.109E-01   0.908E-04 0.814E-05 0.176E-04
   0.673E+00 0.114E+01 0.114E+01   -.679E+00 -.115E+01 -.117E+01   0.627E-02 0.107E-01 0.240E-01   0.368E-04 0.540E-04 0.622E-05
   0.116E-01 -.145E+01 -.418E-02   -.111E-01 0.146E+01 -.338E-14   0.849E-03 -.395E-02 0.304E-02   0.146E-04 -.625E-04 0.557E-05
   -.673E+00 -.114E+01 0.114E+01   0.679E+00 0.115E+01 -.117E+01   -.627E-02 -.107E-01 0.240E-01   -.368E-04 -.540E-04 0.622E-05
   0.202E-09 0.221E-09 -.146E+01   0.135E-14 0.569E-14 0.150E+01   -.403E-17 -.330E-17 -.307E-01   0.179E-13 -.449E-14 0.107E-04
   -.663E+00 0.114E+01 -.115E+01   0.691E+00 -.114E+01 0.116E+01   -.181E-01 -.985E-02 -.166E-02   -.560E-04 0.338E-04 0.282E-04
   -.228E+01 0.228E+01 0.228E+01   0.227E+01 -.227E+01 -.228E+01   0.849E-02 -.849E-02 0.397E-02   -.749E-04 0.749E-04 0.134E-04
   -.309E+01 0.156E+01 0.154E+01   0.315E+01 -.157E+01 -.155E+01   -.390E-01 0.132E-01 0.984E-02   -.627E-04 0.726E-04 0.970E-05
   -.146E+02 0.381E+00 0.525E-01   0.146E+02 -.433E+00 0.273E-14   0.240E+00 0.145E-01 -.353E-01   -.129E-03 0.456E-05 -.183E-05
   -.322E+01 -.152E+01 -.158E+01   0.327E+01 0.153E+01 0.159E+01   -.357E-01 -.137E-01 -.196E-01   -.819E-04 -.686E-04 -.344E-04
   0.434E-01 0.146E+01 0.901E-02   -.445E-01 -.149E+01 -.820E-14   -.880E-03 0.229E-01 -.519E-02   0.163E-04 0.736E-04 -.303E-04
   0.322E+01 0.152E+01 -.158E+01   -.327E+01 -.153E+01 0.159E+01   0.357E-01 0.137E-01 -.196E-01   0.819E-04 0.686E-04 -.344E-04
   0.219E-09 0.237E-09 0.148E+01   -.511E-14 0.289E-14 -.150E+01   -.361E-17 -.466E-17 0.202E-01   -.137E-13 0.410E-14 -.356E-05
   0.309E+01 -.156E+01 0.154E+01   -.315E+01 0.157E+01 -.155E+01   0.390E-01 -.132E-01 0.984E-02   0.627E-04 -.726E-04 0.970E-05
   -.247E+01 0.247E+01 -.249E+01   0.227E+01 -.227E+01 0.228E+01   0.189E+00 -.189E+00 0.191E+00   -.648E-04 0.648E-04 0.217E-04
   -.114E+01 0.663E+00 -.115E+01   0.114E+01 -.691E+00 0.116E+01   0.985E-02 0.181E-01 -.166E-02   -.338E-04 0.560E-04 0.282E-04
   -.145E+01 0.116E-01 -.418E-02   0.146E+01 -.111E-01 -.179E-14   -.395E-02 0.849E-03 0.304E-02   -.625E-04 0.146E-04 0.557E-05
   -.114E+01 -.673E+00 0.114E+01   0.115E+01 0.679E+00 -.117E+01   -.107E-01 -.627E-02 0.240E-01   -.540E-04 -.368E-04 0.622E-05
   0.154E-03 0.679E+00 -.116E-01   -.765E-02 -.669E+00 0.438E-14   0.873E-02 -.514E-03 0.109E-01   0.814E-05 0.908E-04 0.176E-04
   0.114E+01 0.673E+00 0.114E+01   -.115E+01 -.679E+00 -.117E+01   0.107E-01 0.627E-02 0.240E-01   0.540E-04 0.368E-04 0.622E-05
   0.221E-09 0.203E-09 -.146E+01   -.147E-13 -.530E-14 0.150E+01   -.235E-17 0.434E-17 -.307E-01   -.105E-13 0.132E-13 0.107E-04
   0.114E+01 -.663E+00 -.115E+01   -.114E+01 0.691E+00 0.116E+01   -.985E-02 -.181E-01 -.166E-02   0.338E-04 -.560E-04 0.282E-04
   -.241E+01 -.241E+01 0.246E+01   0.231E+01 0.231E+01 -.237E+01   0.115E+00 0.115E+00 -.930E-01   -.564E-04 -.564E-04 -.742E-05
   -.117E+01 -.117E+01 0.684E+00   0.118E+01 0.118E+01 -.706E+00   -.441E-02 -.441E-02 0.123E-01   -.574E-04 -.574E-04 -.209E-04
   -.146E+01 -.434E-01 0.901E-02   0.149E+01 0.445E-01 0.380E-14   -.229E-01 0.880E-03 -.519E-02   -.736E-04 -.163E-04 -.303E-04
   -.114E+01 0.114E+01 -.640E+00   0.114E+01 -.114E+01 0.691E+00   0.364E-02 -.364E-02 -.325E-01   -.439E-04 0.439E-04 -.219E-04
   -.434E-01 -.146E+01 0.901E-02   0.445E-01 0.149E+01 -.940E-14   0.880E-03 -.229E-01 -.519E-02   -.163E-04 -.736E-04 -.303E-04
   0.114E+01 -.114E+01 -.640E+00   -.114E+01 0.114E+01 0.691E+00   -.364E-02 0.364E-02 -.325E-01   0.439E-04 -.439E-04 -.219E-04
   0.220E-09 0.221E-09 0.683E+00   -.130E-14 -.658E-14 -.681E+00   -.298E-18 -.249E-17 0.380E-02   -.149E-13 -.370E-14 0.547E-05
   0.117E+01 0.117E+01 0.684E+00   -.118E+01 -.118E+01 -.706E+00   0.441E-02 0.441E-02 0.123E-01   0.574E-04 0.574E-04 -.209E-04
   -.233E+01 -.233E+01 -.236E+01   0.231E+01 0.231E+01 0.237E+01   0.954E-02 0.954E-02 -.534E-02   -.969E-04 -.969E-04 -.149E-04
   -.611E+00 -.611E+00 -.621E+00   0.623E+00 0.623E+00 0.630E+00   -.932E-02 -.932E-02 -.742E-02   -.500E-04 -.500E-04 0.353E-04
   -.679E+00 -.154E-03 -.116E-01   0.669E+00 0.765E-02 0.580E-14   0.514E-03 -.873E-02 0.109E-01   -.908E-04 -.814E-05 0.176E-04
   -.602E+00 0.602E+00 0.612E+00   0.611E+00 -.611E+00 -.623E+00   -.673E-02 0.673E-02 0.872E-02   -.343E-04 0.343E-04 0.125E-04
   -.154E-03 -.679E+00 -.116E-01   0.765E-02 0.669E+00 0.509E-14   -.873E-02 0.514E-03 0.109E-01   -.814E-05 -.908E-04 0.176E-04
   0.602E+00 -.602E+00 0.612E+00   -.611E+00 0.611E+00 -.623E+00   0.673E-02 -.673E-02 0.872E-02   0.343E-04 -.343E-04 0.125E-04
   0.220E-09 0.221E-09 -.707E+00   -.213E-14 0.653E-14 0.681E+00   0.199E-17 0.186E-17 0.883E-02   -.175E-13 -.162E-13 -.209E-05
   0.611E+00 0.611E+00 -.621E+00   -.623E+00 -.623E+00 0.630E+00   0.932E-02 0.932E-02 -.742E-02   0.500E-04 0.500E-04 0.353E-04
   0.114E+02 0.114E+02 -.123E+01   -.154E+02 -.154E+02 0.139E+01   0.345E+01 0.345E+01 -.118E+00   0.614E-05 0.614E-05 0.749E-05
   -.114E+02 -.114E+02 -.123E+01   0.154E+02 0.154E+02 0.139E+01   -.345E+01 -.345E+01 -.118E+00   -.614E-05 -.614E-05 0.749E-05
 -----------------------------------------------------------------------------------------------
   -.141E-05 -.141E-05 0.857E-01   -.853E-13 0.817E-13 -.178E-14   0.000E+00 0.000E+00 -.838E-01   -.188E-13 -.140E-13 0.246E-04


 POSITION                                       TOTAL-FORCE (eV/Angst)
 -----------------------------------------------------------------------------------
      0.00000      0.00000      0.00000        -0.028405     -0.028405     -0.013690
      1.35750      1.35750      1.35750        -0.227115     -0.227115     -0.305576
      0.00000      2.71500      2.71500        -0.284724      0.035187      0.014948
      1.35750      4.07250      4.07250        -0.217089      0.217089      0.246447
      2.71500      0.00000      2.71500         0.035187     -0.284724      0.014948
      4.07250      1.35750      4.07250         0.217089     -0.217089      0.246447
      2.71500      2.71500      0.00000         0.000000     -0.000000     -0.267427
      4.07250      4.07250      1.35750         0.227115      0.227115     -0.305576
      0.00000      0.00000      5.43000         0.000425      0.000425      0.003126
      1.35750      1.35750      6.78750         0.014162      0.014162      0.018698
      0.00000      2.71500      8.14500        -0.010029     -0.001513     -0.000892
      1.35750      4.07250      9.50250         0.014567     -0.014567     -0.018576
      2.71500      0.00000      8.14500        -0.001513     -0.010029     -0.000892
      4.07250      1.35750      9.50250        -0.014567      0.014567     -0.018576
      2.71500      2.71500      5.43000        -0.000000     -0.000000      0.253394
      4.07250      4.07250      6.78750        -0.014162     -0.014162      0.018698
      0.00000      5.43000      0.00000        -0.000026      0.000026     -0.002437
      1.35750      6.78750      1.35750         0.007106      0.015458      0.000409
      0.00000      8.14500      2.71500        -0.008085     -0.002002      0.003360
      1.35750      9.50250      4.07250         0.002642     -0.012662     -0.005295
      2.71500      5.43000      2.71500        -0.035187      0.284724      0.014948
      4.07250      6.78750      4.07250        -0.002642      0.012662     -0.005295
      2.71500      8.14500      0.00000         0.000000      0.000000     -0.006322
      4.07250      9.50250      1.35750        -0.007106     -0.015458      0.000409
      0.00000      5.43000      5.43000        -0.005726      0.005726     -0.002422
      1.35750      6.78750      6.78750        -0.007981      0.003346      0.002610
      0.00000      8.14500      8.14500         0.009142      0.001933      0.000045
      1.35750      9.50250      9.50250         0.000985      0.000187     -0.001036
      2.71500      5.43000      8.14500         0.001513      0.010029     -0.000892
      4.07250      6.78750      9.50250        -0.000985     -0.000187     -0.001036
      2.71500      8.14500      5.43000        -0.000000      0.000000      0.010298
      4.07250      9.50250      6.78750         0.007981     -0.003346      0.002610
      5.43000      0.00000      0.00000         0.000026     -0.000026     -0.002437
      6.78750      1.35750      1.35750         0.015458      0.007106      0.000409
      5.43000      2.71500      2.71500         0.284724     -0.035187      0.014948
      6.78750      4.07250      4.07250         0.012662     -0.002642     -0.005295
      8.14500      0.00000      2.71500        -0.002002     -0.008085      0.003360
      9.50250      1.35750      4.07250        -0.012662      0.002642     -0.005295
      8.14500      2.71500      0.00000         0.000000     -0.000000     -0.006322
      9.50250      4.07250      1.35750        -0.015458     -0.007106      0.000409
      5.43000      0.00000      5.43000         0.005726     -0.005726     -0.002422
      6.78750      1.35750      6.78750         0.003346     -0.007981      0.002610
      5.43000      2.71500      8.14500         0.010029      0.001513     -0.000892
      6.78750      4.07250      9.50250        -0.000187     -0.000985     -0.001036
      8.14500      0.00000      8.14500         0.001933      0.009142      0.000045
      9.50250      1.35750      9.50250         0.000187      0.000985     -0.001036
      8.14500      2.71500      5.43000        -0.000000      0.000000      0.010298
      9.50250      4.07250      6.78750        -0.003346      0.007981      0.002610
      5.43000      5.43000      0.00000         0.028405      0.028405     -0.013690
      6.78750      6.78750      1.35750         0.001956      0.001956     -0.008607
      5.43000      8.14500      2.71500         0.008085      0.002002      0.003360
      6.78750      9.50250      4.07250         0.002768     -0.002768      0.016521
      8.14500      5.43000      2.71500         0.002002      0.008085      0.003360
      9.50250      6.78750      4.07250        -0.002768      0.002768      0.016521
      8.14500      8.14500      0.00000         0.000000      0.000000      0.006376
      9.50250      9.50250      1.35750        -0.001956     -0.001956     -0.008607
      5.43000      5.43000      5.43000        -0.000425     -0.000425      0.003126
      6.78750      6.78750      6.78750         0.002791      0.002791      0.001232
      5.43000      8.14500      8.14500        -0.009142     -0.001933      0.000045
      6.78750      9.50250      9.50250         0.001818     -0.001818     -0.000676
      8.14500      5.43000      8.14500        -0.001933     -0.009142      0.000045
      9.50250      6.78750      9.50250        -0.001818      0.001818     -0.000676
      8.14500      8.14500      5.43000        -0.000000     -0.000000     -0.016514
      9.50250      9.50250      6.78750        -0.002791     -0.002791      0.001232
      2.45337      2.45337      2.71500        -0.616950     -0.616950      0.045769
      2.97663      2.97663      2.71500         0.616950      0.616950      0.045769
 -----------------------------------------------------------------------------------
    total drift:                               -0.000001     -0.000001      0.001891


--------------------------------------------------------------------------------------------------------



  FREE ENERGIE OF THE ION-ELECTRON SYSTEM (eV)
  ---------------------------------------------------
  free  energy   TOTEN  =      -646.19262145 eV

  energy  without entropy=     -646.19262145  energy(sigma->0) =     -646.19262145



--------------------------------------------------------------------------------------------------------


    POTLOK:  cpu time      2.6552: real time      2.6568


--------------------------------------------------------------------------------------------------------


     LOOP+:  cpu time   1613.7068: real time   1614.7903
    4ORBIT:  cpu time      0.0000: real time      0.0000



 total charge

# of ion       s       p       d       tot
------------------------------------------
    1        0.724   0.942   0.065   1.731
    2        0.726   0.941   0.072   1.739
    3        0.726   0.942   0.066   1.733
    4        0.729   0.936   0.070   1.734
    5        0.726   0.942   0.066   1.733
    6        0.729   0.936   0.070   1.734
    7        0.725   0.942   0.065   1.733
    8        0.726   0.941   0.072   1.739
    9        0.724   0.941   0.065   1.730
   10        0.723   0.941   0.065   1.729
   11        0.723   0.941   0.065   1.729
   12        0.723   0.941   0.065   1.729
   13        0.723   0.941   0.065   1.729
   14        0.723   0.941   0.065   1.729
   15        0.725   0.942   0.065   1.733
   16        0.723   0.941   0.065   1.729
   17        0.724   0.941   0.065   1.730
   18        0.723   0.941   0.065   1.729
   19        0.723   0.941   0.065   1.729
   20        0.723   0.941   0.065   1.729
   21        0.726   0.942   0.066   1.733
   22        0.723   0.941   0.065   1.729
   23        0.723   0.941   0.065   1.729
   24        0.723   0.941   0.065   1.729
   25        0.723   0.944   0.065   1.732
   26        0.723   0.941   0.065   1.729
   27        0.723   0.941   0.065   1.729
   28        0.723   0.941   0.065   1.729
   29        0.723   0.941   0.065   1.729
   30        0.723   0.941   0.065   1.729
   31        0.723   0.941   0.065   1.729
   32        0.723   0.941   0.065   1.729
   33        0.724   0.941   0.065   1.730
   34        0.723   0.941   0.065   1.729
   35        0.726   0.942   0.066   1.733
   36        0.723   0.941   0.065   1.729
   37        0.723   0.941   0.065   1.729
   38        0.723   0.941   0.065   1.729
   39        0.723   0.941   0.065   1.729
   40        0.723   0.941   0.065   1.729
   41        0.723   0.944   0.065   1.732
   42        0.723   0.941   0.065   1.729
   43        0.723   0.941   0.065   1.729
   44        0.723   0.941   0.065   1.729
   45        0.723   0.941   0.065   1.729
   46        0.723   0.941   0.065   1.729
   47        0.723   0.941   0.065   1.729
   48        0.723   0.941   0.065   1.729
   49        0.724   0.942   0.065   1.731
   50        0.723   0.941   0.065   1.729
   51        0.723   0.941   0.065   1.729
   52        0.723   0.941   0.065   1.729
   53        0.723   0.941   0.065   1.729
   54        0.723   0.941   0.065   1.729
   55        0.723   0.941   0.065   1.729
   56        0.723   0.941   0.065   1.729
   57        0.724   0.941   0.065   1.730
   58        0.723   0.941   0.065   1.729
   59        0.723   0.941   0.065   1.729
   60        0.723   0.941   0.065   1.729
   61        0.723   0.941   0.065   1.729
   62        0.723   0.941   0.065   1.729
   63        0.723   0.941   0.065   1.729
   64        0.723   0.941   0.065   1.729
   65        0.629   0.047   0.000   0.676
   66        0.629   0.047   0.000   0.676
--------------------------------------------------
tot         47.569  60.319   4.192 112.080


 total amount of memory used by VASP MPI-rank0   161911. kBytes
=======================================================================

   base                                    :      30000. kBytes
   nonl-proj                               :      25441. kBytes
   fftplans                                :      40723. kBytes
   grid                                    :      25513. kBytes
   one-center                              :         77. kBytes
   wavefun                                 :      40157. kBytes

  
  
 General timing and accounting informations for this job:
 ========================================================
  
                  Total CPU time used (sec):     1651.361
                            User time (sec):     1629.243
                          System time (sec):       22.118
                         Elapsed time (sec):     1652.491
  
                   Maximum memory used (kb):      624400.
                   Average memory used (kb):          N/A
  
                          Minor page faults:      2057760
                          Major page faults:         1139
                 Voluntary context switches:          920
