ITEM: TIMESTEP
204275
ITEM: NUMBER OF ATOMS
14500
ITEM: BOX BOUNDS pp pp pp
-1.8624718613163151e+00 5.9783655467492970e+01
-1.8624718613163151e+00 5.9783655467492970e+01
-1.8624718613163151e+00 6.5588831840568204e+01
ITEM: ATOMS id type xs ys zs
1 2 0.8514 0.0523549 0.328546
2 2 0.669182 0.069406 0.0143096
3 2 0.625353 0.228047 0.976602
4 2 0.210501 0.169862 0.252651
5 2 0.260726 0.340985 0.225253
6 2 0.149783 0.269427 0.205502
7 2 0.492429 0.437621 0.0616007
8 2 0.373996 0.227736 0.526516
9 2 0.205353 0.0553391 0.306127
10 2 0.31387 0.0845076 0.609328
11 2 0.336173 0.431521 0.110424
12 2 0.445235 0.180933 0.458122
13 2 0.50763 0.957081 0.184868
14 2 0.358667 0.972206 0.122075
15 2 0.1134 0.341748 0.376388
16 2 0.460132 0.205867 0.0946334
17 2 0.392515 0.113162 0.38986
18 2 0.326585 0.28866 0.717676
19 2 0.37278 0.10466 0.443999
20 2 0.817801 0.542471 0.181286
21 2 0.697792 0.0470862 0.219132
22 2 0.302401 0.341348 0.176055
23 2 0.125607 0.439017 0.715738
24 2 0.321314 0.292426 0.139361
25 2 0.180017 0.470773 0.425489
26 2 0.539501 0.587892 0.503448
27 2 0.594845 0.555015 0.176627
28 2 0.167251 0.342634 0.240038
29 2 0.967148 0.150558 0.387344
30 2 0.338754 0.371397 0.291407
31 2 0.547062 0.156337 0.160869
32 2 0.71462 0.238548 0.793411
33 2 0.499231 0.146705 0.186166
34 2 0.339298 0.477102 0.249373
35 2 0.1846 0.302457 0.500722
36 2 0.989683 0.403047 0.52321
37 2 0.0997247 0.500532 0.443757
38 2 0.0323755 0.259646 0.55961
39 2 0.159132 0.222638 0.28002
40 2 0.19432 0.989772 0.334678
41 2 0.957747 0.322742 0.113177
42 2 0.905602 0.0269927 0.934816
43 2 0.623304 0.321439 0.197104
44 2 0.312945 0.8101 0.480227
45 2 0.915992 0.423943 0.1625
46 2 0.586698 0.0445509 0.522848
47 2 0.422608 0.884564 0.5906
48 2 0.13043 0.096441 0.920626
49 2 0.578327 0.386029 0.405148
50 2 0.147679 0.219077 0.428415
51 2 0.61799 0.247931 0.786332
52 2 0.211721 0.0684744 0.957556
53 2 0.367398 0.125514 0.87475
54 2 0.327023 0.268811 0.396777
55 2 0.130579 0.089583 0.468699
56 2 0.415943 0.259197 0.190745
57 2 0.990708 0.18347 0.666516
58 2 0.0280237 0.246729 0.410107
59 2 0.435606 0.450502 0.159893
60 2 0.60446 0.195993 0.968758
61 2 0.00863592 0.227741 0.497729
62 2 0.379354 0.240242 0.289888
63 2 0.256573 0.0456652 0.0649976
64 2 0.560518 0.373901 0.156582
65 2 0.269405 0.0626607 0.966913
66 2 0.21732 0.14971 0.584091
67 2 0.136814 0.470673 0.169813
68 2 0.81014 0.355585 0.305749
69 2 0.352592 0.157558 0.211819
70 2 0.625001 0.442538 0.0392232
71 2 0.0237712 0.734737 0.236383
72 2 0.991053 0.855457 0.655266
73 2 0.57459 0.904344 0.211977
74 2 0.261582 0.996872 0.87746
75 2 0.994163 0.515338 0.470663
76 2 0.271452 0.326166 0.193499
77 2 0.321277 0.111999 0.264374
78 2 0.729514 0.0680535 0.335986
79 2 0.0464757 0.382689 0.539422
80 2 0.185203 0.382267 0.0988285
81 2 0.0287567 0.660999 0.138494
82 2 0.340943 0.348757 0.903994
83 2 0.158277 0.270154 0.883822
84 2 0.204385 0.472474 0.454229
85 2 0.681593 0.318075 0.198038
86 2 0.42402 0.966169 0.963723
87 2 0.536275 0.389179 0.216513
88 2 0.235378 0.468659 0.0227208
89 2 0.151252 0.437151 0.310003
90 2 0.872381 0.670034 0.142293
91 2 0.766551 0.151399 0.850543
92 2 0.568717 0.135429 0.712711
93 2 0.286202 0.694483 0.32747
94 2 0.149591 0.246205 0.00682759
95 2 0.301279 0.381732 0.615359
96 2 0.535432 0.286736 0.548777
97 2 0.185729 0.661211 0.519039
98 2 0.341764 0.0934318 0.124051
99 2 0.28899 0.229683 0.641068
100 2 0.424164 0.279018 0.0173451
101 2 0.42627 0.0383913 0.143745
102 2 0.12894 0.134633 0.228199
103 2 0.190422 0.524018 0.371611
104 2 0.0870147 0.564765 0.0579083
105 2 0.633856 0.404254 0.156066
106 2 0.342755 0.0449436 0.308943
107 2 0.454516 0.233198 0.35389
108 2 0.290429 0.437949 0.968238
109 2 0.905154 0.21588 0.684255
110 2 0.470676 0.565991 0.106187
111 2 0.359684 0.647478 0.588319
112 2 0.262549 0.159029 0.185714
113 2 0.13401 0.333444 0.589182
114 2 0.311593 0.288671 0.249168
115 2 0.627254 0.932726 0.445548
116 2 0.344325 0.209498 0.161524
117 2 0.482594 0.561647 0.340741
118 2 0.990411 0.321885 0.40281
119 2 0.0173253 0.209527 0.212644
120 2 0.403033 0.216132 0.385644
121 2 0.288039 0.104107 0.360208
122 2 0.131164 0.0855362 0.884578
123 2 0.0293668 0.137763 0.41505
124 2 0.130129 0.192468 0.556437
125 2 0.205673 0.302454 0.105008
126 2 0.302116 0.60988 0.96511
127 2 0.45442 0.232385 0.147221
128 2 0.255701 0.751581 0.397485
129 2 0.437257 0.0765783 0.460976
130 2 0.418491 0.391516 0.464713
131 2 0.148257 0.0139887 0.301034
132 2 0.168604 0.477708 0.0420712
133 2 0.0770359 0.405024 0.541295
134 2 0.947529 0.222081 0.190531
135 2 0.765898 0.190925 0.32676
136 2 0.392797 0.259398 0.0113822
137 2 0.157887 0.444261 0.114573
138 2 0.493897 0.908502 0.181051
139 2 0.346552 0.394347 0.45686
140 2 0.735781 0.226886 0.48044
141 2 0.319805 0.0444676 0.0903524
142 2 0.724312 0.322026 0.110152
143 2 0.317411 0.989818 0.0580086
144 2 0.93208 0.678949 0.184297
145 2 0.0732121 0.402169 0.715902
146 2 0.431495 0.451238 0.48554
147 2 0.18309 0.355624 0.299647
148 2 0.159156 0.00634753 0.925691
149 2 0.200096 0.410843 0.414884
150 2 0.486855 0.19867 0.585305
151 2 0.342788 0.232489 0.984215
152 2 0.790363 0.476302 0.970064
153 2 0.193182 0.350157 0.265559
154 2 0.660712 0.932152 0.3232
155 2 0.618369 0.127491 0.28651
156 2 0.00968772 0.00184365 0.420954
157 2 0.590773 0.799798 0.345606
158 2 0.186596 0.0935813 0.217144
159 2 0.402643 0.0899922 0.535224
160 2 0.160878 0.989784 0.221804
161 2 0.521858 0.00424617 0.537061
162 2 0.102012 0.682971 0.435559
163 2 0.684764 0.916537 0.424197
164 2 0.15755 0.410816 0.454632
165 2 0.886823 0.327961 0.874437
166 2 0.107055 0.481193 0.307194
167 2 0.839719 0.960374 0.491048
168 2 0.235914 0.234046 0.304798
169 2 0.233459 0.98026 0.151399
170 2 0.932781 0.715722 0.238405
171 2 0.101422 0.409489 0.799004
172 2 0.24156 0.410408 0.507362
173 2 0.413484 0.390124 0.53288
174 2 0.181462 0.11191 0.451848
175 2 0.287469 0.716324 0.0791167
176 2 0.0808904 0.451632 0.310667
177 2 0.329974 0.863509 0.51974
178 2 0.215604 0.436095 0.0263705
179 2 0.613557 0.315432 0.857437
180 2 0.088066 0.0751127 0.104358
181 2 0.623227 0.291165 0.373141
182 2 0.960555 0.835037 0.17307
183 2 0.0374961 0.313287 0.649114
184 2 0.207471 0.175058 0.338928
185 2 0.20734 0.289675 0.450656
186 2 0.103754 0.555647 0.513914
187 2 0.859669 0.494367 0.894074
188 2 0.186605 0.962652 0.227734
189 2 0.387357 0.934627 0.465084
190 2 0.999766 0.74508 0.581544
191 2 0.212917 0.243841 0.207253
192 2 0.869874 0.0508945 0.516597
193 2 0.375262 0.0282011 0.10245
194 2 0.107325 0.45546 0.360892
195 2 0.60359 0.469651 0.773256
196 2 0.880697 0.433027 0.313126
197 2 0.83796 0.158105 0.879802
198 2 0.199121 0.550859 0.007677
199 2 0.144956 0.248542 0.488689
200 2 0.248764 0.311584 0.243903
201 2 0.302591 0.052298 0.952343
202 2 0.195559 0.947273 0.58576
203 2 0.428974 0.562093 0.059179
204 2 0.448241 0.149145 0.477642
205 2 0.983536 0.526594 0.145274
206 2 0.377117 0.188364 0.160397
207 2 0.384611 0.38234 0.198739
208 2 0.243097 0.70794 0.217432
209 2 0.106621 0.23471 0.324052
210 2 0.779386 0.976021 0.785
211 2 0.279529 0.467692 0.113201
212 2 0.295032 0.334681 0.271848
213 2 0.351641 0.137753 0.68674
214 2 0.03894 0.0524168 0.455931
215 2 0.477903 0.175608 0.146075
216 2 0.368763 0.315289 0.0633532
217 2 0.0487188 0.508013 0.159851
218 2 0.219628 0.300021 0.91817
219 2 0.0150989 0.985902 0.271496
220 2 0.437063 0.127361 0.275584
221 2 0.24695 0.0156429 0.14827
222 2 0.062417 0.793103 0.323531
223 2 0.412041 0.317065 0.557748
224 2 0.232572 0.196006 0.42298
225 2 0.151563 0.425161 0.232395
226 2 0.0982545 0.789651 0.211666
227 2 0.29897 0.356009 0.142033
228 2 0.909014 0.923031 0.36256
229 2 0.471087 0.0831428 0.305925
230 2 0.230115 0.173854 0.905242
231 2 0.145072 0.79568 0.2551
232 2 0.693529 0.472748 0.198978
233 2 0.157172 0.307183 0.252391
234 2 0.574933 0.329313 0.23335
235 2 0.398359 0.349748 0.214315
236 2 0.452495 0.923015 0.932232
237 2 0.37186 0.0391993 0.746266
238 2 0.912983 0.224167 0.374625
239 2 0.156071 0.520018 0.831994
240 2 0.562667 0.0327314 0.685526
241 2 0.0954532 0.442018 0.819328
242 2 0.47974 0.844868 0.239705
243 2 0.280411 0.464234 0.941605
244 2 0.0453463 0.464727 0.690413
245 2 0.350013 0.834868 0.0376303
246 2 0.670255 0.632325 0.156945
247 2 0.0830373 0.467629 0.115326
248 2 0.0981863 0.430849 0.335802
249 2 0.676178 0.111166 0.422529
250 2 0.475381 0.2898 0.135031
251 2 0.213258 0.60576 0.157756
252 2 0.427828 0.163326 0.403097
253 2 0.0429832 0.183768 0.644027
254 2 0.535524 0.817552 0.847952
255 2 0.734689 0.871987 0.237886
256 2 0.219817 0.08348 0.493157
257 2 0.685105 0.632459 0.436124
258 2 0.983672 0.364502 0.33243
259 2 0.385871 0.290385 0.231117
260 2 0.425143 0.52423 0.217471
261 2 0.984974 0.247375 0.155347
262 2 0.692527 0.971434 0.362076
263 2 0.329469 0.316064 0.167771
264 2 0.301186 0.379389 0.222743
265 2 0.424776 0.0354092 0.243482
266 2 0.250683 0.261827 0.437006
267 2 0.346942 0.195775 0.0317256
268 2 0.0345185 0.298426 0.0384355
269 2 0.171563 0.407754 0.745179
270 2 0.741667 0.239084 0.0983687
271 2 0.377654 0.84168 0.11147
272 2 0.609188 0.0367744 0.275665
273 2 0.0835566 0.320268 0.362699
274 2 0.404786 0.123585 0.442182
275 2 0.509803 0.794803 0.980386
276 2 0.211219 0.992021 0.907596
277 2 0.333109 0.518519 0.481665
278 2 0.0791528 0.220502 0.553548
279 2 0.101437 0.0858229 0.413593
280 2 0.546238 0.389415 0.00791207
281 2 0.185466 0.332371 0.475979
282 2 0.172846 0.286094 0.810494
283 2 0.0660828 0.191889 0.455022
284 2 0.302455 0.137115 0.241762
285 2 0.117017 0.0446679 0.22011
286 2 0.00824824 0.361675 0.154756
287 2 0.128716 0.11142 0.415869
288 2 0.334579 0.233498 0.132717
289 2 0.25557 0.233719 0.48621
290 2 0.996323 0.581082 0.595336
291 2 0.690501 0.228547 0.847292
292 2 0.388792 0.16953 0.264084
293 2 0.225925 0.310145 0.400906
294 2 0.061574 0.688145 0.993408
295 2 0.0413433 0.458011 0.482913
296 2 0.24415 0.674745 0.09558
297 2 0.515712 0.631735 0.11335
298 2 0.284972 0.335383 0.30601
299 2 0.371538 0.0544118 0.612907
300 2 0.159405 0.31663 0.67419
301 2 0.286382 0.216741 0.0813702
302 2 0.518233 0.200748 0.8276
303 2 0.707256 0.978973 0.816658
304 2 0.293758 0.500439 0.880206
305 2 0.717057 0.330803 0.278715
306 2 0.400693 0.818263 0.132087
307 2 0.59292 0.00814886 0.384022
308 2 0.581974 0.255244 0.238076
309 2 0.0335754 0.416635 0.369118
310 2 0.160786 0.501399 0.60784
311 2 0.256694 0.401185 0.295447
312 2 0.548563 0.862096 0.494518
313 2 0.440458 0.980362 0.0431535
314 2 0.753952 0.248042 0.838226
315 2 0.0392676 0.579395 0.33976
316 2 0.834559 0.468253 0.407978
317 2 0.308909 0.7605 0.0479726
318 2 0.300815 0.418104 0.268159
319 2 0.895789 0.297246 0.854518
320 2 0.255904 0.935908 0.616086
321 2 0.0273565 0.324646 0.537986
322 2 0.466028 0.128924 0.110402
323 2 0.199344 0.446622 0.828166
324 2 0.165847 0.144179 0.234497
325 2 0.155168 0.322591 0.455436
326 2 0.228307 0.925225 0.212891
327 2 0.595782 0.293033 0.950098
328 2 0.3623 0.978417 0.974363
329 2 0.974843 0.0525523 0.356676
330 2 0.0223989 0.59203 0.185992
331 2 0.626953 0.520192 0.0620469
332 2 0.0341254 0.367347 0.0444831
333 2 0.923244 0.838044 0.437718
334 2 0.0131894 0.350106 0.413296
335 2 0.163987 0.242679 0.45442
336 2 0.785434 0.0183521 0.716901
337 2 0.248077 0.741868 0.321046
338 2 0.526029 0.555361 0.920517
339 2 0.392934 0.0747887 0.204448
340 2 0.238186 0.967229 0.783334
341 2 0.38242 0.547645 0.967437
342 2 0.326654 0.149786 0.149566
343 2 0.537452 0.302276 0.345667
344 2 0.132069 0.992265 0.243516
345 2 0.246206 0.389077 0.0773632
346 2 0.161257 0.402055 0.259488
347 2 0.365306 0.273339 0.355515
348 2 0.0394549 0.439875 0.514203
349 2 0.511528 0.863683 0.792778
350 2 0.990737 0.473453 0.0329995
351 2 0.982653 0.045665 0.669676
352 2 0.322779 0.995399 0.251483
353 2 0.419892 0.236401 0.161628
354 2 0.752094 0.235175 0.13213
355 2 0.139396 0.988817 0.00119927
356 2 0.181325 0.50779 0.193579
357 2 0.574855 0.171271 0.271917
358 2 0.0541513 0.48862 0.271245
359 2 0.780774 0.232286 0.446811
360 2 0.216076 0.222243 0.0200919
361 2 0.426947 0.966133 0.390085
362 2 0.321942 0.355516 0.559085
363 2 0.451675 0.313452 0.90338
364 2 0.370324 0.18428 0.0592711
365 2 0.189565 0.233618 0.961423
366 2 0.363399 0.263013 0.389514
367 2 0.350398 0.0510172 0.24146
368 2 0.121457 0.53044 0.153593
369 2 0.443021 0.445506 0.859704
370 2 0.0610671 0.375238 0.423056
371 2 0.0444429 0.359064 0.393618
372 2 0.372225 0.376099 0.339569
373 2 0.516643 0.407373 0.325886
374 2 0.97609 0.313835 0.48694
375 2 0.295372 0.556683 0.567758
376 2 0.954575 0.381796 0.121871
377 2 0.960964 0.498858 0.131283
378 2 0.32768 0.247295 0.495078
379 2 0.160319 0.538843 0.526927
380 2 0.099044 0.597891 0.288348
381 2 0.288328 0.315969 0.945418
382 2 0.347773 0.920757 0.546331
383 2 0.477518 0.176785 0.0746587
384 2 0.153452 0.0841443 0.69339
385 2 0.274236 0.433097 0.37635
386 2 0.671869 0.332059 0.165525
387 2 0.36909 0.280485 0.450313
388 2 0.313229 0.41344 0.234634
389 2 0.378595 0.189883 0.369813
390 2 0.45128 0.0297412 0.670379
391 2 0.137143 0.331975 0.53254
392 2 0.382862 0.810324 0.825408
393 2 0.315744 0.80224 0.239059
394 2 0.430771 0.123249 0.893456
395 2 0.446865 0.37354 0.0393004
396 2 0.083078 0.107068 0.500823
397 2 0.76305 0.542683 0.30737
398 2 0.991165 0.640767 0.807745
399 2 0.153363 0.447914 0.442056
400 2 0.333342 0.260105 0.00546391
401 2 0.174059 0.991205 0.162805
402 2 0.274702 0.599513 0.255682
403 2 0.452485 0.0419688 0.616711
404 2 0.45856 0.493925 0.264357
405 2 0.127971 0.143452 0.128402
406 2 0.089067 0.0386611 0.301535
407 2 0.4565 0.870241 0.0407863
408 2 0.923016 0.523593 0.169561
409 2 0.396305 0.238908 0.133011
410 2 0.00649239 0.368836 0.66952
411 2 0.740954 0.321736 0.93477
412 2 0.510195 0.759484 0.188618
413 2 0.163822 0.942833 0.0295753
414 2 0.83774 0.202262 0.378566
415 2 0.155938 0.306222 0.290668
416 2 0.18838 0.0354649 0.255239
417 2 0.381002 0.401115 0.417934
418 2 0.536946 0.347344 0.171984
419 2 0.50703 0.609043 0.162318
420 2 0.0912894 0.363461 0.138657
421 2 0.94535 0.414303 0.720698
422 2 0.246722 0.138085 0.320873
423 2 0.347097 0.304478 0.197768
424 2 0.115721 0.562636 0.0349319
425 2 0.389987 0.0707233 0.330067
426 2 0.336405 0.220286 0.0981967
427 2 0.585775 0.327894 0.793338
428 2 0.174882 0.180125 0.24592
429 2 0.429413 0.210946 0.475864
430 2 0.988461 0.135192 0.274737
431 2 0.35638 0.587966 0.00667665
432 2 0.962536 0.0295184 0.412007
433 2 0.537623 0.0010623 0.166139
434 2 0.281493 0.0130442 0.13443
435 2 0.462415 0.99007 0.202969
436 2 0.17026 0.262805 0.32856
437 2 0.21737 0.873332 0.641112
438 2 0.865341 0.486025 0.0207191
439 2 0.487655 0.0199753 0.246886
440 2 0.387678 0.0162741 0.170895
441 2 0.212501 0.981227 0.250251
442 2 0.0747386 0.98713 0.222619
443 2 0.297317 0.897859 0.222942
444 2 0.803158 0.282046 0.564282
445 2 0.0133243 0.353621 0.102859
446 2 0.00952907 0.505641 0.164499
447 2 0.408001 0.0337787 0.375607
448 2 0.416082 0.0547759 0.963735
449 2 0.359024 0.31082 0.35425
450 2 0.0986973 0.8031 0.331654
451 2 0.360857 0.157137 0.418247
452 2 0.00422321 0.499664 0.232068
453 2 0.0962868 0.19345 0.4291
454 2 0.875423 0.234699 0.581546
455 2 0.528594 0.353699 0.207077
456 2 0.716308 0.422152 0.891509
457 2 0.310271 0.263857 0.467875
458 2 0.1256 0.259064 0.0647364
459 2 0.589085 0.268009 0.610612
460 2 0.970969 0.312122 0.933155
461 2 0.916182 0.0721015 0.396704
462 2 0.45298 0.765358 0.0413656
463 2 0.316083 0.237305 0.0712701
464 2 0.468896 0.336429 0.164125
465 2 0.119453 0.244474 0.382062
466 2 0.508965 0.0252821 0.163308
467 2 0.903642 0.480954 0.240308
468 2 0.0423197 0.537861 0.087717
469 2 0.438325 0.332702 0.931929
470 2 0.277982 0.300921 0.263335
471 2 0.475354 0.462536 0.319655
472 2 0.263975 0.196629 0.471699
473 2 0.0471053 0.200261 0.134928
474 2 0.239654 0.641346 0.419778
475 2 0.324827 0.157724 0.0987987
476 2 0.0713492 0.0985896 0.568466
477 2 0.453281 0.354625 0.190428
478 2 0.463579 0.938769 0.236083
479 2 0.129457 0.311708 0.479431
480 2 0.340168 0.565314 0.1336
481 2 0.316472 0.14282 0.208649
482 2 0.346744 0.261494 0.288436
483 2 0.379133 0.389731 0.052182
484 2 0.0846279 0.285694 0.346256
485 2 0.778164 0.540617 0.0197081
486 2 0.608594 0.868954 0.140223
487 2 0.258285 0.268807 0.0296747
488 2 0.136451 0.371291 0.485055
489 2 0.601919 0.171693 0.331004
490 2 0.348858 0.378065 0.18541
491 2 0.284704 0.368455 0.430956
492 2 0.082108 0.322366 0.437253
493 2 0.125375 0.287515 0.872996
494 2 0.97612 0.174976 0.41312
495 2 0.322028 0.29077 0.573921
496 2 0.767591 0.554567 0.220279
497 2 0.286451 0.389107 0.125526
498 2 0.711409 0.996916 0.23414
499 2 0.885739 0.0390796 0.0821436
500 2 0.202079 0.604414 0.778154
501 2 0.287618 0.288168 0.0456798
502 2 0.282682 0.315608 0.408813
503 2 0.294259 0.373612 0.54146
504 2 0.742822 0.0884124 0.0685852
505 2 0.0670508 0.241237 0.233164
506 2 0.587535 0.367504 0.129523
507 2 0.463614 0.865953 0.131711
508 2 0.27082 0.219241 0.294175
509 2 0.68085 0.684041 0.222208
510 2 0.192324 0.136155 0.49923
511 2 0.0928271 0.280902 0.893283
512 2 0.51032 0.16559 0.0918004
513 2 0.0146837 0.0582733 0.587052
514 2 0.0877215 0.186391 0.223397
515 2 0.896985 0.876367 0.121308
516 2 0.425457 0.380773 0.386969
517 2 0.439088 0.261819 0.29165
518 2 0.541394 0.992257 0.219782
519 2 0.909558 0.660328 0.157604
520 2 0.192825 0.391727 0.308139
521 2 0.09276 0.0831757 0.472533
522 2 0.0728375 0.297864 0.0365822
523 2 0.981759 0.265641 0.124002
524 2 0.277312 0.440087 0.797239
525 2 0.233215 0.838133 0.648972
526 2 0.210344 0.466344 0.24671
527 2 0.637931 0.102316 0.477747
528 2 0.232183 0.537868 0.873122
529 2 0.584841 0.378385 0.350809
530 2 0.510458 0.0471178 0.131788
531 2 0.133924 0.455374 0.385974
532 2 0.711756 0.639154 0.285547
533 2 0.390833 0.542779 0.374871
534 2 0.5123 0.216514 0.147207
535 2 0.279467 0.0647711 0.294914
536 2 0.145012 0.733083 0.522559
537 2 0.414831 0.431375 0.34195
538 2 0.970136 0.557285 0.924807
539 2 0.140399 0.550859 0.444906
540 2 0.242118 0.503 0.287808
541 2 0.952424 0.428976 0.468402
542 2 0.342673 0.403668 0.423777
543 2 0.138193 0.144185 0.784463
544 2 0.0221365 0.398404 0.245002
545 2 0.594611 0.141482 0.352573
546 2 0.341991 0.898054 0.945049
547 2 0.506241 0.261611 0.292764
548 2 0.263715 0.287943 0.195563
549 2 0.192732 0.494721 0.267307
550 2 0.374922 0.945415 0.186655
551 2 0.644407 0.918569 0.380925
552 2 0.24071 0.32993 0.573576
553 2 0.617737 0.311957 0.895462
554 2 0.174849 0.275691 0.436073
555 2 0.130025 0.220695 0.125008
556 2 0.247307 0.552323 0.722964
557 2 0.454935 0.592082 0.00778863
558 2 0.207778 0.489517 0.36706
559 2 0.375128 0.367802 0.488955
560 2 0.267422 0.260562 0.943926
561 2 0.0714241 0.654579 0.293664
562 2 0.4431 0.115012 0.166283
563 2 0.573077 0.201382 0.207047
564 2 0.468464 0.970563 0.0216053
565 2 0.685161 0.205441 0.0942829
566 2 0.281639 0.0010329 0.296636
567 2 0.00985718 0.136408 0.0382969
568 2 0.966489 0.850466 0.0746133
569 2 0.460938 0.52084 0.201914
570 2 0.307913 0.43106 0.165291
571 2 0.124461 0.380067 0.130812
572 2 0.237196 0.417005 0.204194
573 2 0.10826 0.00585567 0.218901
574 2 0.530614 0.00485391 0.10424
575 2 0.317586 0.255075 0.264248
576 2 0.615146 0.502964 0.574551
577 2 0.26522 0.298306 0.486671
578 2 0.185718 0.282475 0.246144
579 2 0.264835 0.54098 0.492477
580 2 0.574615 0.109517 0.523356
581 2 0.967212 0.235443 0.416779
582 2 0.219693 0.559304 0.292271
583 2 0.355004 0.0171448 0.391676
584 2 0.425459 0.297222 0.180762
585 2 0.381708 0.983278 0.0700581
586 2 0.997341 0.187193 0.926388
587 2 0.0894699 0.576162 0.576
588 2 0.0455359 0.340267 0.310137
589 2 0.789676 0.359778 0.117303
590 2 0.0473081 0.497929 0.484145
591 2 0.489174 0.156772 0.506292
592 2 0.0698325 0.840933 0.109773
593 2 0.82713 0.334484 0.553079
594 2 0.253998 0.0835997 0.315749
595 2 0.623035 0.659997 0.244629
596 2 0.353765 0.124899 0.498843
597 2 0.423944 0.0921101 0.216637
598 2 0.250009 0.656001 0.507209
599 2 0.27894 0.991551 0.498646
600 2 0.132516 0.202601 0.707625
601 2 0.155238 0.315835 0.978876
602 2 0.0718256 0.902774 0.591973
603 2 0.26157 0.391008 0.483942
604 2 0.416297 0.518431 0.313426
605 2 0.191415 0.0861062 0.427145
606 2 0.428454 0.490817 0.535133
607 2 0.0993557 0.155259 0.0520138
608 2 0.339189 0.0161125 0.155655
609 2 0.1336 0.387628 0.0958442
610 2 0.206264 0.468718 0.157155
611 2 0.455992 0.390521 0.174218
612 2 0.347702 0.971552 0.182939
613 2 0.565564 0.274428 0.0834277
614 2 0.12908 0.108814 0.144468
615 2 0.380773 0.777712 0.91228
616 2 0.359749 0.207277 0.343754
617 2 0.769522 0.700978 0.43104
618 2 0.895921 0.0718002 0.577109
619 2 0.123536 0.316474 0.126332
620 2 0.53819 0.182283 0.970041
621 2 0.304881 0.92797 0.309194
622 2 0.259073 0.580946 0.225553
623 2 0.438918 0.00534566 0.0959681
624 2 0.079764 0.0350456 0.9593
625 2 0.425485 0.219845 0.0810784
626 2 0.705898 0.237747 0.0872514
627 2 0.0101355 0.957425 0.331161
628 2 0.628528 0.187801 0.353368
629 2 0.402803 0.662269 0.289632
630 2 0.396962 0.132905 0.32194
631 2 0.227461 0.372031 0.0186335
632 2 0.306874 0.907171 0.424398
633 2 0.128109 0.665804 0.107237
634 2 0.0731816 0.387875 0.479328
635 2 0.302421 0.553513 0.672267
636 2 0.294982 0.4062 0.948423
637 2 0.479193 0.0995965 0.929666
638 2 0.42941 0.940701 0.363217
639 2 0.460992 0.0480635 0.0564595
640 2 0.300273 0.729288 0.214039
641 2 0.305121 0.951945 0.362028
642 2 0.807844 0.118005 0.481951
643 2 0.804625 0.449695 0.278098
644 2 0.0399468 0.164512 0.542171
645 2 0.388102 0.955347 0.311866
646 2 0.66108 0.234699 0.537193
647 2 0.156436 0.684874 0.323614
648 2 0.28697 0.325129 0.909821
649 2 0.823269 0.123229 0.181864
650 2 0.28532 0.442421 0.857679
651 2 0.359625 0.0833664 0.222364
652 2 0.512766 0.495178 0.948566
653 2 0.618333 0.307823 0.45429
654 2 0.0117049 0.457011 0.631073
655 2 0.93545 0.496848 0.105251
656 2 0.358656 0.370772 0.851899
657 2 0.978108 0.125391 0.636698
658 2 0.238146 0.124645 0.388592
659 2 0.233432 0.813471 0.411117
660 2 0.771701 0.395696 0.479498
661 2 0.525906 0.781731 0.351034
662 2 0.0186048 0.906109 0.556418
663 2 0.0428636 0.0637816 0.610978
664 2 0.213233 0.729314 0.416496
665 2 0.290507 0.131962 0.820963
666 2 0.388339 0.327932 0.992119
667 2 0.58355 0.132476 0.449123
668 2 0.50636 0.938649 0.981601
669 2 0.944359 0.55727 0.625547
670 2 0.922991 0.393411 0.670737
671 2 0.774448 0.984608 0.24907
672 2 0.276737 0.530382 0.457645
673 2 0.216729 0.316155 0.0420556
674 2 0.241945 0.13625 0.284809
675 2 0.281849 0.218007 0.961731
676 2 0.32263 0.0317543 0.715697
677 2 0.0291623 0.10928 0.743564
678 2 0.473238 0.459962 0.152987
679 2 0.0687119 0.941256 0.341244
680 2 0.199519 0.482179 0.87765
681 2 0.365415 0.207386 0.00177934
682 2 0.328629 0.976079 0.990372
683 2 0.044121 0.234564 0.509375
684 2 0.750302 0.39944 0.394973
685 2 0.302738 0.580237 0.271475
686 2 0.285906 0.754247 0.0757626
687 2 0.531076 0.211868 0.341946
688 2 0.127525 0.454591 0.00379752
689 2 0.430865 0.226613 0.911205
690 2 0.304638 0.882373 0.477159
691 2 0.14507 0.366947 0.258053
692 2 0.197812 0.195211 0.963637
693 2 0.893975 0.165059 0.222149
694 2 0.139396 0.528401 0.294018
695 2 0.816044 0.973389 0.29631
696 2 0.0842276 0.223927 0.999032
697 2 0.272943 0.533142 0.0952443
698 2 0.494823 0.150476 0.12424
699 2 0.361286 0.277969 0.0211631
700 2 0.0733444 0.992265 0.556917
701 2 0.51337 0.407231 0.192334
702 2 0.209745 0.784342 0.852021
703 2 0.11616 0.338545 0.197238
704 2 0.452298 0.136242 0.242408
705 2 0.262703 0.921478 0.165296
706 2 0.979097 0.585551 0.31123
707 2 0.110676 0.385618 0.0662887
708 2 0.354244 0.488486 0.373888
709 2 0.327168 0.346613 0.120619
710 2 0.324249 0.195298 0.351449
711 2 0.728728 0.706879 0.542536
712 2 0.0264664 0.519763 0.508646
713 2 0.132623 0.609406 0.9771
714 2 0.485531 0.19617 0.809876
715 2 0.332245 0.179406 0.469905
716 2 0.400672 0.261735 0.343242
717 2 0.323387 0.714064 0.137556
718 2 0.0250975 0.387081 0.795189
719 2 0.465862 0.252627 0.0484241
720 2 0.538541 0.603839 0.991235
721 2 0.71147 0.150778 0.800235
722 2 0.294264 0.249083 0.291469
723 2 0.241824 0.463716 0.166677
724 2 0.00054959 0.387967 0.0479787
725 2 0.280764 0.657307 0.780352
726 2 0.908822 0.224852 0.563918
727 2 0.123906 0.446853 0.419665
728 2 0.162252 0.413009 0.0940243
729 2 0.340508 0.29984 0.296871
730 2 0.12812 0.304162 0.0287366
731 2 0.232116 0.323562 0.538445
732 2 0.36522 0.716788 0.414257
733 2 0.436245 0.213819 0.511343
734 2 0.550243 0.445623 0.932767
735 2 0.149164 0.165015 0.150142
736 2 0.0912242 0.457415 0.234328
737 2 0.662593 0.070047 0.830596
738 2 0.627613 0.207433 0.277901
739 2 0.282887 0.086061 0.211743
740 2 0.119633 0.564692 0.927567
741 2 0.0640538 0.412586 0.967594
742 2 0.014144 0.2807 0.107706
743 2 0.32781 0.559054 0.067037
744 2 0.146787 0.822867 0.400576
745 2 0.996691 0.164911 0.365277
746 2 0.323912 0.199259 0.24463
747 2 0.0578993 0.378203 0.129816
748 2 0.0977092 0.195589 0.504796
749 2 0.0612872 0.386088 0.0227956
750 2 0.544942 0.329998 0.37055
751 2 0.5873 0.131164 0.411475
752 2 0.229402 0.0551147 0.607059
753 2 0.309904 0.483384 0.201107
754 2 0.180151 0.804442 0.629952
755 2 0.65477 0.0129994 0.460669
756 2 0.107711 0.275864 0.717793
757 2 0.858807 0.286047 0.524083
758 2 0.400138 0.280909 0.923951
759 2 0.40978 0.247347 0.310592
760 2 0.359882 0.413391 0.337915
761 2 0.00467462 0.676997 0.358555
762 2 0.201447 0.435367 0.78073
763 2 0.405575 0.106614 0.836888
764 2 0.522412 0.480936 0.0265265
765 2 0.254605 0.158132 0.377968
766 2 0.831167 0.206775 0.979132
767 2 0.73959 0.46407 0.268088
768 2 0.290982 0.7816 0.58914
769 2 0.846433 0.22525 0.513892
770 2 0.910433 0.260103 0.0509992
771 2 0.205903 0.147126 0.279844
772 2 0.105553 0.422619 0.00873641
773 2 0.142976 0.353792 0.981072
774 2 0.0800225 0.321413 0.251888
775 2 0.0272343 0.471408 0.720449
776 2 0.543529 0.00978687 0.990158
777 2 0.0919522 0.0421975 0.477534
778 2 0.808377 0.437029 0.493901
779 2 0.125715 0.284306 0.148694
780 2 0.14123 0.502794 0.73286
781 2 0.949625 0.635935 0.531963
782 2 0.931098 0.408766 0.492381
783 2 0.522143 0.0513716 0.221113
784 2 0.463739 0.168818 0.31622
785 2 0.661967 0.301022 0.0605475
786 2 0.461415 0.322709 0.283792
787 2 0.975182 0.400977 0.202845
788 2 0.191044 0.587911 0.525795
789 2 0.292416 0.899627 0.082646
790 2 0.364866 0.947675 0.954799
791 2 0.504648 0.434369 0.869862
792 2 0.365657 0.58346 0.156168
793 2 0.992279 0.948189 0.835181
794 2 0.446711 0.354618 0.141058
795 2 0.437825 0.420541 0.536184
796 2 0.852648 0.152534 0.569714
797 2 0.983476 0.440072 0.518391
798 2 0.100811 0.311227 0.219627
799 2 0.19286 0.130938 0.21355
800 2 0.121532 0.206728 0.0924049
801 2 0.219955 0.238929 0.272187
802 2 0.419619 0.42401 0.30632
803 2 0.25899 0.210818 0.0569428
804 2 0.983468 0.335806 0.0874333
805 2 0.571415 0.368675 0.846871
806 2 0.483856 0.560287 0.879776
807 2 0.291554 0.218179 0.0136927
808 2 0.0535809 0.323215 0.385574
809 2 0.992448 0.137559 0.184036
810 2 0.203593 0.141583 0.731672
811 2 0.176774 0.644929 0.288999
812 2 0.240275 0.12822 0.13013
813 2 0.42184 0.245455 0.368984
814 2 0.225802 0.421733 0.348311
815 2 0.167472 0.214745 0.396068
816 2 0.457569 0.442927 0.0755441
817 2 0.202461 0.307432 0.628517
818 2 0.297544 0.628857 0.0688471
819 2 0.042391 0.104904 0.207083
820 2 0.152862 0.302204 0.750744
821 2 0.636546 0.268671 0.346392
822 2 0.386862 0.115571 0.0378047
823 2 0.542545 0.379467 0.0811639
824 2 0.524655 0.465259 0.175555
825 2 0.121035 0.482372 0.34007
826 2 0.987334 0.273231 0.679441
827 2 0.926037 0.64383 0.434989
828 2 0.24634 0.438016 0.292133
829 2 0.855676 0.403563 0.570384
830 2 0.642647 0.117801 0.316419
831 2 0.189557 0.415207 0.280115
832 2 0.435679 0.367706 0.554508
833 2 0.0715263 0.109108 0.100342
834 2 0.260665 0.0542455 0.905675
835 2 0.124191 0.104636 0.202428
836 2 0.546628 0.0345407 0.578515
837 2 0.605198 0.237292 0.291232
838 2 0.251429 0.11337 0.00139001
839 2 0.879865 0.496804 0.472041
840 2 0.314619 0.33179 0.0908422
841 2 0.686858 0.981844 0.109192
842 2 0.564547 0.445227 0.300191
843 2 0.162906 0.176289 0.6041
844 2 0.893001 0.457273 0.563497
845 2 0.281635 0.450726 0.280413
846 2 0.00529867 0.419501 0.436401
847 2 0.300542 0.0372723 0.346811
848 2 0.214029 0.25865 0.0700863
849 2 0.138849 0.11717 0.350123
850 2 0.296424 0.894267 0.981004
851 2 0.303915 0.301989 0.310972
852 2 0.260091 0.429238 0.409253
853 2 0.126449 0.176429 0.589541
854 2 0.413116 0.209064 0.3153
855 2 0.420342 0.209896 0.0451659
856 2 0.23335 0.204306 0.0821598
857 2 0.157264 0.0854959 0.194346
858 2 0.935822 0.16754 0.370338
859 2 0.246561 0.514846 0.440622
860 2 0.408715 0.648401 0.469184
861 2 0.367194 0.363684 0.269448
862 2 0.479947 0.85987 0.593245
863 2 0.900351 0.644066 0.342142
864 2 0.851976 0.119778 0.998276
865 2 0.979791 0.963113 0.656626
866 2 0.586538 0.476278 0.574166
867 2 0.230561 0.232561 0.662365
868 2 0.430187 0.11605 0.95445
869 2 0.0413111 0.146598 0.487171
870 2 0.0453665 0.30269 0.298977
871 2 0.874025 0.413583 0.342973
872 2 0.414572 0.293574 0.252762
873 2 0.645795 0.20013 0.919072
874 2 0.249099 0.368475 0.413057
875 2 0.101758 0.215381 0.148942
876 2 0.0336037 0.0957427 0.630508
877 2 0.113385 0.274104 0.325029
878 2 0.499551 0.364014 0.609444
879 2 0.592744 0.352807 0.0194184
880 2 0.30584 0.410343 0.100845
881 2 0.350212 0.322008 0.408322
882 2 0.219372 0.0896656 0.2997
883 2 0.264212 0.792599 0.353614
884 2 0.310624 0.395501 0.0374073
885 2 0.252594 0.946167 0.954281
886 2 0.125238 0.438766 0.498345
887 2 0.299606 0.123683 0.156198
888 2 0.252502 0.974782 0.380295
889 2 0.132531 0.183349 0.437378
890 2 0.363999 0.146566 0.244831
891 2 0.355386 0.10251 0.384938
892 2 0.879069 0.0666422 0.655182
893 2 0.0588282 0.057049 0.984788
894 2 0.370528 0.215363 0.0830876
895 2 0.898456 0.271068 0.294762
896 2 0.341157 0.346789 0.433873
897 2 0.894424 0.401741 0.486868
898 2 0.923965 0.0147212 0.368002
899 2 0.374873 0.101856 0.313537
900 2 0.998984 0.224722 0.343513
901 2 0.283414 0.603851 0.392815
902 2 0.430845 0.675529 0.482868
903 2 0.328379 0.453892 0.140211
904 2 0.271113 0.838451 0.638433