ITEM: TIMESTEP
386202
ITEM: NUMBER OF ATOMS
14500
ITEM: BOX BOUNDS pp pp pp
-1.8624718613163151e+00 5.9783655467492970e+01
-1.8624718613163151e+00 5.9783655467492970e+01
-1.8624718613163151e+00 7.2682374675976590e+01
ITEM: ATOMS id type xs ys zs
1 2 0.847765 0.0527873 0.350962
2 2 0.667172 0.0729086 0.0913975
3 2 0.625016 0.217858 0.0673625
4 2 0.211729 0.170375 0.280001
5 2 0.25613 0.345985 0.261962
6 2 0.147227 0.271027 0.251072
7 2 0.494948 0.436901 0.130557
8 2 0.373618 0.227527 0.515232
9 2 0.202706 0.0588293 0.330838
10 2 0.314688 0.0824447 0.582197
11 2 0.337559 0.432643 0.168324
12 2 0.442441 0.182958 0.455948
13 2 0.503017 0.961234 0.226563
14 2 0.357922 0.973443 0.174592
15 2 0.114036 0.342176 0.391521
16 2 0.460167 0.20824 0.156167
17 2 0.389836 0.114221 0.402029
18 2 0.327527 0.286577 0.667297
19 2 0.3714 0.105076 0.443068
20 2 0.817037 0.542451 0.230217
21 2 0.698868 0.0501919 0.261206
22 2 0.302228 0.342954 0.224142
23 2 0.125059 0.438008 0.664942
24 2 0.305716 0.297202 0.20062
25 2 0.181512 0.470772 0.432455
26 2 0.540256 0.590913 0.493752
27 2 0.585804 0.54461 0.227901
28 2 0.166295 0.34484 0.277002
29 2 0.965606 0.149986 0.399272
30 2 0.333334 0.373651 0.315906
31 2 0.546294 0.15755 0.210533
32 2 0.718619 0.238673 0.738155
33 2 0.497787 0.147398 0.233675
34 2 0.338037 0.477676 0.286049
35 2 0.184625 0.301287 0.497557
36 2 0.98951 0.403536 0.506813
37 2 0.0997088 0.500464 0.44629
38 2 0.0318962 0.258994 0.543878
39 2 0.15565 0.224342 0.310005
40 2 0.191414 0.991991 0.35534
41 2 0.958015 0.322295 0.173642
42 2 0.899251 0.0296807 0.00230309
43 2 0.623906 0.319154 0.242142
44 2 0.313107 0.811681 0.476829
45 2 0.914958 0.423651 0.213385
46 2 0.586095 0.0438462 0.512564
47 2 0.423312 0.88284 0.568931
48 2 0.132973 0.0934433 0.844124
49 2 0.577451 0.385701 0.418417
50 2 0.148213 0.218403 0.436752
51 2 0.605978 0.245207 0.762824
52 2 0.217005 0.066924 0.875587
53 2 0.360582 0.115216 0.81641
54 2 0.325138 0.269797 0.408147
55 2 0.129967 0.0895385 0.467252
56 2 0.412989 0.261603 0.238335
57 2 0.990408 0.181851 0.632718
58 2 0.0284816 0.246837 0.418929
59 2 0.435303 0.450458 0.209753
60 2 0.601596 0.195133 0.0526312
61 2 0.0071099 0.228491 0.491317
62 2 0.376919 0.242777 0.316972
63 2 0.257447 0.0546322 0.974912
64 2 0.561906 0.373789 0.211228
65 2 0.281081 0.0676312 0.93008
66 2 0.216814 0.148234 0.565198
67 2 0.135488 0.473087 0.216105
68 2 0.813727 0.349879 0.341658
69 2 0.349456 0.160818 0.253049
70 2 0.620572 0.429826 0.0962457
71 2 0.0223864 0.736149 0.272275
72 2 0.989855 0.852773 0.622551
73 2 0.57348 0.905983 0.251794
74 2 0.264341 0.996037 0.808438
75 2 0.994934 0.517608 0.467145
76 2 0.269398 0.328248 0.236106
77 2 0.319619 0.114168 0.296576
78 2 0.729061 0.0680146 0.355888
79 2 0.0466286 0.384927 0.524936
80 2 0.191511 0.382293 0.161167
81 2 0.023358 0.675088 0.183917
82 2 0.343532 0.343791 0.829585
83 2 0.159785 0.266352 0.81055
84 2 0.208408 0.470821 0.45505
85 2 0.681331 0.316684 0.245705
86 2 0.422381 0.966651 0.0430048
87 2 0.537415 0.389463 0.258616
88 2 0.228623 0.470173 0.935429
89 2 0.150253 0.438119 0.335332
90 2 0.871859 0.670143 0.193465
91 2 0.768906 0.150033 0.787423
92 2 0.565759 0.13493 0.671433
93 2 0.285425 0.697473 0.347958
94 2 0.148496 0.244199 0.914657
95 2 0.301966 0.382426 0.586363
96 2 0.53479 0.285881 0.533475
97 2 0.186426 0.662807 0.508244
98 2 0.341877 0.0971138 0.177931
99 2 0.292074 0.227561 0.61412
100 2 0.424624 0.280832 0.089723
101 2 0.427371 0.0388342 0.191353
102 2 0.127102 0.136564 0.267254
103 2 0.191088 0.524764 0.38681
104 2 0.0982399 0.554613 0.967431
105 2 0.634433 0.404165 0.209141
106 2 0.340709 0.0466978 0.331326
107 2 0.453487 0.234201 0.369213
108 2 0.282312 0.428477 0.883039
109 2 0.904958 0.21463 0.648155
110 2 0.470662 0.567017 0.166287
111 2 0.360095 0.647414 0.565556
112 2 0.262148 0.161945 0.227851
113 2 0.132839 0.33467 0.572272
114 2 0.305112 0.290066 0.281816
115 2 0.627769 0.932542 0.451688
116 2 0.342911 0.212992 0.210298
117 2 0.483799 0.560306 0.361843
118 2 0.993402 0.323926 0.416118
119 2 0.0157238 0.210038 0.253954
120 2 0.401576 0.217878 0.396165
121 2 0.286804 0.104541 0.375129
122 2 0.134202 0.0826875 0.812941
123 2 0.029861 0.137089 0.422009
124 2 0.13091 0.19236 0.538672
125 2 0.215314 0.293035 0.171614
126 2 0.315856 0.688263 0.995697
127 2 0.453538 0.234449 0.202312
128 2 0.254611 0.751937 0.409991
129 2 0.436402 0.078909 0.463392
130 2 0.418839 0.393661 0.465109
131 2 0.146055 0.0164361 0.327052
132 2 0.139855 0.432019 0.941033
133 2 0.0769769 0.407271 0.530374
134 2 0.946521 0.22163 0.238229
135 2 0.7649 0.188472 0.349868
136 2 0.395823 0.259289 0.0819872
137 2 0.159777 0.443911 0.172043
138 2 0.490062 0.908946 0.225988
139 2 0.347711 0.396263 0.456904
140 2 0.735029 0.226844 0.476137
141 2 0.32423 0.0488069 0.145792
142 2 0.723907 0.321009 0.174347
143 2 0.32049 0.991721 0.116853
144 2 0.931706 0.67988 0.228094
145 2 0.0714188 0.398982 0.66967
146 2 0.432487 0.45307 0.480942
147 2 0.180896 0.357287 0.329068
148 2 0.165513 0.00679499 0.850589
149 2 0.205101 0.411758 0.42838
150 2 0.48684 0.196525 0.563198
151 2 0.355777 0.225117 0.0594473
152 2 0.790025 0.480257 0.055879
153 2 0.192339 0.349652 0.299599
154 2 0.660571 0.932314 0.345342
155 2 0.618132 0.126234 0.31643
156 2 0.00792218 0.00294954 0.427953
157 2 0.590091 0.799892 0.364567
158 2 0.183372 0.0949966 0.253187
159 2 0.403445 0.0886273 0.517282
160 2 0.157589 0.992486 0.256435
161 2 0.523657 0.00335247 0.520064
162 2 0.10136 0.68342 0.439238
163 2 0.685132 0.917009 0.433006
164 2 0.157246 0.409843 0.45575
165 2 0.882324 0.327451 0.805433
166 2 0.106243 0.482753 0.332041
167 2 0.839075 0.960588 0.48606
168 2 0.23226 0.236654 0.335311
169 2 0.234442 0.983621 0.199427
170 2 0.931939 0.716476 0.274847
171 2 0.103305 0.406604 0.73964
172 2 0.24222 0.409679 0.495868
173 2 0.413664 0.392061 0.525181
174 2 0.181104 0.111366 0.451882
175 2 0.287086 0.719421 0.147943
176 2 0.0808814 0.453095 0.336358
177 2 0.330944 0.864491 0.508561
178 2 0.205854 0.439966 0.929065
179 2 0.60372 0.314115 0.814344
180 2 0.0646544 0.0681432 0.02077
181 2 0.622536 0.295665 0.387881
182 2 0.958354 0.836608 0.218332
183 2 0.0368489 0.311372 0.615008
184 2 0.208098 0.178117 0.357077
185 2 0.20832 0.288827 0.453433
186 2 0.105496 0.556601 0.503683
187 2 0.85944 0.49452 0.818089
188 2 0.183516 0.966122 0.263322
189 2 0.390023 0.932389 0.457789
190 2 0.999646 0.743309 0.561197
191 2 0.209539 0.24827 0.253957
192 2 0.866776 0.0493394 0.507828
193 2 0.375636 0.0291648 0.158236
194 2 0.106753 0.457638 0.379322
195 2 0.603639 0.469219 0.721026
196 2 0.881719 0.43318 0.340511
197 2 0.837783 0.156982 0.805902
198 2 0.204655 0.562031 0.907342
199 2 0.148239 0.248669 0.486918
200 2 0.243405 0.3165 0.277729
201 2 0.288535 0.0485264 0.957522
202 2 0.195293 0.94707 0.564611
203 2 0.430485 0.563028 0.12602
204 2 0.444405 0.151543 0.472693
205 2 0.980246 0.528551 0.197313
206 2 0.375544 0.191792 0.211654
207 2 0.384337 0.380621 0.240931
208 2 0.242811 0.710666 0.256606
209 2 0.106433 0.235764 0.347823
210 2 0.781356 0.976348 0.732939
211 2 0.278654 0.470298 0.1693
212 2 0.291503 0.33677 0.299865
213 2 0.351404 0.135714 0.646449
214 2 0.0384009 0.0505224 0.459545
215 2 0.477504 0.177805 0.199575
216 2 0.370776 0.31824 0.126245
217 2 0.0455857 0.510028 0.206232
218 2 0.22089 0.297538 0.840048
219 2 0.0139443 0.987733 0.300901
220 2 0.436271 0.127885 0.30866
221 2 0.24441 0.0190264 0.193834
222 2 0.0607343 0.797305 0.346011
223 2 0.41419 0.31747 0.541719
224 2 0.230633 0.196748 0.429549
225 2 0.150683 0.427702 0.269701
226 2 0.0969116 0.79171 0.249371
227 2 0.299191 0.355533 0.193807
228 2 0.905081 0.925801 0.376413
229 2 0.470776 0.0837778 0.335359
230 2 0.232667 0.17239 0.831506
231 2 0.14398 0.799134 0.287283
232 2 0.694985 0.473919 0.24489
233 2 0.154186 0.310653 0.288774
234 2 0.574156 0.32966 0.271751
235 2 0.39752 0.349766 0.257216
236 2 0.451462 0.921372 0.0193343
237 2 0.372759 0.0381127 0.697618
238 2 0.913049 0.222973 0.3899
239 2 0.15659 0.515716 0.764591
240 2 0.561738 0.0250261 0.650152
241 2 0.0976535 0.438447 0.757505
242 2 0.477771 0.843726 0.276787
243 2 0.278473 0.458234 0.862649
244 2 0.0451973 0.462497 0.650884
245 2 0.356422 0.833399 0.105782
246 2 0.670136 0.631584 0.212005
247 2 0.0828781 0.466549 0.17394
248 2 0.0975769 0.431803 0.358512
249 2 0.67757 0.111357 0.425189
250 2 0.475831 0.291181 0.192809
251 2 0.211688 0.60764 0.206442
252 2 0.426319 0.165532 0.412577
253 2 0.0417492 0.181323 0.612711
254 2 0.540699 0.826247 0.949125
255 2 0.734325 0.874108 0.27352
256 2 0.219156 0.0827371 0.488734
257 2 0.684992 0.633153 0.44055
258 2 0.984846 0.365453 0.356448
259 2 0.382574 0.291388 0.273987
260 2 0.424601 0.52503 0.25833
261 2 0.983677 0.245412 0.207289
262 2 0.692783 0.970882 0.379559
263 2 0.329142 0.317544 0.21843
264 2 0.296136 0.386003 0.258532
265 2 0.423708 0.0366238 0.280636
266 2 0.251311 0.261073 0.44142
267 2 0.343206 0.191899 0.108303
268 2 0.036681 0.308627 0.950687
269 2 0.172252 0.404416 0.693831
270 2 0.737831 0.240372 0.159283
271 2 0.37884 0.844799 0.167821
272 2 0.607717 0.0365789 0.307044
273 2 0.0842476 0.320985 0.380583
274 2 0.401398 0.125979 0.446347
275 2 0.511486 0.795423 0.0571459
276 2 0.217045 0.991019 0.835559
277 2 0.334778 0.519377 0.477297
278 2 0.0784448 0.220476 0.536428
279 2 0.100916 0.0862797 0.420124
280 2 0.553606 0.391337 0.0853554
281 2 0.186198 0.330371 0.475222
282 2 0.175055 0.281911 0.747714
283 2 0.0662046 0.191121 0.454821
284 2 0.299168 0.138107 0.277466
285 2 0.112754 0.0472839 0.257541
286 2 0.00722903 0.360935 0.206372
287 2 0.128372 0.111458 0.422017
288 2 0.330428 0.238987 0.186951
289 2 0.255945 0.233683 0.484246
290 2 0.998065 0.583091 0.571909
291 2 0.694402 0.231332 0.78396
292 2 0.387069 0.169187 0.297512
293 2 0.22693 0.310005 0.409224
294 2 0.0640228 0.69104 0.0686599
295 2 0.0430066 0.461587 0.480122
296 2 0.243741 0.677705 0.155793
297 2 0.516027 0.63141 0.173387
298 2 0.282094 0.337405 0.330124
299 2 0.372195 0.0523628 0.585698
300 2 0.160076 0.314909 0.627679
301 2 0.29042 0.195486 0.140146
302 2 0.521737 0.195157 0.766259
303 2 0.713391 0.980383 0.76112
304 2 0.293225 0.495781 0.810803
305 2 0.713862 0.328537 0.318585
306 2 0.40096 0.820463 0.185278
307 2 0.593083 0.00723494 0.397774
308 2 0.580667 0.254319 0.277699
309 2 0.0348785 0.416693 0.387322
310 2 0.160435 0.50159 0.582829
311 2 0.254272 0.402678 0.323572
312 2 0.551428 0.86363 0.490899
313 2 0.436914 0.979694 0.114339
314 2 0.756961 0.247955 0.7762
315 2 0.0403823 0.58219 0.359605
316 2 0.834846 0.469731 0.41669
317 2 0.313211 0.765619 0.122138
318 2 0.297409 0.421285 0.298399
319 2 0.896323 0.295897 0.792374
320 2 0.256176 0.934296 0.588694
321 2 0.0272316 0.32497 0.522384
322 2 0.464483 0.129796 0.170115
323 2 0.201147 0.442544 0.763287
324 2 0.163762 0.147416 0.269288
325 2 0.156504 0.320777 0.456818
326 2 0.226295 0.928504 0.25252
327 2 0.604579 0.307883 0.881786
328 2 0.357722 0.981263 0.0451847
329 2 0.971492 0.0536292 0.373213
330 2 0.0216082 0.594598 0.229871
331 2 0.625708 0.516213 0.125434
332 2 0.0504965 0.373229 0.949991
333 2 0.922248 0.838904 0.443911
334 2 0.016194 0.35139 0.426552
335 2 0.165813 0.242686 0.457789
336 2 0.786044 0.0185301 0.673656
337 2 0.247173 0.744312 0.343136
338 2 0.541008 0.543002 0.0137235
339 2 0.392365 0.0759296 0.246532
340 2 0.240775 0.965416 0.732606
341 2 0.384939 0.556999 0.0587984
342 2 0.327086 0.151588 0.203242
343 2 0.535843 0.30235 0.366861
344 2 0.129014 0.995223 0.276153
345 2 0.240956 0.388367 0.140874
346 2 0.159643 0.404014 0.293281
347 2 0.363656 0.275674 0.370893
348 2 0.0409919 0.442229 0.506673
349 2 0.522349 0.870098 0.902041
350 2 0.0267606 0.498414 0.00336688
351 2 0.983899 0.0431676 0.634198
352 2 0.322747 0.998897 0.284558
353 2 0.418736 0.238446 0.21408
354 2 0.749071 0.235622 0.189057
355 2 0.146674 0.986444 0.913887
356 2 0.179335 0.510188 0.2347
357 2 0.572353 0.171504 0.306227
358 2 0.0536638 0.490395 0.302354
359 2 0.77945 0.233527 0.447224
360 2 0.218359 0.221197 0.925265
361 2 0.425836 0.967316 0.408169
362 2 0.321849 0.357135 0.545073
363 2 0.455328 0.298126 0.844757
364 2 0.372456 0.186588 0.128096
365 2 0.186088 0.224037 0.875256
366 2 0.361129 0.264349 0.400763
367 2 0.348312 0.0530602 0.276322
368 2 0.117421 0.53311 0.198205
369 2 0.448096 0.438732 0.786373
370 2 0.0634039 0.372438 0.438035
371 2 0.047633 0.359236 0.409979
372 2 0.371755 0.377912 0.355201
373 2 0.517108 0.407557 0.347041
374 2 0.975895 0.311592 0.483706
375 2 0.297181 0.556352 0.54964
376 2 0.953607 0.381141 0.179542
377 2 0.959395 0.498881 0.186554
378 2 0.328888 0.248267 0.49058
379 2 0.162076 0.539184 0.514348
380 2 0.0981353 0.600307 0.315303
381 2 0.288861 0.315893 0.863386
382 2 0.350375 0.920284 0.528656
383 2 0.477265 0.178129 0.140133
384 2 0.154047 0.0822003 0.654594
385 2 0.273608 0.435763 0.393016
386 2 0.672301 0.331982 0.217531
387 2 0.368332 0.283284 0.452606
388 2 0.310012 0.418665 0.268921
389 2 0.377058 0.191107 0.383167
390 2 0.452473 0.0277756 0.637103
391 2 0.135763 0.331937 0.521801
392 2 0.391792 0.810952 0.764577
393 2 0.316332 0.804224 0.278181
394 2 0.433336 0.125155 0.982931
395 2 0.448178 0.374848 0.110238
396 2 0.0827984 0.105835 0.494424
397 2 0.764156 0.543727 0.335455
398 2 0.993815 0.641391 0.746704
399 2 0.155451 0.44684 0.445323
400 2 0.34139 0.246622 0.0821112
401 2 0.173269 0.993333 0.208204
402 2 0.27439 0.602233 0.287291
403 2 0.452664 0.0397058 0.589776
404 2 0.455328 0.493631 0.300728
405 2 0.13309 0.14781 0.183317
406 2 0.088399 0.0397763 0.327816
407 2 0.455401 0.872253 0.107113
408 2 0.922293 0.523562 0.221694
409 2 0.39449 0.242899 0.19005
410 2 0.00672132 0.367536 0.633293
411 2 0.735662 0.32342 0.854109
412 2 0.508151 0.758912 0.23796
413 2 0.166103 0.944106 0.106401
414 2 0.83665 0.200292 0.392463
415 2 0.154178 0.309187 0.322081
416 2 0.185314 0.0380309 0.286173
417 2 0.381785 0.403004 0.4237
418 2 0.537562 0.347313 0.22279
419 2 0.504409 0.609577 0.214503
420 2 0.0922906 0.362527 0.191366
421 2 0.946928 0.411901 0.679052
422 2 0.247779 0.140929 0.340574
423 2 0.34712 0.300235 0.241589
424 2 0.121713 0.544249 0.945118
425 2 0.389001 0.0715778 0.354015
426 2 0.337214 0.223491 0.158761
427 2 0.585949 0.326514 0.734021
428 2 0.176081 0.182592 0.278892
429 2 0.427751 0.212608 0.471322
430 2 0.985136 0.135677 0.30628
431 2 0.354674 0.590349 0.0771962
432 2 0.96163 0.0303649 0.419039
433 2 0.535703 0.00207388 0.216063
434 2 0.27864 0.0176408 0.181446
435 2 0.460667 0.99167 0.247136
436 2 0.16863 0.264118 0.351462
437 2 0.219499 0.871734 0.611418
438 2 0.860688 0.496259 0.0986253
439 2 0.486459 0.0193589 0.284695
440 2 0.386877 0.0164552 0.216344
441 2 0.209899 0.984017 0.282445
442 2 0.0697034 0.993068 0.258415
443 2 0.29608 0.899902 0.262668
444 2 0.801822 0.28111 0.544265
445 2 0.0122697 0.353726 0.161984
446 2 0.00736542 0.508217 0.21346
447 2 0.407544 0.0319031 0.392473
448 2 0.412978 0.0550211 0.0439496
449 2 0.3594 0.313029 0.368206
450 2 0.0971087 0.806467 0.352012
451 2 0.359286 0.158689 0.424168
452 2 0.00454161 0.500837 0.270809
453 2 0.0977633 0.191678 0.434746
454 2 0.874075 0.232967 0.559743
455 2 0.526896 0.354426 0.252664
456 2 0.713329 0.419664 0.818671
457 2 0.310461 0.263919 0.466619
458 2 0.14465 0.254654 0.968257
459 2 0.588792 0.269143 0.583462
460 2 0.980315 0.305335 0.843228
461 2 0.914449 0.0713086 0.405131
462 2 0.454315 0.765701 0.111116
463 2 0.315768 0.241023 0.13654
464 2 0.470146 0.335829 0.220279
465 2 0.120396 0.246281 0.397409
466 2 0.507015 0.0257352 0.2136
467 2 0.903484 0.481434 0.279249
468 2 0.0542026 0.53867 0.992621
469 2 0.441273 0.333425 0.843595
470 2 0.272379 0.303288 0.293983
471 2 0.475888 0.46198 0.342092
472 2 0.262586 0.196851 0.471512
473 2 0.0426418 0.206261 0.185306
474 2 0.241237 0.64435 0.424771
475 2 0.331044 0.158347 0.159649
476 2 0.0705551 0.097979 0.550024
477 2 0.454053 0.354805 0.243365
478 2 0.462655 0.938831 0.273513
479 2 0.130505 0.309996 0.477556
480 2 0.340332 0.567253 0.187786
481 2 0.314585 0.144053 0.24903
482 2 0.344159 0.263232 0.312205
483 2 0.384395 0.392914 0.120569
484 2 0.0839232 0.286558 0.367075
485 2 0.775134 0.543011 0.0937411
486 2 0.609703 0.873367 0.192001
487 2 0.258905 0.266882 0.930244
488 2 0.135897 0.369995 0.481944
489 2 0.598176 0.172972 0.354073
490 2 0.349415 0.379369 0.227658
491 2 0.286688 0.368568 0.435348
492 2 0.083497 0.319826 0.443385
493 2 0.127219 0.282748 0.800525
494 2 0.974976 0.172583 0.423356
495 2 0.325403 0.294411 0.561624
496 2 0.76683 0.556481 0.261052
497 2 0.287438 0.389781 0.180753
498 2 0.710663 0.997918 0.269453
499 2 0.885655 0.0478721 0.132564
500 2 0.202083 0.601163 0.724579
501 2 0.293916 0.277804 0.937449
502 2 0.283322 0.316172 0.417541
503 2 0.294521 0.374166 0.528278
504 2 0.742976 0.0925643 0.131389
505 2 0.0642438 0.241613 0.272514
506 2 0.589629 0.366967 0.188035
507 2 0.463191 0.870816 0.185227
508 2 0.266868 0.221745 0.325686
509 2 0.68006 0.685619 0.263191
510 2 0.192645 0.134206 0.492683
511 2 0.0948829 0.276306 0.81837
512 2 0.509464 0.166674 0.15489
513 2 0.0158122 0.0561072 0.564898
514 2 0.0839984 0.186837 0.263578
515 2 0.896435 0.880053 0.174158
516 2 0.425745 0.382434 0.397089
517 2 0.439994 0.260855 0.319816
518 2 0.538376 0.993128 0.262218
519 2 0.91013 0.659835 0.205069
520 2 0.192044 0.392827 0.334527
521 2 0.0927207 0.0820706 0.470758
522 2 0.0615775 0.282146 0.942685
523 2 0.979406 0.264093 0.180579
524 2 0.279235 0.435941 0.737898
525 2 0.234903 0.836498 0.617973
526 2 0.208355 0.468527 0.280898
527 2 0.637967 0.101626 0.473788
528 2 0.231309 0.531919 0.801029
529 2 0.584057 0.379713 0.371227
530 2 0.508047 0.0479972 0.18664
531 2 0.134292 0.45633 0.399938
532 2 0.712078 0.639241 0.314731
533 2 0.391398 0.547288 0.387519
534 2 0.511342 0.218189 0.200436
535 2 0.276186 0.0672405 0.318496
536 2 0.144949 0.73405 0.511184
537 2 0.416487 0.433358 0.356217
538 2 0.970085 0.551125 0.848671
539 2 0.13981 0.551059 0.445464
540 2 0.240874 0.504615 0.315427
541 2 0.954815 0.429618 0.467683
542 2 0.343842 0.405548 0.427564
543 2 0.139821 0.141947 0.728626
544 2 0.0232124 0.399611 0.281357
545 2 0.589736 0.144654 0.373814
546 2 0.34315 0.898148 0.0164842
547 2 0.504431 0.261596 0.322873
548 2 0.258641 0.290594 0.238348
549 2 0.190748 0.496297 0.298778
550 2 0.372959 0.946351 0.231021
551 2 0.644256 0.918968 0.395248
552 2 0.240486 0.329658 0.556773
553 2 0.621773 0.295642 0.836592
554 2 0.176456 0.275288 0.440392
555 2 0.131574 0.222579 0.187007
556 2 0.248754 0.55144 0.677184
557 2 0.458699 0.593378 0.0852047
558 2 0.20779 0.49053 0.38306
559 2 0.374093 0.37521 0.488
560 2 0.269841 0.25926 0.859858
561 2 0.0713393 0.656595 0.320745
562 2 0.444386 0.117117 0.215381
563 2 0.572042 0.200298 0.25132
564 2 0.465514 0.969335 0.096108
565 2 0.683721 0.206341 0.152407
566 2 0.276215 0.00326769 0.32088
567 2 0.0114239 0.131517 0.942301
568 2 0.961937 0.849178 0.134413
569 2 0.460054 0.519619 0.245707
570 2 0.307773 0.43297 0.213471
571 2 0.126581 0.37903 0.187916
572 2 0.236656 0.419278 0.246698
573 2 0.103806 0.00939064 0.255406
574 2 0.529255 0.00585798 0.164063
575 2 0.311078 0.256621 0.294937
576 2 0.615589 0.503329 0.556767
577 2 0.26605 0.297308 0.483712
578 2 0.182874 0.286652 0.284726
579 2 0.26633 0.5424 0.486077
580 2 0.575255 0.110394 0.511664
581 2 0.966893 0.236233 0.425364
582 2 0.218677 0.561778 0.318925
583 2 0.354292 0.015534 0.401285
584 2 0.424365 0.297703 0.230613
585 2 0.381133 0.98074 0.134802
586 2 0.999061 0.182242 0.848162
587 2 0.0902156 0.576325 0.555443
588 2 0.0458259 0.341626 0.336341
589 2 0.78938 0.359095 0.179422
590 2 0.0478476 0.500325 0.481159
591 2 0.488793 0.155112 0.495511
592 2 0.0660506 0.842735 0.164779
593 2 0.826267 0.333476 0.535272
594 2 0.252295 0.0862735 0.337066
595 2 0.624045 0.659994 0.278376
596 2 0.353219 0.123338 0.49018
597 2 0.422865 0.0930983 0.257794
598 2 0.250817 0.657401 0.498084
599 2 0.278837 0.990342 0.490418
600 2 0.135282 0.199875 0.660769
601 2 0.171571 0.32945 0.897304
602 2 0.0710601 0.901345 0.571329
603 2 0.254519 0.391134 0.470138
604 2 0.412197 0.523685 0.337158
605 2 0.191512 0.0861885 0.429754
606 2 0.429414 0.491321 0.522355
607 2 0.0997261 0.156136 0.956805
608 2 0.337171 0.0173148 0.202926
609 2 0.139114 0.386155 0.158624
610 2 0.205353 0.470633 0.205054
611 2 0.455222 0.388244 0.221905
612 2 0.346599 0.972637 0.226903
613 2 0.567384 0.276078 0.14791
614 2 0.128001 0.11264 0.194232
615 2 0.380014 0.767466 0.00599072
616 2 0.356858 0.210914 0.362727
617 2 0.769027 0.702337 0.434745
618 2 0.897841 0.0692764 0.55743
619 2 0.124409 0.316203 0.183631
620 2 0.53876 0.181094 0.051755
621 2 0.303475 0.931121 0.333817
622 2 0.256748 0.582379 0.263933
623 2 0.438946 0.00357499 0.159338
624 2 0.0837597 0.0325153 0.878495
625 2 0.42586 0.222774 0.145792
626 2 0.701671 0.24059 0.150468
627 2 0.00838447 0.959661 0.35128
628 2 0.627252 0.187288 0.370887
629 2 0.400288 0.665358 0.315468
630 2 0.394044 0.133842 0.34571
631 2 0.220035 0.378102 0.91594
632 2 0.307333 0.906007 0.426832
633 2 0.129488 0.667473 0.167109
634 2 0.0772123 0.403199 0.478238
635 2 0.303575 0.554088 0.637527
636 2 0.291098 0.396074 0.867739
637 2 0.47945 0.101614 0.017522
638 2 0.428484 0.943853 0.383348
639 2 0.457181 0.0473124 0.123921
640 2 0.300799 0.731931 0.253783
641 2 0.301764 0.95287 0.375365
642 2 0.806658 0.118689 0.479619
643 2 0.80413 0.450486 0.312245
644 2 0.0400214 0.164582 0.529155
645 2 0.388352 0.959247 0.339854
646 2 0.66196 0.233378 0.524928
647 2 0.155229 0.688297 0.348013
648 2 0.287591 0.322902 0.832425
649 2 0.822487 0.125654 0.225399
650 2 0.28587 0.437186 0.78983
651 2 0.358604 0.0852255 0.260666
652 2 0.513905 0.499365 0.0376423
653 2 0.617819 0.308517 0.457901
654 2 0.0132672 0.456628 0.601116
655 2 0.931791 0.495598 0.16607
656 2 0.36175 0.367235 0.783416
657 2 0.977371 0.123172 0.607684
658 2 0.236761 0.125756 0.396564
659 2 0.233513 0.813624 0.418353
660 2 0.769619 0.395523 0.476481
661 2 0.524479 0.785293 0.37129
662 2 0.01811 0.905756 0.541881
663 2 0.0429769 0.0615021 0.586371
664 2 0.210937 0.730107 0.424619
665 2 0.293922 0.128682 0.762239
666 2 0.3881 0.316755 0.0613896
667 2 0.581409 0.133624 0.452143
668 2 0.505644 0.941533 0.0628884
669 2 0.946629 0.557189 0.595401
670 2 0.923275 0.391885 0.635759
671 2 0.773781 0.985501 0.281671
672 2 0.278479 0.530928 0.457088
673 2 0.214044 0.300082 0.951017
674 2 0.241782 0.137723 0.309143
675 2 0.279446 0.215006 0.879448
676 2 0.322924 0.0296952 0.672855
677 2 0.0310031 0.105582 0.692152
678 2 0.47257 0.460542 0.20531
679 2 0.0668559 0.944323 0.359231
680 2 0.201111 0.477217 0.803534
681 2 0.361009 0.214748 0.0888322
682 2 0.322712 0.981916 0.0569013
683 2 0.0434082 0.234358 0.499835
684 2 0.749196 0.398122 0.404242
685 2 0.302416 0.583245 0.301096
686 2 0.285065 0.756427 0.141409
687 2 0.528874 0.211973 0.365417
688 2 0.119595 0.456469 0.901158
689 2 0.436531 0.221551 0.855741
690 2 0.30448 0.882537 0.471418
691 2 0.143437 0.369473 0.291282
692 2 0.197428 0.188193 0.878536
693 2 0.891504 0.165419 0.263407
694 2 0.139341 0.529409 0.31989
695 2 0.815791 0.974622 0.322298
696 2 0.0905298 0.217096 0.907202
697 2 0.276328 0.535256 0.154768
698 2 0.493187 0.151136 0.181378
699 2 0.363189 0.274644 0.091329
700 2 0.0719917 0.990327 0.541573
701 2 0.512533 0.407928 0.239835
702 2 0.223173 0.776591 0.779996
703 2 0.115971 0.338912 0.242829
704 2 0.451807 0.136578 0.280187
705 2 0.261348 0.925698 0.214533
706 2 0.98028 0.586256 0.341246
707 2 0.110902 0.387037 0.13825
708 2 0.355326 0.490567 0.384994
709 2 0.32715 0.345541 0.175045
710 2 0.322117 0.197126 0.366345
711 2 0.727921 0.707493 0.528829
712 2 0.0295958 0.521012 0.503675
713 2 0.130925 0.598229 0.891924
714 2 0.490235 0.192247 0.748403
715 2 0.33054 0.178999 0.46815
716 2 0.398942 0.265078 0.361492
717 2 0.323651 0.716403 0.195514
718 2 0.0271927 0.382724 0.738888
719 2 0.465694 0.255288 0.118581
720 2 0.540486 0.604594 0.0689572
721 2 0.712439 0.150685 0.744176
722 2 0.288829 0.25178 0.320207
723 2 0.240665 0.466181 0.213685
724 2 0.00475707 0.426684 0.0671146
725 2 0.279224 0.654748 0.726461
726 2 0.908474 0.223872 0.547431
727 2 0.123891 0.446018 0.428639
728 2 0.167185 0.411205 0.15654
729 2 0.338287 0.301131 0.320444
730 2 0.126648 0.297276 0.929887
731 2 0.230718 0.323169 0.526614
732 2 0.365778 0.718146 0.421826
733 2 0.435768 0.213826 0.501897
734 2 0.529436 0.445843 0.0227367
735 2 0.149941 0.164509 0.208268
736 2 0.0897999 0.459653 0.271399
737 2 0.657115 0.0694558 0.777825
738 2 0.625943 0.207213 0.31453
739 2 0.280751 0.0868467 0.248443
740 2 0.117681 0.558129 0.847971
741 2 0.0632095 0.40864 0.877188
742 2 0.00715284 0.284376 0.166273
743 2 0.328993 0.562076 0.131682
744 2 0.146596 0.82406 0.410604
745 2 0.995612 0.164988 0.382184
746 2 0.317907 0.201623 0.281716
747 2 0.0582113 0.378032 0.187323
748 2 0.0979826 0.196086 0.495137
749 2 0.0703445 0.387527 0.9262
750 2 0.543498 0.330548 0.387585
751 2 0.587133 0.13119 0.420915
752 2 0.230347 0.0532368 0.580197
753 2 0.308472 0.485393 0.244688
754 2 0.181509 0.803707 0.601669
755 2 0.655339 0.0125983 0.462204
756 2 0.108361 0.273222 0.670478
757 2 0.856402 0.285756 0.511766
758 2 0.404248 0.279477 0.845559
759 2 0.408421 0.248802 0.334467
760 2 0.359226 0.414971 0.355671
761 2 0.00453797 0.679759 0.374654
762 2 0.202924 0.431917 0.723819
763 2 0.389194 0.100644 0.774763
764 2 0.52458 0.479604 0.0986583
765 2 0.25326 0.160051 0.389502
766 2 0.826121 0.213912 0.892451
767 2 0.741156 0.467154 0.303343
768 2 0.291969 0.782967 0.566869
769 2 0.845163 0.225474 0.505762
770 2 0.90359 0.258053 0.120438
771 2 0.206517 0.149878 0.305829
772 2 0.107505 0.421101 0.903574
773 2 0.144478 0.355415 0.887122
774 2 0.0787714 0.322268 0.2875
775 2 0.0270314 0.470143 0.67724
776 2 0.54188 0.012184 0.068773
777 2 0.0910422 0.0418749 0.475002
778 2 0.808502 0.43671 0.485846
779 2 0.124295 0.287156 0.205211
780 2 0.142626 0.50142 0.684184
781 2 0.950803 0.637102 0.520149
782 2 0.931451 0.409101 0.486549
783 2 0.520198 0.0525106 0.264188
784 2 0.46265 0.17013 0.340978
785 2 0.653588 0.294981 0.106861
786 2 0.461139 0.324783 0.314197
787 2 0.975004 0.4015 0.246822
788 2 0.190878 0.589753 0.515118
789 2 0.286929 0.909318 0.145498
790 2 0.363259 0.948392 0.0305545
791 2 0.50834 0.423318 0.802868
792 2 0.365421 0.585381 0.207278
793 2 0.993728 0.945574 0.777959
794 2 0.446231 0.356002 0.201742
795 2 0.438285 0.421646 0.524902
796 2 0.850987 0.152167 0.546581
797 2 0.98439 0.440924 0.508533
798 2 0.0987343 0.31203 0.260655
799 2 0.186435 0.132216 0.247405
800 2 0.144113 0.227956 0.15792
801 2 0.216572 0.245706 0.307641
802 2 0.421893 0.418188 0.327576
803 2 0.273153 0.210968 0.952249
804 2 0.983612 0.33249 0.150705
805 2 0.575212 0.358348 0.778291
806 2 0.49655 0.565146 0.979506
807 2 0.29515 0.215809 0.907656
808 2 0.0541136 0.323969 0.400082
809 2 0.991332 0.137588 0.228247
810 2 0.20479 0.140123 0.685802
811 2 0.175159 0.647669 0.317063
812 2 0.223722 0.139106 0.0253003
813 2 0.421075 0.247408 0.382267
814 2 0.226069 0.423873 0.369124
815 2 0.168073 0.21535 0.408777
816 2 0.459716 0.443746 0.140926
817 2 0.202877 0.30518 0.58332
818 2 0.299658 0.631401 0.134089
819 2 0.0391278 0.106773 0.250136
820 2 0.152836 0.299107 0.697693
821 2 0.634939 0.270133 0.367006
822 2 0.367644 0.110774 0.104248
823 2 0.545531 0.379014 0.146369
824 2 0.522848 0.46457 0.223696
825 2 0.121493 0.48369 0.360636
826 2 0.986956 0.271407 0.643598
827 2 0.926476 0.643827 0.439179
828 2 0.244244 0.439141 0.320014
829 2 0.85615 0.404914 0.550814
830 2 0.643739 0.117207 0.34023
831 2 0.188841 0.416468 0.310063
832 2 0.436746 0.367905 0.541431
833 2 0.0775371 0.100624 0.988922
834 2 0.274188 0.0604153 0.857338
835 2 0.122037 0.107068 0.245562
836 2 0.546629 0.0326421 0.55844
837 2 0.602428 0.236478 0.323688
838 2 0.252908 0.115543 0.91544
839 2 0.880259 0.49744 0.472229
840 2 0.316937 0.336112 0.145991
841 2 0.685401 0.986152 0.169579
842 2 0.565127 0.446495 0.327348
843 2 0.162107 0.175321 0.578367
844 2 0.893532 0.459895 0.543431
845 2 0.278748 0.452509 0.310374
846 2 0.007782 0.418475 0.444051
847 2 0.299053 0.0379709 0.361904
848 2 0.241241 0.248524 0.972257
849 2 0.137507 0.119149 0.36721
850 2 0.301444 0.89392 0.0644128
851 2 0.301168 0.303847 0.33287
852 2 0.260021 0.429727 0.423803
853 2 0.126093 0.174613 0.566785
854 2 0.410459 0.211181 0.341048
855 2 0.421078 0.211535 0.115291
856 2 0.251412 0.195482 0.973125
857 2 0.152667 0.0859492 0.2363
858 2 0.934535 0.166934 0.384744
859 2 0.248419 0.515551 0.442738
860 2 0.409047 0.650753 0.469162
861 2 0.361081 0.365374 0.296564
862 2 0.480539 0.860042 0.572038
863 2 0.899751 0.645925 0.363163
864 2 0.848517 0.12722 0.909927
865 2 0.980009 0.958218 0.616742
866 2 0.587076 0.477117 0.556851
867 2 0.231897 0.228705 0.624771
868 2 0.428194 0.118192 0.0359589
869 2 0.0412147 0.145919 0.482749
870 2 0.0441036 0.304167 0.327283
871 2 0.875629 0.413041 0.366109
872 2 0.410565 0.291065 0.293794
873 2 0.65119 0.208024 0.84938
874 2 0.24963 0.370042 0.423556
875 2 0.0984319 0.216999 0.200723
876 2 0.0336078 0.0941739 0.601465
877 2 0.112486 0.274787 0.34938
878 2 0.497364 0.362726 0.58633
879 2 0.61164 0.360937 0.0802363
880 2 0.307088 0.412052 0.160005
881 2 0.350705 0.323831 0.416065
882 2 0.217275 0.0926507 0.325626
883 2 0.262423 0.794313 0.371332
884 2 0.296885 0.384437 0.928419
885 2 0.250221 0.956032 0.871061
886 2 0.123654 0.439017 0.491433
887 2 0.299351 0.126063 0.20364
888 2 0.250512 0.976874 0.393786
889 2 0.133592 0.182644 0.442784
890 2 0.361345 0.148031 0.280918
891 2 0.353398 0.103522 0.396018
892 2 0.880595 0.0663961 0.622536
893 2 0.0646552 0.0558132 0.89844
894 2 0.371547 0.21909 0.146595
895 2 0.89673 0.271825 0.324846
896 2 0.342235 0.348629 0.438669
897 2 0.89563 0.403508 0.478075
898 2 0.922004 0.0127799 0.382856
899 2 0.373675 0.102356 0.338991
900 2 0.997827 0.225323 0.364112
901 2 0.283668 0.606445 0.405004
902 2 0.432162 0.677541 0.479591
903 2 0.328095 0.455971 0.192595
904 2 0.272192 0.836012 0.608331