ITEM: TIMESTEP
340402
ITEM: NUMBER OF ATOMS
14500
ITEM: BOX BOUNDS pp pp pp
-1.8624718613163151e+00 5.9783655467492970e+01
-1.8624718613163151e+00 5.9783655467492970e+01
-1.8624718613163151e+00 7.0479350015276296e+01
ITEM: ATOMS id type xs ys zs
1 2 0.84775 0.0528483 0.347268
2 2 0.666376 0.0723064 0.0790846
3 2 0.624667 0.217765 0.054904
4 2 0.210818 0.171281 0.274889
5 2 0.256405 0.346101 0.256027
6 2 0.14711 0.270992 0.244746
7 2 0.494519 0.436702 0.120781
8 2 0.373673 0.227631 0.517156
9 2 0.202879 0.0588554 0.326994
10 2 0.314753 0.0825269 0.585997
11 2 0.337464 0.432436 0.15971
12 2 0.442513 0.183014 0.456004
13 2 0.502979 0.960882 0.21929
14 2 0.357852 0.973092 0.165848
15 2 0.113951 0.342272 0.389502
16 2 0.460294 0.208024 0.146888
17 2 0.389892 0.114167 0.400354
18 2 0.327628 0.286889 0.673864
19 2 0.371462 0.105053 0.442703
20 2 0.817137 0.542415 0.222593
21 2 0.698734 0.0500742 0.254846
22 2 0.302308 0.342884 0.217167
23 2 0.125059 0.438349 0.671844
24 2 0.305808 0.297139 0.192975
25 2 0.181459 0.470894 0.431869
26 2 0.540165 0.590893 0.495254
27 2 0.585805 0.544356 0.220607
28 2 0.166246 0.344797 0.271562
29 2 0.965529 0.150124 0.397207
30 2 0.333425 0.373671 0.31182
31 2 0.54647 0.157302 0.202742
32 2 0.718455 0.23858 0.747255
33 2 0.497974 0.147154 0.226692
34 2 0.338049 0.47765 0.281028
35 2 0.184598 0.301501 0.49892
36 2 0.989585 0.403734 0.50859
37 2 0.0997112 0.500609 0.44616
38 2 0.0318613 0.259171 0.546514
39 2 0.155253 0.22449 0.30577
40 2 0.191398 0.991882 0.352179
41 2 0.958611 0.322949 0.163826
42 2 0.884963 0.0275238 0.976686
43 2 0.624057 0.31906 0.235406
44 2 0.313128 0.811602 0.477727
45 2 0.915722 0.424245 0.204484
46 2 0.586191 0.0439187 0.514216
47 2 0.423404 0.882833 0.572706
48 2 0.131503 0.0933276 0.855746
49 2 0.577547 0.385663 0.417306
50 2 0.148092 0.218528 0.436172
51 2 0.605525 0.244505 0.773383
52 2 0.216389 0.0674838 0.886319
53 2 0.361068 0.115934 0.827054
54 2 0.325214 0.269834 0.406857
55 2 0.129897 0.0895241 0.467485
56 2 0.413307 0.261427 0.23162
57 2 0.990374 0.181984 0.638093
58 2 0.0283546 0.246986 0.417599
59 2 0.435225 0.450267 0.202384
60 2 0.601273 0.194979 0.0397688
61 2 0.00704611 0.228602 0.492285
62 2 0.376969 0.242619 0.312711
63 2 0.261764 0.052927 0.985128
64 2 0.561908 0.373636 0.20381
65 2 0.279548 0.0664982 0.937116
66 2 0.216786 0.148343 0.568488
67 2 0.135567 0.473111 0.208716
68 2 0.813925 0.350011 0.33766
69 2 0.349771 0.160743 0.246586
70 2 0.620432 0.429256 0.0864665
71 2 0.02219 0.736196 0.266392
72 2 0.990075 0.852666 0.627682
73 2 0.573197 0.905752 0.245128
74 2 0.264007 0.996864 0.817587
75 2 0.994952 0.517671 0.467578
76 2 0.269574 0.328016 0.229528
77 2 0.31924 0.113969 0.291342
78 2 0.729085 0.0679745 0.352447
79 2 0.0466163 0.385089 0.527175
80 2 0.191856 0.382119 0.152445
81 2 0.023045 0.67513 0.17522
82 2 0.343779 0.343832 0.84097
83 2 0.159665 0.266465 0.821159
84 2 0.208317 0.471032 0.455229
85 2 0.681542 0.316642 0.238928
86 2 0.422209 0.966388 0.0295593
87 2 0.53747 0.38929 0.252621
88 2 0.228546 0.467846 0.951245
89 2 0.150244 0.438187 0.331676
90 2 0.871532 0.670156 0.184896
91 2 0.769223 0.150073 0.798018
92 2 0.565933 0.134924 0.678429
93 2 0.285374 0.697436 0.344729
94 2 0.149389 0.243992 0.928454
95 2 0.301997 0.382789 0.590678
96 2 0.534838 0.285935 0.536035
97 2 0.186476 0.66286 0.510256
98 2 0.342222 0.096747 0.169332
99 2 0.29204 0.227802 0.618834
100 2 0.424542 0.280535 0.0785241
101 2 0.427438 0.0383593 0.183065
102 2 0.126756 0.136601 0.261443
103 2 0.191033 0.524817 0.384844
104 2 0.0977795 0.549077 0.987717
105 2 0.634499 0.404058 0.20139
106 2 0.340781 0.0465285 0.327527
107 2 0.453535 0.234163 0.366622
108 2 0.282601 0.427292 0.896843
109 2 0.904923 0.214773 0.654094
110 2 0.470365 0.56657 0.157246
111 2 0.360087 0.647752 0.569767
112 2 0.262396 0.161923 0.21991
113 2 0.132757 0.334959 0.57598
114 2 0.305459 0.290182 0.276511
115 2 0.627791 0.932497 0.45133
116 2 0.343216 0.212876 0.202561
117 2 0.483711 0.560322 0.358891
118 2 0.993306 0.324057 0.414597
119 2 0.0156401 0.210186 0.24734
120 2 0.401621 0.217843 0.3944
121 2 0.286857 0.104477 0.372694
122 2 0.133516 0.0825728 0.82372
123 2 0.0297349 0.137189 0.420759
124 2 0.130857 0.192526 0.541124
125 2 0.21538 0.29283 0.163157
126 2 0.309583 0.680946 0.986525
127 2 0.453725 0.234204 0.194458
128 2 0.254602 0.751935 0.408633
129 2 0.436491 0.0788863 0.463591
130 2 0.418868 0.393739 0.46557
131 2 0.146117 0.0163613 0.32271
132 2 0.140173 0.429857 0.957133
133 2 0.076959 0.407445 0.532737
134 2 0.946587 0.222069 0.230823
135 2 0.765014 0.18856 0.346183
136 2 0.395726 0.259007 0.0705726
137 2 0.160047 0.443937 0.163442
138 2 0.489848 0.908651 0.218535
139 2 0.347789 0.396283 0.457221
140 2 0.735058 0.226936 0.476601
141 2 0.324371 0.0484538 0.136226
142 2 0.724287 0.321077 0.165269
143 2 0.32049 0.991251 0.106574
144 2 0.931481 0.679878 0.220705
145 2 0.0714155 0.399363 0.676596
146 2 0.432456 0.453202 0.482023
147 2 0.180868 0.357246 0.325206
148 2 0.165118 0.00734034 0.862437
149 2 0.205096 0.411794 0.427607
150 2 0.486915 0.196554 0.566688
151 2 0.355724 0.224824 0.0473791
152 2 0.788973 0.479542 0.0429263
153 2 0.192287 0.349425 0.294862
154 2 0.660507 0.932206 0.341671
155 2 0.618255 0.126175 0.311854
156 2 0.00788375 0.00291451 0.426821
157 2 0.589979 0.799829 0.361609
158 2 0.183539 0.0952837 0.247004
159 2 0.403541 0.0886618 0.519205
160 2 0.157711 0.99346 0.248899
161 2 0.523695 0.00340525 0.522058
162 2 0.101414 0.683413 0.438832
163 2 0.685136 0.916932 0.432018
164 2 0.157204 0.410047 0.455851
165 2 0.883017 0.327694 0.816073
166 2 0.106217 0.482831 0.328222
167 2 0.839154 0.960652 0.486707
168 2 0.232406 0.236508 0.331363
169 2 0.234777 0.983503 0.191437
170 2 0.931665 0.716469 0.269025
171 2 0.103161 0.407064 0.748792
172 2 0.242206 0.409928 0.497313
173 2 0.413688 0.392178 0.527464
174 2 0.181021 0.111369 0.451747
175 2 0.286763 0.718973 0.137965
176 2 0.0808318 0.453192 0.332574
177 2 0.331004 0.864394 0.510374
178 2 0.205419 0.438265 0.943581
179 2 0.603818 0.314101 0.825824
180 2 0.0769327 0.0886593 0.0379118
181 2 0.622664 0.295564 0.385695
182 2 0.957962 0.836764 0.210417
183 2 0.0367821 0.311627 0.620023
184 2 0.207646 0.177957 0.35462
185 2 0.208275 0.288972 0.453435
186 2 0.105491 0.556756 0.505495
187 2 0.859648 0.494695 0.829397
188 2 0.183164 0.966541 0.256766
189 2 0.389982 0.932268 0.457943
190 2 0.999844 0.743287 0.564593
191 2 0.209417 0.24824 0.247773
192 2 0.866843 0.0494719 0.50915
193 2 0.375722 0.0286997 0.148949
194 2 0.106685 0.457684 0.376954
195 2 0.603611 0.469336 0.729332
196 2 0.881884 0.433292 0.336332
197 2 0.837817 0.156565 0.817401
198 2 0.204847 0.558965 0.923706
199 2 0.148178 0.24888 0.487879
200 2 0.243628 0.316955 0.272557
201 2 0.288085 0.044677 0.962683
202 2 0.195385 0.947036 0.567986
203 2 0.430122 0.562839 0.115891
204 2 0.444502 0.151568 0.473224
205 2 0.980387 0.528894 0.188404
206 2 0.375791 0.191582 0.20406
207 2 0.384359 0.380547 0.23457
208 2 0.242675 0.710535 0.250384
209 2 0.106331 0.235821 0.344456
210 2 0.781931 0.976579 0.741012
211 2 0.278627 0.470107 0.160713
212 2 0.291703 0.336821 0.295245
213 2 0.351528 0.135947 0.652213
214 2 0.0383378 0.0505005 0.459428
215 2 0.477692 0.177565 0.191604
216 2 0.370637 0.317978 0.116288
217 2 0.045674 0.510041 0.19815
218 2 0.221025 0.297519 0.851594
219 2 0.0137148 0.98767 0.295766
220 2 0.436344 0.127714 0.304062
221 2 0.244568 0.0189914 0.185777
222 2 0.0606576 0.797261 0.34249
223 2 0.414193 0.31759 0.544571
224 2 0.230679 0.196792 0.428984
225 2 0.150702 0.427722 0.26399
226 2 0.0966468 0.791665 0.242824
227 2 0.299171 0.355407 0.18591
228 2 0.905131 0.925702 0.373678
229 2 0.470811 0.0836299 0.331573
230 2 0.232561 0.172872 0.842024
231 2 0.143838 0.799049 0.281946
232 2 0.695074 0.473757 0.238068
233 2 0.154054 0.310638 0.283649
234 2 0.574306 0.329496 0.266014
235 2 0.397663 0.349708 0.251284
236 2 0.450159 0.92084 0.00464306
237 2 0.372952 0.0384521 0.70494
238 2 0.912997 0.223166 0.387459
239 2 0.156628 0.516392 0.775602
240 2 0.561924 0.0250426 0.656115
241 2 0.0976195 0.438944 0.767304
242 2 0.477505 0.843476 0.270934
243 2 0.278694 0.457183 0.876042
244 2 0.0453531 0.462832 0.657342
245 2 0.355494 0.832495 0.0938647
246 2 0.669776 0.631228 0.204046
247 2 0.0830243 0.466297 0.16506
248 2 0.0975097 0.431902 0.355441
249 2 0.677586 0.111442 0.424094
250 2 0.475899 0.290929 0.18476
251 2 0.2116 0.607484 0.198757
252 2 0.426371 0.165483 0.41125
253 2 0.0416998 0.181505 0.617433
254 2 0.537844 0.825057 0.933625
255 2 0.734015 0.873968 0.267432
256 2 0.219104 0.0827394 0.489689
257 2 0.685011 0.63311 0.439984
258 2 0.984778 0.365611 0.352921
259 2 0.382681 0.291238 0.268438
260 2 0.424582 0.524944 0.252421
261 2 0.983836 0.245821 0.19892
262 2 0.692769 0.97083 0.376924
263 2 0.329307 0.317603 0.21118
264 2 0.296274 0.386024 0.25265
265 2 0.42382 0.0363858 0.275168
266 2 0.251276 0.261194 0.441089
267 2 0.343237 0.191593 0.0977612
268 2 0.0363018 0.307645 0.966143
269 2 0.172249 0.404945 0.701495
270 2 0.738064 0.240739 0.149642
271 2 0.378278 0.844275 0.158373
272 2 0.607714 0.0364319 0.302177
273 2 0.0841769 0.321106 0.378137
274 2 0.401479 0.125943 0.446063
275 2 0.510239 0.794738 0.0439565
276 2 0.216915 0.99187 0.846102
277 2 0.334738 0.519534 0.47833
278 2 0.0783907 0.220642 0.538828
279 2 0.100762 0.0862837 0.418911
280 2 0.553019 0.391441 0.0743849
281 2 0.186166 0.330592 0.475894
282 2 0.1749 0.282253 0.756549
283 2 0.0660497 0.191243 0.454661
284 2 0.299266 0.138486 0.271715
285 2 0.112668 0.0474304 0.251319
286 2 0.00748819 0.361326 0.197787
287 2 0.128202 0.11148 0.420918
288 2 0.330525 0.238882 0.178637
289 2 0.25591 0.233804 0.485204
290 2 0.998259 0.583051 0.575793
291 2 0.694461 0.231258 0.794517
292 2 0.387086 0.169019 0.292593
293 2 0.226879 0.310045 0.407872
294 2 0.0635141 0.690553 0.0566202
295 2 0.0429574 0.461707 0.48092
296 2 0.243458 0.677283 0.14632
297 2 0.515374 0.630719 0.164336
298 2 0.282141 0.337349 0.326397
299 2 0.3723 0.0524154 0.589661
300 2 0.159983 0.315319 0.633039
301 2 0.290397 0.195247 0.130584
302 2 0.521049 0.192245 0.778446
303 2 0.714034 0.980466 0.769996
304 2 0.293197 0.496105 0.822758
305 2 0.714098 0.328564 0.31397
306 2 0.400445 0.820125 0.176467
307 2 0.593097 0.00719989 0.39581
308 2 0.580816 0.254221 0.272071
309 2 0.0348656 0.416837 0.384975
310 2 0.160504 0.501961 0.587257
311 2 0.25431 0.402573 0.319677
312 2 0.551388 0.863594 0.491945
313 2 0.43705 0.979296 0.103228
314 2 0.757008 0.247991 0.786441
315 2 0.0403305 0.582184 0.356552
316 2 0.834945 0.469744 0.415268
317 2 0.312399 0.765109 0.110983
318 2 0.297465 0.421281 0.293775
319 2 0.896325 0.295612 0.802912
320 2 0.256311 0.934275 0.592858
321 2 0.0271812 0.325172 0.524464
322 2 0.464644 0.129561 0.161276
323 2 0.201291 0.443189 0.773267
324 2 0.163308 0.147578 0.263617
325 2 0.156475 0.320968 0.456911
326 2 0.226184 0.928307 0.246106
327 2 0.605568 0.308557 0.895805
328 2 0.358954 0.978877 0.0357168
329 2 0.971443 0.0536467 0.370344
330 2 0.021563 0.594647 0.222647
331 2 0.625874 0.515481 0.114709
332 2 0.0502624 0.37194 0.966093
333 2 0.922247 0.83888 0.44333
334 2 0.0160844 0.351527 0.425396
335 2 0.165734 0.242831 0.457853
336 2 0.786305 0.0187243 0.68014
337 2 0.247114 0.744239 0.339673
338 2 0.542196 0.540389 0.999504
339 2 0.392511 0.0756264 0.240021
340 2 0.240738 0.965683 0.740839
341 2 0.384874 0.556261 0.0465153
342 2 0.327387 0.151418 0.195483
343 2 0.535954 0.302298 0.364107
344 2 0.129126 0.995512 0.269574
345 2 0.24091 0.388183 0.131343
346 2 0.159631 0.404036 0.288306
347 2 0.363677 0.275632 0.368371
348 2 0.0409885 0.442409 0.508327
349 2 0.521868 0.866186 0.88579
350 2 0.998878 0.482004 0.0141756
351 2 0.984001 0.0432554 0.639503
352 2 0.322774 0.998459 0.279147
353 2 0.418964 0.238236 0.20664
354 2 0.749336 0.235821 0.180294
355 2 0.147034 0.986638 0.927923
356 2 0.179336 0.510175 0.22798
357 2 0.572516 0.171353 0.301366
358 2 0.0535833 0.490466 0.297351
359 2 0.779495 0.233607 0.446735
360 2 0.219386 0.220893 0.939
361 2 0.425853 0.967177 0.406573
362 2 0.321859 0.357367 0.548023
363 2 0.455533 0.298197 0.856792
364 2 0.372579 0.186391 0.118095
365 2 0.18648 0.224187 0.887555
366 2 0.361182 0.264343 0.399169
367 2 0.348642 0.0526215 0.270772
368 2 0.117518 0.53308 0.19021
369 2 0.448203 0.438944 0.796769
370 2 0.0633344 0.372572 0.437345
371 2 0.0475608 0.359402 0.408372
372 2 0.371844 0.377944 0.352324
373 2 0.517222 0.407491 0.343793
374 2 0.975848 0.311747 0.484391
375 2 0.297161 0.556699 0.553108
376 2 0.954413 0.382236 0.169182
377 2 0.959362 0.499808 0.176504
378 2 0.32888 0.248394 0.491792
379 2 0.162095 0.539414 0.516561
380 2 0.0980995 0.600308 0.310959
381 2 0.289203 0.315955 0.875697
382 2 0.350402 0.920226 0.531074
383 2 0.477388 0.177928 0.130311
384 2 0.153972 0.0822623 0.660462
385 2 0.27361 0.435759 0.391272
386 2 0.672468 0.331931 0.209923
387 2 0.368359 0.283304 0.452598
388 2 0.310101 0.418675 0.263405
389 2 0.37709 0.191068 0.380976
390 2 0.452627 0.0278949 0.642778
391 2 0.13571 0.332167 0.523911
392 2 0.410321 0.822301 0.781939
393 2 0.316104 0.804054 0.272535
394 2 0.440566 0.128221 0.971433
395 2 0.447833 0.374517 0.0998619
396 2 0.0827469 0.105907 0.495467
397 2 0.76411 0.543654 0.331434
398 2 0.993974 0.641264 0.75674
399 2 0.155334 0.447025 0.445117
400 2 0.341336 0.246277 0.0707707
401 2 0.173743 0.992379 0.200441
402 2 0.274324 0.602175 0.282226
403 2 0.452798 0.0397835 0.593971
404 2 0.455373 0.493561 0.296137
405 2 0.133175 0.14786 0.174849
406 2 0.0883234 0.0395327 0.323464
407 2 0.454413 0.871717 0.0956394
408 2 0.922356 0.523705 0.213268
409 2 0.394646 0.242662 0.181917
410 2 0.00667709 0.367714 0.638975
411 2 0.736222 0.323925 0.866602
412 2 0.507777 0.75871 0.231079
413 2 0.165838 0.943475 0.0951631
414 2 0.836684 0.200469 0.390103
415 2 0.154159 0.309177 0.317964
416 2 0.185731 0.0384538 0.281387
417 2 0.381826 0.403078 0.422925
418 2 0.537607 0.347115 0.21567
419 2 0.504168 0.609228 0.20685
420 2 0.0926339 0.36248 0.183081
421 2 0.947012 0.412096 0.686175
422 2 0.247545 0.140687 0.33755
423 2 0.347468 0.30041 0.234994
424 2 0.121566 0.542096 0.963854
425 2 0.389063 0.0714471 0.350816
426 2 0.337267 0.223316 0.14962
427 2 0.585871 0.326156 0.743065
428 2 0.17512 0.182997 0.273341
429 2 0.427819 0.212641 0.471908
430 2 0.985025 0.13581 0.301297
431 2 0.354535 0.589949 0.0651636
432 2 0.961606 0.0303887 0.41761
433 2 0.535699 0.00177073 0.208308
434 2 0.278818 0.0175277 0.173083
435 2 0.460756 0.991402 0.24057
436 2 0.168566 0.264243 0.348331
437 2 0.219643 0.871736 0.616347
438 2 0.859894 0.496424 0.0860301
439 2 0.486583 0.0191628 0.279286
440 2 0.386968 0.0161408 0.208897
441 2 0.20963 0.984178 0.276787
442 2 0.0691688 0.993041 0.252127
443 2 0.295908 0.899709 0.256509
444 2 0.801827 0.281187 0.546958
445 2 0.0131418 0.353863 0.152051
446 2 0.00732385 0.508388 0.205195
447 2 0.407591 0.0318379 0.390501
448 2 0.413625 0.0547339 0.0322673
449 2 0.35943 0.313009 0.365699
450 2 0.0970302 0.806424 0.348724
451 2 0.359334 0.158658 0.423198
452 2 0.00439434 0.500997 0.26443
453 2 0.0976178 0.191787 0.434002
454 2 0.874065 0.233121 0.562886
455 2 0.526975 0.354243 0.246461
456 2 0.713535 0.419907 0.829812
457 2 0.310453 0.264014 0.467084
458 2 0.145678 0.253625 0.983543
459 2 0.588824 0.269058 0.587713
460 2 0.980382 0.305462 0.855144
461 2 0.914449 0.0713847 0.403259
462 2 0.453515 0.765166 0.0997237
463 2 0.315736 0.240752 0.126754
464 2 0.470185 0.335628 0.213125
465 2 0.120281 0.246377 0.395574
466 2 0.507047 0.0254565 0.205898
467 2 0.903711 0.481575 0.272971
468 2 0.0555182 0.528257 0.0158813
469 2 0.441474 0.333478 0.855483
470 2 0.272599 0.303237 0.289013
471 2 0.475936 0.461977 0.338783
472 2 0.262606 0.196908 0.472135
473 2 0.0428063 0.206309 0.176653
474 2 0.241211 0.644311 0.424117
475 2 0.331219 0.15822 0.150591
476 2 0.0705003 0.0980909 0.552767
477 2 0.454165 0.354628 0.236932
478 2 0.462605 0.938555 0.267709
479 2 0.130446 0.310201 0.478263
480 2 0.340238 0.567095 0.179553
481 2 0.314959 0.143992 0.24247
482 2 0.344253 0.263237 0.308308
483 2 0.384205 0.392604 0.110502
484 2 0.0838374 0.286664 0.364228
485 2 0.774274 0.542836 0.0818273
486 2 0.609117 0.873105 0.183247
487 2 0.25972 0.266588 0.94429
488 2 0.135887 0.370222 0.482838
489 2 0.598287 0.172934 0.350722
490 2 0.349461 0.379297 0.220853
491 2 0.286705 0.368679 0.434909
492 2 0.0834185 0.319979 0.442938
493 2 0.127115 0.282894 0.810807
494 2 0.974882 0.172751 0.422024
495 2 0.325387 0.294595 0.564995
496 2 0.766919 0.556302 0.254621
497 2 0.287368 0.389613 0.172494
498 2 0.71049 0.997798 0.26342
499 2 0.88465 0.0478961 0.120592
500 2 0.201922 0.602805 0.734969
501 2 0.294787 0.277326 0.951677
502 2 0.283303 0.316208 0.416518
503 2 0.294503 0.374399 0.53074
504 2 0.742443 0.0938046 0.119744
505 2 0.0641699 0.241755 0.266601
506 2 0.589566 0.36675 0.179904
507 2 0.462685 0.870426 0.176244
508 2 0.266905 0.221568 0.320787
509 2 0.679799 0.685436 0.25692
510 2 0.192584 0.13426 0.49378
511 2 0.0947588 0.276501 0.829138
512 2 0.509604 0.166446 0.145468
513 2 0.0157904 0.0562087 0.568075
514 2 0.0837571 0.186939 0.257424
515 2 0.895913 0.88025 0.164445
516 2 0.425797 0.382458 0.395436
517 2 0.44002 0.260726 0.315702
518 2 0.538345 0.992916 0.255859
519 2 0.909872 0.659819 0.196916
520 2 0.192027 0.392798 0.330855
521 2 0.0926353 0.082092 0.471082
522 2 0.0618462 0.28188 0.957852
523 2 0.979643 0.264588 0.171395
524 2 0.27931 0.436336 0.747053
525 2 0.235131 0.836541 0.623191
526 2 0.208361 0.468489 0.275667
527 2 0.638035 0.101702 0.474127
528 2 0.231195 0.532845 0.813283
529 2 0.584172 0.379627 0.368578
530 2 0.508052 0.0476865 0.178113
531 2 0.134207 0.456417 0.39825
532 2 0.712007 0.639114 0.310125
533 2 0.391369 0.547331 0.385654
534 2 0.511487 0.217919 0.19245
535 2 0.276399 0.0668553 0.314409
536 2 0.145026 0.733996 0.513138
537 2 0.41652 0.4334 0.353388
538 2 0.967763 0.551683 0.862416
539 2 0.139868 0.551189 0.445431
540 2 0.240838 0.504628 0.311262
541 2 0.954804 0.429712 0.467988
542 2 0.343876 0.405616 0.426979
543 2 0.139243 0.142138 0.736792
544 2 0.0232411 0.399823 0.275424
545 2 0.589828 0.144613 0.371073
546 2 0.342067 0.897058 0.00325169
547 2 0.504559 0.261478 0.318772
548 2 0.258841 0.290361 0.232124
549 2 0.190724 0.496305 0.294042
550 2 0.372934 0.945989 0.223923
551 2 0.644223 0.918885 0.393149
552 2 0.240509 0.32999 0.560041
553 2 0.62205 0.295995 0.848863
554 2 0.176416 0.275437 0.439949
555 2 0.131762 0.222659 0.178587
556 2 0.248702 0.552119 0.685328
557 2 0.45851 0.59282 0.0735726
558 2 0.207756 0.490576 0.380979
559 2 0.374119 0.375102 0.48905
560 2 0.270196 0.259377 0.871676
561 2 0.0712316 0.656601 0.316505
562 2 0.444592 0.116869 0.207931
563 2 0.572237 0.200144 0.244801
564 2 0.465403 0.969081 0.0840226
565 2 0.683914 0.206504 0.142764
566 2 0.276378 0.00297718 0.316702
567 2 0.0147797 0.136431 0.958258
568 2 0.961372 0.849332 0.123759
569 2 0.460014 0.5194 0.239407
570 2 0.307759 0.432829 0.20625
571 2 0.126908 0.379014 0.179672
572 2 0.236679 0.419183 0.240472
573 2 0.103052 0.00969039 0.249008
574 2 0.529103 0.00544391 0.154623
575 2 0.311611 0.256824 0.290082
576 2 0.615528 0.503388 0.560011
577 2 0.266013 0.297451 0.484726
578 2 0.182661 0.286537 0.279517
579 2 0.2663 0.542551 0.487392
580 2 0.575306 0.11044 0.513388
581 2 0.966802 0.236375 0.42411
582 2 0.218627 0.561784 0.314842
583 2 0.354332 0.0154178 0.399661
584 2 0.424511 0.297573 0.223776
585 2 0.380948 0.980049 0.124597
586 2 0.999306 0.181827 0.860513
587 2 0.0902873 0.576471 0.559
588 2 0.0458155 0.341736 0.332395
589 2 0.789702 0.359426 0.170291
590 2 0.0478527 0.500454 0.482028
591 2 0.48885 0.15515 0.496828
592 2 0.065655 0.842607 0.155428
593 2 0.826252 0.333559 0.537703
594 2 0.252489 0.0861274 0.33342
595 2 0.623893 0.659837 0.272712
596 2 0.353268 0.123333 0.491229
597 2 0.422993 0.0928467 0.251614
598 2 0.250914 0.657473 0.499846
599 2 0.278869 0.990327 0.491486
600 2 0.135123 0.200126 0.666929
601 2 0.172153 0.328929 0.910771
602 2 0.0711876 0.901328 0.574842
603 2 0.254496 0.39131 0.470787
604 2 0.412209 0.523724 0.333696
605 2 0.191461 0.086135 0.428986
606 2 0.429334 0.491543 0.524815
607 2 0.102856 0.157824 0.970139
608 2 0.33724 0.0170464 0.195122
609 2 0.139745 0.386168 0.149589
610 2 0.205378 0.470577 0.197508
611 2 0.455221 0.388037 0.214907
612 2 0.346603 0.972335 0.219754
613 2 0.567419 0.275845 0.138311
614 2 0.128122 0.112699 0.186121
615 2 0.378346 0.764841 0.98971
616 2 0.356936 0.21092 0.359901
617 2 0.769037 0.702249 0.433933
618 2 0.89787 0.0694802 0.560344
619 2 0.124811 0.31619 0.175232
620 2 0.538436 0.180869 0.0388799
621 2 0.303418 0.930972 0.32995
622 2 0.256708 0.582346 0.25811
623 2 0.438904 0.00311872 0.149958
624 2 0.0827999 0.0323324 0.89293
625 2 0.425963 0.222575 0.136254
626 2 0.701846 0.240782 0.140734
627 2 0.0082892 0.959609 0.347767
628 2 0.627335 0.187273 0.36809
629 2 0.400205 0.665288 0.31112
630 2 0.394198 0.133649 0.342303
631 2 0.22069 0.377503 0.92942
632 2 0.307262 0.905889 0.426009
633 2 0.129216 0.667224 0.158179
634 2 0.0771714 0.403354 0.478918
635 2 0.303504 0.554548 0.643856
636 2 0.291506 0.395313 0.880546
637 2 0.47937 0.101084 0.00473167
638 2 0.428488 0.943675 0.381001
639 2 0.457145 0.0469853 0.113567
640 2 0.300614 0.731751 0.247442
641 2 0.301797 0.952687 0.372883
642 2 0.806711 0.118796 0.480074
643 2 0.804365 0.450472 0.30722
644 2 0.039955 0.16472 0.531277
645 2 0.38834 0.959007 0.33613
646 2 0.662032 0.233473 0.527117
647 2 0.155162 0.688287 0.344689
648 2 0.287746 0.323082 0.843848
649 2 0.822464 0.125673 0.217593
650 2 0.285947 0.437501 0.80062
651 2 0.358735 0.0848742 0.254617
652 2 0.512193 0.499133 0.02511
653 2 0.617947 0.308491 0.457886
654 2 0.0133351 0.45669 0.60587
655 2 0.932411 0.496185 0.1546
656 2 0.361924 0.367527 0.793542
657 2 0.977372 0.123304 0.612198
658 2 0.236643 0.125617 0.394877
659 2 0.233442 0.813585 0.41721
660 2 0.769665 0.395548 0.477003
661 2 0.524348 0.785218 0.368571
662 2 0.0182035 0.905686 0.544411
663 2 0.042951 0.0615974 0.590218
664 2 0.210964 0.730106 0.423781
665 2 0.293735 0.129209 0.770886
666 2 0.387893 0.316489 0.0494141
667 2 0.581491 0.133669 0.451855
668 2 0.50426 0.940828 0.0492146
669 2 0.946883 0.557146 0.599994
670 2 0.923331 0.392088 0.641432
671 2 0.773701 0.985358 0.276265
672 2 0.278425 0.531066 0.457468
673 2 0.214939 0.299542 0.966035
674 2 0.241537 0.138449 0.305124
675 2 0.279838 0.215106 0.891633
676 2 0.32304 0.0298993 0.679389
677 2 0.0309764 0.10566 0.699611
678 2 0.472481 0.460322 0.197763
679 2 0.0667981 0.94427 0.356009
680 2 0.201699 0.477526 0.814928
681 2 0.360993 0.214401 0.0776356
682 2 0.32336 0.980754 0.0464661
683 2 0.0433248 0.234519 0.501093
684 2 0.749323 0.398177 0.402477
685 2 0.302355 0.583212 0.296489
686 2 0.284622 0.755997 0.131242
687 2 0.52897 0.211928 0.36252
688 2 0.115949 0.455939 0.914477
689 2 0.43659 0.221468 0.868354
690 2 0.304519 0.882437 0.472065
691 2 0.14343 0.369491 0.28624
692 2 0.197831 0.188299 0.890525
693 2 0.891533 0.165621 0.256812
694 2 0.13931 0.529453 0.315751
695 2 0.815757 0.97455 0.31786
696 2 0.0927087 0.217771 0.919045
697 2 0.276296 0.535051 0.145686
698 2 0.493364 0.150919 0.172806
699 2 0.363099 0.274336 0.0802595
700 2 0.0720352 0.99032 0.544068
701 2 0.512546 0.407751 0.233306
702 2 0.223612 0.777355 0.790442
703 2 0.116034 0.338961 0.236221
704 2 0.451928 0.136366 0.274723
705 2 0.261241 0.925409 0.206826
706 2 0.980255 0.586247 0.337292
707 2 0.112044 0.386847 0.12811
708 2 0.355313 0.490633 0.383105
709 2 0.327017 0.345307 0.166507
710 2 0.322077 0.19746 0.363826
711 2 0.727988 0.707468 0.530965
712 2 0.0296494 0.521144 0.505282
713 2 0.129929 0.595121 0.909467
714 2 0.490219 0.191081 0.758879
715 2 0.330606 0.178993 0.468596
716 2 0.398974 0.265019 0.358638
717 2 0.323453 0.716102 0.187073
718 2 0.0273521 0.383183 0.748131
719 2 0.465724 0.255038 0.108167
720 2 0.54054 0.603758 0.0567174
721 2 0.712565 0.150694 0.753471
722 2 0.288995 0.251651 0.315879
723 2 0.24067 0.466079 0.206441
724 2 0.00387139 0.424298 0.0459646
725 2 0.279407 0.655938 0.736922
726 2 0.908437 0.224035 0.550076
727 2 0.123821 0.446146 0.427852
728 2 0.167814 0.411246 0.147598
729 2 0.338405 0.30118 0.316542
730 2 0.127675 0.297121 0.944525
731 2 0.230711 0.323403 0.528965
732 2 0.365721 0.718125 0.420953
733 2 0.435837 0.213891 0.503427
734 2 0.528197 0.445654 0.0103714
735 2 0.149914 0.164602 0.200587
736 2 0.0898296 0.459683 0.265569
737 2 0.657731 0.0692814 0.787932
738 2 0.626135 0.207123 0.309887
739 2 0.280905 0.0872113 0.242753
740 2 0.11598 0.555713 0.863088
741 2 0.0631908 0.406988 0.891764
742 2 0.00753691 0.284718 0.156688
743 2 0.328857 0.561779 0.121668
744 2 0.14654 0.824036 0.40917
745 2 0.995521 0.165139 0.379591
746 2 0.318973 0.201871 0.276191
747 2 0.0586664 0.377993 0.178508
748 2 0.0978928 0.196248 0.496244
749 2 0.0710344 0.385207 0.941752
750 2 0.543605 0.330494 0.385496
751 2 0.587202 0.131161 0.419668
752 2 0.230381 0.0533017 0.583921
753 2 0.308463 0.485306 0.238397
754 2 0.181654 0.803722 0.606442
755 2 0.655387 0.0126481 0.462174
756 2 0.108253 0.2735 0.677079
757 2 0.856415 0.285894 0.513359
758 2 0.404369 0.279714 0.857538
759 2 0.408427 0.248663 0.330792
760 2 0.359275 0.415003 0.352815
761 2 0.004461 0.6797 0.372038
762 2 0.203034 0.432413 0.732551
763 2 0.388944 0.101088 0.784337
764 2 0.523659 0.479451 0.0879907
765 2 0.25315 0.159955 0.387839
766 2 0.826556 0.213952 0.906145
767 2 0.741307 0.467133 0.298239
768 2 0.292118 0.783045 0.570813
769 2 0.84517 0.225591 0.507125
770 2 0.904026 0.258716 0.109309
771 2 0.206315 0.150801 0.301544
772 2 0.107006 0.41979 0.918029
773 2 0.144761 0.354628 0.900481
774 2 0.0787396 0.322406 0.28213
775 2 0.0271677 0.470375 0.684525
776 2 0.540465 0.0123146 0.0550928
777 2 0.090992 0.0418749 0.475433
778 2 0.808533 0.436726 0.486683
779 2 0.124502 0.287135 0.197419
780 2 0.142588 0.502188 0.692048
781 2 0.950862 0.63698 0.522116
782 2 0.931465 0.409196 0.487451
783 2 0.520263 0.0523131 0.258035
784 2 0.462705 0.169998 0.337427
785 2 0.653719 0.294832 0.0955679
786 2 0.461257 0.324673 0.309911
787 2 0.975489 0.40201 0.239196
788 2 0.19092 0.589935 0.517362
789 2 0.286369 0.909124 0.135785
790 2 0.364003 0.94684 0.0194238
791 2 0.508434 0.42339 0.813759
792 2 0.365245 0.585303 0.199676
793 2 0.993958 0.94571 0.787926
794 2 0.446183 0.355784 0.194079
795 2 0.438291 0.421801 0.527288
796 2 0.850978 0.152357 0.54926
797 2 0.984416 0.441107 0.510242
798 2 0.0986926 0.312089 0.254494
799 2 0.186099 0.132582 0.241109
800 2 0.144575 0.228093 0.148697
801 2 0.21633 0.245122 0.302935
802 2 0.421956 0.418206 0.323871
803 2 0.274419 0.210679 0.966504
804 2 0.984365 0.332995 0.140226
805 2 0.575263 0.358215 0.788577
806 2 0.500263 0.569125 0.965348
807 2 0.295691 0.215603 0.920628
808 2 0.0540379 0.324111 0.398221
809 2 0.991232 0.137782 0.22079
810 2 0.204685 0.140374 0.692477
811 2 0.17511 0.647644 0.312841
812 2 0.226401 0.138005 0.0418754
813 2 0.421116 0.247374 0.380071
814 2 0.226042 0.42387 0.366584
815 2 0.167969 0.215406 0.407357
816 2 0.459354 0.443552 0.131534
817 2 0.202857 0.305519 0.587337
818 2 0.299413 0.630987 0.123965
819 2 0.0390378 0.10678 0.243495
820 2 0.152703 0.299471 0.705117
821 2 0.635048 0.270075 0.364102
822 2 0.367953 0.110908 0.0935341
823 2 0.545269 0.378645 0.137067
824 2 0.522806 0.464382 0.216636
825 2 0.12142 0.483765 0.357721
826 2 0.986881 0.271596 0.649421
827 2 0.926488 0.643816 0.438533
828 2 0.244241 0.439053 0.316026
829 2 0.856158 0.404968 0.553745
830 2 0.643821 0.117186 0.336402
831 2 0.188809 0.416444 0.305653
832 2 0.436742 0.368038 0.544286
833 2 0.0661151 0.124512 0.00465433
834 2 0.274198 0.0621548 0.865717
835 2 0.122029 0.107178 0.239007
836 2 0.546745 0.0327462 0.561591
837 2 0.602618 0.236385 0.31942
838 2 0.253613 0.116274 0.926929
839 2 0.88031 0.497429 0.472579
840 2 0.316797 0.335872 0.136577
841 2 0.684842 0.985743 0.159967
842 2 0.565215 0.446412 0.323417
843 2 0.162059 0.175459 0.581997
844 2 0.893574 0.459941 0.546153
845 2 0.278752 0.452477 0.306119
846 2 0.00771234 0.418632 0.443503
847 2 0.299176 0.0377171 0.359134
848 2 0.242293 0.247896 0.987518
849 2 0.137323 0.119063 0.364463
850 2 0.300762 0.892407 0.0511473
851 2 0.30124 0.303812 0.329239
852 2 0.26002 0.429777 0.422996
853 2 0.126033 0.174753 0.570078
854 2 0.41044 0.211009 0.337497
855 2 0.421149 0.211363 0.104824
856 2 0.253146 0.195311 0.988419
857 2 0.152823 0.0861845 0.229572
858 2 0.934509 0.167104 0.382161
859 2 0.24838 0.515653 0.442651
860 2 0.408973 0.650815 0.469943
861 2 0.361189 0.365389 0.291906
862 2 0.480616 0.86008 0.575823
863 2 0.899675 0.645841 0.360046
864 2 0.848324 0.127388 0.925523
865 2 0.980224 0.958206 0.621497
866 2 0.58704 0.477148 0.560143
867 2 0.231836 0.229074 0.62989
868 2 0.428546 0.117717 0.0240535
869 2 0.0411122 0.146041 0.483418
870 2 0.0440493 0.304278 0.32307
871 2 0.875704 0.413242 0.362789
872 2 0.410622 0.29091 0.2889
873 2 0.651742 0.20838 0.862394
874 2 0.249643 0.370101 0.42269
875 2 0.098554 0.217063 0.192629
876 2 0.0335786 0.0942791 0.60578
877 2 0.112437 0.274856 0.346068
878 2 0.497416 0.362806 0.590638
879 2 0.611006 0.361661 0.0684142
880 2 0.307014 0.411836 0.151132
881 2 0.350703 0.323855 0.415
882 2 0.217425 0.0927076 0.321681
883 2 0.262371 0.794266 0.368717
884 2 0.297736 0.38341 0.943249
885 2 0.250836 0.956982 0.883225
886 2 0.123657 0.439225 0.492729
887 2 0.299786 0.125728 0.195849
888 2 0.250533 0.976736 0.391834
889 2 0.133425 0.18277 0.442405
890 2 0.361382 0.147881 0.275377
891 2 0.353441 0.103518 0.394124
892 2 0.88066 0.0665872 0.627491
893 2 0.0627948 0.054349 0.914241
894 2 0.371627 0.218888 0.137141
895 2 0.896862 0.272062 0.320174
896 2 0.342233 0.348666 0.438289
897 2 0.895647 0.403547 0.478723
898 2 0.921959 0.0128807 0.380219
899 2 0.373717 0.102221 0.335342
900 2 0.997755 0.225509 0.360962
901 2 0.283623 0.606459 0.403621
902 2 0.432131 0.677597 0.480651
903 2 0.328063 0.455794 0.18472
904 2 0.272525 0.835956 0.613421