ITEM: TIMESTEP
441118
ITEM: NUMBER OF ATOMS
14500
ITEM: BOX BOUNDS pp pp pp
-1.8624718613163151e+00 5.9783655467492970e+01
-1.8624718613163151e+00 5.9783655467492970e+01
-1.8624718613163151e+00 7.5724452411556882e+01
ITEM: ATOMS id type xs ys zs
1 2 0.847621 0.0524747 0.355715
2 2 0.667991 0.072237 0.106524
3 2 0.625743 0.217096 0.0829587
4 2 0.211742 0.169941 0.286767
5 2 0.256172 0.345507 0.26946
6 2 0.147238 0.27053 0.259065
7 2 0.495216 0.435918 0.143234
8 2 0.373567 0.227753 0.512823
9 2 0.202746 0.0584924 0.33563
10 2 0.314496 0.0829204 0.576736
11 2 0.337776 0.431878 0.179572
12 2 0.442377 0.182995 0.456029
13 2 0.503164 0.960552 0.235886
14 2 0.358663 0.972684 0.186119
15 2 0.11398 0.342026 0.393992
16 2 0.460607 0.207613 0.168166
17 2 0.389749 0.114104 0.404235
18 2 0.327476 0.287502 0.658682
19 2 0.371317 0.105077 0.443455
20 2 0.817037 0.541498 0.239354
21 2 0.698647 0.0496025 0.269707
22 2 0.302314 0.342363 0.233164
23 2 0.124857 0.43886 0.656442
24 2 0.305859 0.296579 0.210607
25 2 0.181494 0.470693 0.433287
26 2 0.540261 0.590975 0.492256
27 2 0.585794 0.543432 0.237052
28 2 0.166336 0.344416 0.283968
29 2 0.965497 0.149854 0.401629
30 2 0.333361 0.373238 0.321318
31 2 0.546624 0.157105 0.220624
32 2 0.718147 0.239809 0.727453
33 2 0.498021 0.146945 0.242778
34 2 0.338068 0.47706 0.292679
35 2 0.184533 0.301471 0.495753
36 2 0.989245 0.403764 0.504696
37 2 0.0996453 0.500347 0.446657
38 2 0.0315922 0.25937 0.540176
39 2 0.155691 0.223978 0.315665
40 2 0.191446 0.991684 0.359209
41 2 0.958058 0.321454 0.184893
42 2 0.905347 0.0332169 0.035968
43 2 0.624031 0.318608 0.250743
44 2 0.31301 0.811705 0.475847
45 2 0.914959 0.422815 0.223053
46 2 0.585893 0.0439962 0.510682
47 2 0.423142 0.883036 0.564402
48 2 0.132902 0.0956123 0.82678
49 2 0.577474 0.385541 0.420063
50 2 0.14817 0.218429 0.437368
51 2 0.605674 0.246249 0.751214
52 2 0.216146 0.0693869 0.855996
53 2 0.360565 0.116069 0.80107
54 2 0.325132 0.269719 0.409986
55 2 0.129811 0.0895949 0.466538
56 2 0.413142 0.261105 0.246979
57 2 0.990127 0.182605 0.625244
58 2 0.0284359 0.246797 0.420317
59 2 0.435569 0.449667 0.21941
60 2 0.602456 0.194254 0.0688029
61 2 0.00678111 0.228746 0.489722
62 2 0.376974 0.242467 0.322456
63 2 0.258133 0.0556275 0.948993
64 2 0.562091 0.373176 0.22085
65 2 0.278121 0.0715936 0.90422
66 2 0.216567 0.148703 0.560531
67 2 0.135586 0.472459 0.225512
68 2 0.813738 0.349487 0.346469
69 2 0.349578 0.160363 0.261066
70 2 0.620744 0.427878 0.109695
71 2 0.0225534 0.735247 0.279958
72 2 0.989259 0.853244 0.615852
73 2 0.573562 0.905296 0.260401
74 2 0.263557 0.99706 0.792308
75 2 0.994803 0.517655 0.466695
76 2 0.269466 0.327694 0.244656
77 2 0.319656 0.113764 0.302812
78 2 0.728907 0.0677687 0.36039
79 2 0.0464362 0.385219 0.522069
80 2 0.191588 0.381701 0.172667
81 2 0.0235565 0.673843 0.194987
82 2 0.343523 0.345081 0.814604
83 2 0.159703 0.26824 0.795889
84 2 0.208364 0.47088 0.455011
85 2 0.681445 0.316153 0.25421
86 2 0.426521 0.964587 0.0618291
87 2 0.537545 0.388854 0.266488
88 2 0.228669 0.471694 0.916372
89 2 0.150304 0.437751 0.340038
90 2 0.871776 0.668906 0.204191
91 2 0.768556 0.151381 0.774611
92 2 0.565546 0.135404 0.663135
93 2 0.285468 0.697091 0.352192
94 2 0.148782 0.246212 0.895681
95 2 0.301931 0.382957 0.581021
96 2 0.534618 0.286129 0.530609
97 2 0.186239 0.662846 0.506054
98 2 0.342473 0.0964649 0.188992
99 2 0.291847 0.228311 0.607333
100 2 0.425045 0.279888 0.104164
101 2 0.427895 0.0382289 0.202369
102 2 0.127132 0.136023 0.274593
103 2 0.191125 0.524501 0.389484
104 2 0.0984148 0.556144 0.94722
105 2 0.634455 0.403519 0.218922
106 2 0.340746 0.046395 0.336266
107 2 0.453508 0.234015 0.372706
108 2 0.282279 0.429843 0.866054
109 2 0.904625 0.215514 0.640467
110 2 0.471092 0.565953 0.17774
111 2 0.3599 0.647575 0.560979
112 2 0.262347 0.161214 0.236565
113 2 0.132668 0.335199 0.567495
114 2 0.305141 0.28964 0.288596
115 2 0.627558 0.932406 0.452311
116 2 0.3431 0.212441 0.219983
117 2 0.484742 0.559494 0.366723
118 2 0.99327 0.323858 0.41765
119 2 0.0158089 0.209515 0.262092
120 2 0.401563 0.217748 0.398547
121 2 0.286775 0.104357 0.378192
122 2 0.134101 0.0845973 0.796934
123 2 0.0297662 0.137047 0.423311
124 2 0.130715 0.192745 0.535029
125 2 0.215439 0.292431 0.182718
126 2 0.316464 0.687098 0.0139794
127 2 0.453815 0.233936 0.212439
128 2 0.254567 0.751696 0.41179
129 2 0.436303 0.0789191 0.463227
130 2 0.41881 0.393719 0.464678
131 2 0.146144 0.0160554 0.332081
132 2 0.139941 0.433556 0.921745
133 2 0.0768285 0.407517 0.527251
134 2 0.946604 0.221041 0.247156
135 2 0.764819 0.188222 0.354451
136 2 0.396251 0.258349 0.0967463
137 2 0.159862 0.443337 0.183139
138 2 0.490411 0.90818 0.235426
139 2 0.347738 0.396262 0.456795
140 2 0.734787 0.226951 0.475626
141 2 0.325049 0.0478964 0.158189
142 2 0.724097 0.320191 0.185629
143 2 0.321325 0.990378 0.130828
144 2 0.931593 0.678915 0.237495
145 2 0.0711244 0.40004 0.660975
146 2 0.432459 0.453239 0.479757
147 2 0.180919 0.356953 0.334
148 2 0.165504 0.00864595 0.8331
149 2 0.205119 0.411639 0.42935
150 2 0.486565 0.196702 0.559154
151 2 0.356379 0.224086 0.0750555
152 2 0.789965 0.478765 0.0717697
153 2 0.192361 0.349261 0.305694
154 2 0.660425 0.931946 0.350309
155 2 0.61811 0.125908 0.32239
156 2 0.00773236 0.00292282 0.429176
157 2 0.589982 0.799454 0.368596
158 2 0.18343 0.0944599 0.261025
159 2 0.403377 0.0888125 0.514667
160 2 0.157698 0.991933 0.26423
161 2 0.523596 0.00351404 0.517712
162 2 0.101201 0.683254 0.439909
163 2 0.684934 0.916856 0.434433
164 2 0.157189 0.409902 0.455634
165 2 0.881654 0.328696 0.791862
166 2 0.106284 0.482358 0.336888
167 2 0.838806 0.960661 0.485234
168 2 0.232295 0.236353 0.339986
169 2 0.234601 0.982804 0.209447
170 2 0.932007 0.715578 0.282509
171 2 0.103133 0.40788 0.728156
172 2 0.242158 0.409893 0.494096
173 2 0.413565 0.392357 0.522386
174 2 0.180979 0.111411 0.451789
175 2 0.287541 0.718387 0.160157
176 2 0.0809101 0.452726 0.341046
177 2 0.330818 0.864598 0.506321
178 2 0.205912 0.441498 0.91021
179 2 0.603232 0.315342 0.800812
180 2 0.0661158 0.0696681 0.993845
181 2 0.622498 0.2955 0.390819
182 2 0.958264 0.835363 0.22855
183 2 0.0366293 0.312152 0.608394
184 2 0.208084 0.177863 0.360786
185 2 0.208274 0.288933 0.453371
186 2 0.105332 0.556747 0.501723
187 2 0.859162 0.495674 0.804005
188 2 0.183649 0.965573 0.270839
189 2 0.390031 0.932393 0.457605
190 2 0.999229 0.743502 0.557031
191 2 0.209539 0.247763 0.261813
192 2 0.866482 0.0495219 0.506035
193 2 0.376412 0.0284172 0.170418
194 2 0.106778 0.457355 0.382302
195 2 0.603389 0.469915 0.710851
196 2 0.881719 0.432776 0.345241
197 2 0.837248 0.158786 0.791801
198 2 0.204743 0.563574 0.88936
199 2 0.148158 0.248901 0.485487
200 2 0.243413 0.316051 0.284621
201 2 0.281172 0.0464778 0.926491
202 2 0.194834 0.947339 0.560056
203 2 0.43106 0.561956 0.13896
204 2 0.44434 0.151561 0.472086
205 2 0.980287 0.527623 0.207661
206 2 0.375783 0.191318 0.221406
207 2 0.384439 0.380011 0.249338
208 2 0.242974 0.710014 0.264553
209 2 0.10642 0.235529 0.35202
210 2 0.780822 0.977226 0.722531
211 2 0.278892 0.469532 0.180516
212 2 0.291534 0.336362 0.305894
213 2 0.351466 0.136591 0.638412
214 2 0.03823 0.0505931 0.459357
215 2 0.47783 0.177305 0.209953
216 2 0.371021 0.31745 0.13917
217 2 0.0456243 0.509316 0.216162
218 2 0.220911 0.299187 0.824389
219 2 0.0139501 0.987328 0.307379
220 2 0.436335 0.127553 0.314694
221 2 0.244743 0.0181823 0.204109
222 2 0.0607434 0.796853 0.35054
223 2 0.414178 0.317792 0.538177
224 2 0.230574 0.196791 0.43037
225 2 0.150716 0.427205 0.276976
226 2 0.0970633 0.790843 0.257749
227 2 0.29933 0.354855 0.204001
228 2 0.904884 0.925441 0.37989
229 2 0.470786 0.0834468 0.340448
230 2 0.232701 0.17451 0.815267
231 2 0.144057 0.798486 0.294076
232 2 0.694946 0.473163 0.253323
233 2 0.154229 0.310241 0.295257
234 2 0.574248 0.329166 0.279149
235 2 0.397631 0.349212 0.265011
236 2 0.45515 0.919684 0.0384023
237 2 0.37254 0.0391256 0.687164
238 2 0.912996 0.2228 0.392733
239 2 0.156487 0.516917 0.75232
240 2 0.561404 0.0254755 0.642877
241 2 0.0975284 0.439708 0.745361
242 2 0.477925 0.843071 0.284202
243 2 0.278397 0.459597 0.846451
244 2 0.0449125 0.463262 0.643047
245 2 0.357275 0.832017 0.119888
246 2 0.670207 0.630293 0.221928
247 2 0.0829351 0.465947 0.185015
248 2 0.0976436 0.43149 0.362326
249 2 0.677449 0.111303 0.426728
250 2 0.476102 0.290583 0.20323
251 2 0.212086 0.606916 0.216426
252 2 0.426282 0.165447 0.414362
253 2 0.0413725 0.181954 0.606007
254 2 0.543411 0.824691 0.970021
255 2 0.734335 0.87328 0.281529
256 2 0.219002 0.0828688 0.487114
257 2 0.684959 0.633036 0.441397
258 2 0.984802 0.365222 0.360437
259 2 0.382657 0.290925 0.281153
260 2 0.424763 0.524302 0.266039
261 2 0.983731 0.244704 0.217373
262 2 0.692579 0.970637 0.383198
263 2 0.32926 0.316975 0.227704
264 2 0.296182 0.385508 0.266172
265 2 0.423855 0.0362169 0.287885
266 2 0.251257 0.261123 0.441877
267 2 0.343829 0.190971 0.122061
268 2 0.0362803 0.310619 0.93066
269 2 0.172103 0.405398 0.684166
270 2 0.738066 0.239428 0.171318
271 2 0.379427 0.843772 0.179495
272 2 0.607676 0.0361593 0.313499
273 2 0.0842079 0.320825 0.383479
274 2 0.401291 0.125968 0.446794
275 2 0.512744 0.794094 0.0735287
276 2 0.216724 0.992662 0.818737
277 2 0.334804 0.519445 0.476294
278 2 0.078198 0.220849 0.532892
279 2 0.100807 0.0862051 0.42139
280 2 0.553506 0.390119 0.0997249
281 2 0.186123 0.330512 0.4743
282 2 0.174999 0.283417 0.735635
283 2 0.0660976 0.191214 0.454692
284 2 0.299225 0.137671 0.284418
285 2 0.112817 0.046707 0.265304
286 2 0.0072744 0.360296 0.216267
287 2 0.128275 0.111377 0.423124
288 2 0.330638 0.238364 0.197498
289 2 0.255865 0.23381 0.48296
290 2 0.997788 0.583634 0.567361
291 2 0.694011 0.232544 0.771442
292 2 0.387117 0.168808 0.303841
293 2 0.226903 0.309926 0.410946
294 2 0.0642544 0.689213 0.0844456
295 2 0.0428852 0.461689 0.479123
296 2 0.24418 0.676716 0.167705
297 2 0.516408 0.630014 0.184711
298 2 0.282119 0.33707 0.334967
299 2 0.372016 0.0526362 0.58018
300 2 0.159856 0.315793 0.620523
301 2 0.290867 0.194687 0.152479
302 2 0.521415 0.196099 0.754319
303 2 0.712957 0.981471 0.749988
304 2 0.293156 0.497098 0.796665
305 2 0.713871 0.328158 0.324244
306 2 0.401489 0.819439 0.196265
307 2 0.592923 0.00704823 0.400511
308 2 0.58074 0.253909 0.284971
309 2 0.0348284 0.416508 0.390025
310 2 0.160259 0.502047 0.577665
311 2 0.25428 0.402255 0.328683
312 2 0.551314 0.863661 0.489818
313 2 0.439272 0.978877 0.129042
314 2 0.756446 0.24933 0.764063
315 2 0.0403994 0.581796 0.363509
316 2 0.834729 0.469559 0.418447
317 2 0.31382 0.764433 0.135481
318 2 0.297457 0.420816 0.304515
319 2 0.895775 0.297582 0.778785
320 2 0.255789 0.934664 0.582841
321 2 0.0270407 0.325317 0.5196
322 2 0.465042 0.12924 0.181854
323 2 0.201072 0.443857 0.750927
324 2 0.16379 0.146925 0.276496
325 2 0.156437 0.320852 0.456647
326 2 0.226455 0.927882 0.260521
327 2 0.604597 0.309416 0.865989
328 2 0.362213 0.974266 0.0690816
329 2 0.971226 0.053453 0.376681
330 2 0.021591 0.593707 0.239031
331 2 0.626054 0.514533 0.138075
332 2 0.0502608 0.375227 0.930257
333 2 0.922091 0.838716 0.444653
334 2 0.0161109 0.351293 0.427665
335 2 0.165745 0.242802 0.457532
336 2 0.785509 0.0192055 0.665438
337 2 0.247226 0.743938 0.347592
338 2 0.543377 0.541663 0.0318061
339 2 0.392617 0.0754581 0.255021
340 2 0.240142 0.96604 0.720474
341 2 0.385699 0.555945 0.0743277
342 2 0.327425 0.150991 0.213237
343 2 0.535843 0.302107 0.370538
344 2 0.129177 0.994692 0.283239
345 2 0.241096 0.387713 0.153184
346 2 0.159675 0.403565 0.299647
347 2 0.363667 0.275465 0.374211
348 2 0.0408097 0.44242 0.504638
349 2 0.525016 0.868482 0.925281
350 2 0.0271442 0.499887 0.981895
351 2 0.983321 0.0438303 0.626776
352 2 0.322848 0.998426 0.291312
353 2 0.418986 0.237949 0.223699
354 2 0.749252 0.234848 0.199954
355 2 0.14691 0.988108 0.89377
356 2 0.179498 0.509562 0.243368
357 2 0.572346 0.171187 0.312515
358 2 0.0536877 0.489976 0.308424
359 2 0.779245 0.233534 0.447823
360 2 0.218715 0.222892 0.905774
361 2 0.425767 0.967051 0.41017
362 2 0.321796 0.357483 0.541398
363 2 0.455289 0.299386 0.829342
364 2 0.373045 0.185898 0.141147
365 2 0.186088 0.226072 0.857746
366 2 0.36112 0.264219 0.40292
367 2 0.348429 0.0526193 0.2835
368 2 0.11739 0.532414 0.208334
369 2 0.447865 0.439706 0.773349
370 2 0.0633133 0.372439 0.43868
371 2 0.0475641 0.359123 0.411752
372 2 0.37177 0.377633 0.359108
373 2 0.517175 0.4072 0.351475
374 2 0.97581 0.31167 0.482613
375 2 0.297084 0.556612 0.545776
376 2 0.953586 0.380287 0.190516
377 2 0.959423 0.497991 0.197257
378 2 0.328844 0.248422 0.489132
379 2 0.161938 0.539353 0.511895
380 2 0.0981606 0.59983 0.320912
381 2 0.288969 0.317462 0.846865
382 2 0.350322 0.920421 0.525523
383 2 0.477808 0.177504 0.152877
384 2 0.153802 0.0828934 0.645971
385 2 0.273656 0.435502 0.395363
386 2 0.672421 0.331338 0.227104
387 2 0.368279 0.283299 0.452675
388 2 0.310095 0.418129 0.2762
389 2 0.377066 0.19096 0.386034
390 2 0.452277 0.0281079 0.629824
391 2 0.135615 0.332255 0.519016
392 2 0.371385 0.803958 0.74483
393 2 0.316497 0.803596 0.285354
394 2 0.433409 0.122696 0.0022163
395 2 0.448395 0.373938 0.123769
396 2 0.0825885 0.106026 0.492654
397 2 0.764029 0.543183 0.340445
398 2 0.99345 0.642286 0.735288
399 2 0.155396 0.446848 0.445638
400 2 0.341908 0.245535 0.0968321
401 2 0.173361 0.992472 0.217894
402 2 0.274533 0.601684 0.293937
403 2 0.452473 0.0400618 0.584455
404 2 0.455089 0.492844 0.306636
405 2 0.132971 0.147252 0.193983
406 2 0.0884792 0.0393387 0.332871
407 2 0.456686 0.870793 0.1215
408 2 0.922341 0.522566 0.231103
409 2 0.394785 0.242378 0.200585
410 2 0.00636789 0.368343 0.626086
411 2 0.735389 0.325207 0.839548
412 2 0.508324 0.75798 0.246756
413 2 0.165749 0.942582 0.12044
414 2 0.836514 0.200182 0.395281
415 2 0.154217 0.308879 0.327256
416 2 0.185387 0.0375713 0.292751
417 2 0.381771 0.402954 0.424895
418 2 0.537759 0.346722 0.232011
419 2 0.504794 0.608327 0.224301
420 2 0.092337 0.361952 0.201743
421 2 0.946569 0.412879 0.670179
422 2 0.247762 0.140624 0.344974
423 2 0.347232 0.299715 0.249978
424 2 0.121838 0.545829 0.925734
425 2 0.389004 0.0713057 0.358168
426 2 0.337569 0.222817 0.170455
427 2 0.585708 0.327314 0.723449
428 2 0.17608 0.182137 0.285719
429 2 0.427707 0.212671 0.470775
430 2 0.985151 0.135255 0.312352
431 2 0.355423 0.589334 0.092048
432 2 0.96148 0.0302852 0.42065
433 2 0.535984 0.00136228 0.226002
434 2 0.279048 0.0168988 0.192353
435 2 0.460937 0.991176 0.255924
436 2 0.168593 0.263901 0.355442
437 2 0.219051 0.872026 0.604746
438 2 0.86066 0.494983 0.112762
439 2 0.486627 0.01887 0.291906
440 2 0.387254 0.0158766 0.226161
441 2 0.210013 0.983523 0.289206
442 2 0.069849 0.99253 0.266444
443 2 0.296234 0.899289 0.270343
444 2 0.801451 0.281465 0.541002
445 2 0.0122737 0.353001 0.173608
446 2 0.00742662 0.507345 0.223142
447 2 0.407513 0.0316548 0.395124
448 2 0.417202 0.0536733 0.0622249
449 2 0.359421 0.312806 0.371623
450 2 0.0971291 0.806056 0.356204
451 2 0.359251 0.158652 0.425338
452 2 0.00450302 0.500242 0.278183
453 2 0.0976811 0.191682 0.435437
454 2 0.873703 0.233426 0.555736
455 2 0.52705 0.353837 0.260708
456 2 0.712905 0.420699 0.805091
457 2 0.310399 0.263975 0.466083
458 2 0.144835 0.255811 0.947116
459 2 0.588554 0.269483 0.578674
460 2 0.980342 0.307546 0.827291
461 2 0.914242 0.0711523 0.407321
462 2 0.455191 0.764373 0.125111
463 2 0.316164 0.240241 0.14903
464 2 0.470352 0.335187 0.229565
465 2 0.120353 0.24617 0.399591
466 2 0.507435 0.0251855 0.223763
467 2 0.903438 0.480747 0.286384
468 2 0.0544838 0.540172 0.971509
469 2 0.441171 0.334648 0.828273
470 2 0.272399 0.302893 0.300256
471 2 0.47587 0.461394 0.346616
472 2 0.262491 0.196958 0.470725
473 2 0.0425006 0.205676 0.196063
474 2 0.241162 0.644213 0.425884
475 2 0.331512 0.157696 0.171372
476 2 0.0702914 0.0983852 0.545978
477 2 0.454213 0.354218 0.251689
478 2 0.462804 0.93825 0.280997
479 2 0.130394 0.310182 0.476558
480 2 0.3407 0.566411 0.198339
481 2 0.314745 0.143531 0.257134
482 2 0.344216 0.262891 0.317791
483 2 0.384637 0.392066 0.133678
484 2 0.0838883 0.286396 0.370493
485 2 0.775021 0.541667 0.108013
486 2 0.610041 0.872446 0.20312
487 2 0.259186 0.268522 0.910912
488 2 0.135796 0.370151 0.480768
489 2 0.598123 0.172751 0.358453
490 2 0.349529 0.378755 0.236566
491 2 0.2867 0.368607 0.43605
492 2 0.083364 0.319874 0.443778
493 2 0.127215 0.284664 0.786143
494 2 0.974866 0.172478 0.42474
495 2 0.325325 0.294825 0.557274
496 2 0.766817 0.555648 0.268989
497 2 0.28758 0.3891 0.191498
498 2 0.71038 0.997281 0.277729
499 2 0.885503 0.0463217 0.151281
500 2 0.201901 0.602118 0.713855
501 2 0.294234 0.279377 0.91785
502 2 0.283306 0.316109 0.41898
503 2 0.294442 0.37443 0.525252
504 2 0.743096 0.0916422 0.145555
505 2 0.0643099 0.241126 0.279773
506 2 0.589827 0.366315 0.198571
507 2 0.463776 0.869753 0.196384
508 2 0.266893 0.22141 0.330737
509 2 0.679992 0.684733 0.271356
510 2 0.192499 0.13437 0.490918
511 2 0.0948504 0.278464 0.803213
512 2 0.509994 0.166087 0.167078
513 2 0.0153702 0.056505 0.560376
514 2 0.084044 0.186309 0.271204
515 2 0.896135 0.878646 0.186765
516 2 0.425716 0.382215 0.399372
517 2 0.440055 0.260537 0.325253
518 2 0.538316 0.99257 0.270267
519 2 0.910097 0.658733 0.215327
520 2 0.192082 0.392481 0.339273
521 2 0.09257 0.082148 0.469988
522 2 0.0616381 0.284635 0.922949
523 2 0.979482 0.263319 0.191686
524 2 0.279175 0.43705 0.726578
525 2 0.234399 0.836751 0.611032
526 2 0.208429 0.468029 0.287719
527 2 0.637775 0.10168 0.473422
528 2 0.231265 0.533273 0.787289
529 2 0.584161 0.379305 0.374691
530 2 0.508692 0.0474515 0.197906
531 2 0.134328 0.456123 0.402086
532 2 0.711988 0.638525 0.320671
533 2 0.391628 0.546922 0.390082
534 2 0.511604 0.217637 0.210698
535 2 0.276212 0.0668852 0.323803
536 2 0.144676 0.7341 0.508876
537 2 0.416456 0.432889 0.360097
538 2 0.969937 0.552257 0.833303
539 2 0.139701 0.550967 0.445802
540 2 0.240969 0.504139 0.320931
541 2 0.954711 0.429679 0.46731
542 2 0.343832 0.405503 0.428601
543 2 0.139619 0.14332 0.716715
544 2 0.0232282 0.399141 0.288253
545 2 0.589656 0.144455 0.377421
546 2 0.345537 0.895422 0.0343572
547 2 0.504458 0.261289 0.328274
548 2 0.258696 0.290044 0.246807
549 2 0.190841 0.495776 0.304938
550 2 0.373235 0.945668 0.24015
551 2 0.644072 0.918763 0.39817
552 2 0.24044 0.330142 0.552555
553 2 0.621387 0.297204 0.822317
554 2 0.17642 0.275365 0.440848
555 2 0.131496 0.221999 0.197562
556 2 0.248574 0.552237 0.668298
557 2 0.459518 0.592068 0.0997401
558 2 0.207846 0.490281 0.38586
559 2 0.374096 0.375259 0.486616
560 2 0.270048 0.261022 0.843081
561 2 0.0714122 0.656065 0.326233
562 2 0.444766 0.11664 0.225207
563 2 0.572183 0.199844 0.259707
564 2 0.4681 0.968229 0.111674
565 2 0.684007 0.205547 0.164781
566 2 0.276264 0.00289917 0.326104
567 2 0.0132467 0.137879 0.920874
568 2 0.961724 0.846705 0.148969
569 2 0.460324 0.518863 0.254077
570 2 0.307888 0.432286 0.222947
571 2 0.12663 0.378453 0.198412
572 2 0.236716 0.418686 0.254852
573 2 0.103924 0.00879595 0.263314
574 2 0.530074 0.00519559 0.176246
575 2 0.311123 0.25621 0.301214
576 2 0.615449 0.503547 0.552992
577 2 0.265989 0.297431 0.482489
578 2 0.182904 0.286227 0.29136
579 2 0.26625 0.542526 0.484714
580 2 0.575081 0.110574 0.50975
581 2 0.966823 0.236165 0.426648
582 2 0.218808 0.561323 0.324288
583 2 0.354227 0.0153811 0.403465
584 2 0.424535 0.297155 0.239508
585 2 0.382036 0.979834 0.148078
586 2 0.999226 0.184759 0.831052
587 2 0.0899755 0.576562 0.551441
588 2 0.0457531 0.341364 0.341026
589 2 0.789502 0.358158 0.190462
590 2 0.0477143 0.500398 0.48014
591 2 0.488714 0.155235 0.494087
592 2 0.0659477 0.841107 0.17715
593 2 0.82594 0.333731 0.532298
594 2 0.252311 0.0859779 0.341588
595 2 0.623962 0.659196 0.285704
596 2 0.353089 0.123396 0.488613
597 2 0.423061 0.092664 0.265888
598 2 0.250635 0.657511 0.496214
599 2 0.278741 0.990329 0.488808
600 2 0.135167 0.200978 0.651849
601 2 0.171803 0.331174 0.879354
602 2 0.0705391 0.901596 0.566466
603 2 0.254494 0.391257 0.469424
604 2 0.41216 0.523107 0.341709
605 2 0.191412 0.0861579 0.430589
606 2 0.429255 0.491536 0.51962
607 2 0.10141 0.159461 0.935405
608 2 0.337523 0.0166483 0.213107
609 2 0.139156 0.385573 0.170266
610 2 0.205481 0.470017 0.214829
611 2 0.455419 0.387546 0.231108
612 2 0.346916 0.971987 0.236164
613 2 0.567732 0.275461 0.160138
614 2 0.12792 0.112071 0.204461
615 2 0.381132 0.766208 0.0238885
616 2 0.356878 0.210745 0.366384
617 2 0.768862 0.702217 0.435906
618 2 0.897517 0.0696095 0.553659
619 2 0.124435 0.315627 0.194298
620 2 0.539623 0.180369 0.0679245
621 2 0.303499 0.930697 0.338653
622 2 0.256991 0.581744 0.271521
623 2 0.439881 0.00289069 0.171916
624 2 0.0839969 0.0346973 0.859552
625 2 0.426305 0.222155 0.158161
626 2 0.70192 0.23977 0.16283
627 2 0.00832089 0.959306 0.355666
628 2 0.627195 0.187109 0.37457
629 2 0.400365 0.66476 0.321188
630 2 0.394022 0.133585 0.350149
631 2 0.2201 0.379725 0.897555
632 2 0.307388 0.905868 0.42784
633 2 0.129902 0.666101 0.17879
634 2 0.0770559 0.403265 0.477282
635 2 0.303402 0.554639 0.630146
636 2 0.291049 0.397445 0.851333
637 2 0.481054 0.100562 0.0352449
638 2 0.428428 0.943468 0.3864
639 2 0.458548 0.0466292 0.137826
640 2 0.300974 0.731219 0.261805
641 2 0.301743 0.95267 0.378463
642 2 0.806391 0.118776 0.479012
643 2 0.804076 0.4499 0.318092
644 2 0.0397618 0.164967 0.52608
645 2 0.388357 0.958792 0.344598
646 2 0.661767 0.233617 0.522545
647 2 0.155258 0.687858 0.352341
648 2 0.287538 0.324295 0.817132
649 2 0.822407 0.12497 0.235132
650 2 0.285785 0.438478 0.776465
651 2 0.35879 0.0847686 0.268477
652 2 0.51495 0.497846 0.0540391
653 2 0.617675 0.308531 0.458103
654 2 0.0129218 0.457375 0.595298
655 2 0.931832 0.494558 0.177575
656 2 0.36178 0.368457 0.770295
657 2 0.976986 0.123738 0.60139
658 2 0.236714 0.125645 0.398706
659 2 0.233512 0.813429 0.419814
660 2 0.769436 0.395576 0.475896
661 2 0.524388 0.784979 0.374951
662 2 0.0177109 0.905993 0.538373
663 2 0.0425845 0.0619954 0.580907
664 2 0.210869 0.729898 0.425795
665 2 0.293695 0.129746 0.749266
666 2 0.388417 0.315713 0.0768881
667 2 0.581282 0.133638 0.452595
668 2 0.508713 0.940104 0.0795789
669 2 0.946348 0.557806 0.590042
670 2 0.922899 0.392564 0.628674
671 2 0.773736 0.984839 0.289459
672 2 0.278488 0.530926 0.45692
673 2 0.214306 0.301503 0.931044
674 2 0.241792 0.137338 0.314777
675 2 0.279395 0.216899 0.861749
676 2 0.322523 0.0305915 0.663457
677 2 0.0306076 0.10646 0.681656
678 2 0.472847 0.459715 0.215174
679 2 0.0667984 0.943967 0.363133
680 2 0.201045 0.47859 0.789637
681 2 0.361634 0.2137 0.103271
682 2 0.325557 0.978774 0.0757318
683 2 0.0431106 0.234595 0.497866
684 2 0.749101 0.397931 0.406519
685 2 0.302588 0.582729 0.307155
686 2 0.285539 0.755406 0.153913
687 2 0.528846 0.211764 0.369243
688 2 0.1197 0.458123 0.883465
689 2 0.436324 0.222574 0.839854
690 2 0.304413 0.882534 0.470594
691 2 0.143459 0.369046 0.297686
692 2 0.197486 0.19021 0.860598
693 2 0.891522 0.164815 0.271419
694 2 0.139416 0.52896 0.32523
695 2 0.815708 0.974127 0.328322
696 2 0.0921942 0.219537 0.887316
697 2 0.276728 0.534391 0.166526
698 2 0.493696 0.150654 0.192568
699 2 0.363579 0.273657 0.105692
700 2 0.0716088 0.990559 0.537924
701 2 0.512708 0.407224 0.248356
702 2 0.222735 0.777719 0.766598
703 2 0.116019 0.338421 0.251178
704 2 0.451921 0.136206 0.287366
705 2 0.261572 0.924933 0.224081
706 2 0.980284 0.585651 0.345988
707 2 0.110913 0.386451 0.150716
708 2 0.355367 0.490339 0.387715
709 2 0.327294 0.344806 0.185994
710 2 0.322106 0.197031 0.3698
711 2 0.727699 0.707599 0.526257
712 2 0.0294774 0.521102 0.501778
713 2 0.130948 0.599743 0.874576
714 2 0.490023 0.193095 0.737029
715 2 0.330496 0.179051 0.46756
716 2 0.398951 0.264857 0.365222
717 2 0.324077 0.715541 0.205828
718 2 0.0268176 0.383847 0.72737
719 2 0.466164 0.25451 0.131947
720 2 0.541539 0.603323 0.0844238
721 2 0.712054 0.151802 0.733202
722 2 0.288868 0.251432 0.325491
723 2 0.240794 0.465545 0.223123
724 2 0.00473708 0.425662 0.0824326
725 2 0.279074 0.655796 0.715612
726 2 0.908121 0.224311 0.543895
727 2 0.123824 0.445902 0.429645
728 2 0.167244 0.41061 0.168246
729 2 0.338336 0.300787 0.325717
730 2 0.127148 0.29934 0.910641
731 2 0.230636 0.323474 0.523626
732 2 0.365764 0.717982 0.423169
733 2 0.43571 0.213984 0.500147
734 2 0.529814 0.444212 0.0391761
735 2 0.14987 0.16393 0.217947
736 2 0.0898219 0.459162 0.278663
737 2 0.656736 0.070654 0.765785
738 2 0.625923 0.206897 0.320492
739 2 0.280874 0.0863082 0.256528
740 2 0.117647 0.55953 0.832406
741 2 0.0632615 0.410554 0.860291
742 2 0.00717973 0.283598 0.17787
743 2 0.329511 0.561134 0.144414
744 2 0.146583 0.823809 0.412372
745 2 0.995519 0.164819 0.385193
746 2 0.317921 0.201197 0.288526
747 2 0.0582447 0.377442 0.197907
748 2 0.0977947 0.196352 0.493295
749 2 0.0703525 0.389346 0.907437
750 2 0.543474 0.330325 0.390431
751 2 0.587034 0.131098 0.42262
752 2 0.230104 0.0537137 0.574697
753 2 0.308589 0.48471 0.252961
754 2 0.180993 0.803946 0.595522
755 2 0.655102 0.0126018 0.462422
756 2 0.10823 0.274341 0.661487
757 2 0.856083 0.286004 0.50971
758 2 0.404219 0.280756 0.829823
759 2 0.408447 0.248526 0.339291
760 2 0.359222 0.414681 0.359548
761 2 0.00446632 0.679366 0.378011
762 2 0.202876 0.433012 0.713019
763 2 0.388894 0.101092 0.761409
764 2 0.52519 0.47831 0.112487
765 2 0.253213 0.159941 0.391955
766 2 0.826022 0.216137 0.875166
767 2 0.741123 0.466604 0.309537
768 2 0.291603 0.783131 0.5621
769 2 0.844879 0.225678 0.504004
770 2 0.903873 0.25662 0.133845
771 2 0.20652 0.149462 0.311586
772 2 0.107575 0.422767 0.885712
773 2 0.1445 0.357115 0.869792
774 2 0.0788058 0.321856 0.294109
775 2 0.0267316 0.471081 0.668329
776 2 0.543786 0.0105077 0.0846731
777 2 0.0908712 0.0419519 0.474077
778 2 0.80831 0.436784 0.484876
779 2 0.124295 0.286595 0.215043
780 2 0.142452 0.502331 0.674974
781 2 0.950562 0.637323 0.51783
782 2 0.931271 0.409246 0.485417
783 2 0.520361 0.0520681 0.272297
784 2 0.46266 0.169854 0.345674
785 2 0.654002 0.294277 0.120803
786 2 0.461213 0.324423 0.319827
787 2 0.974966 0.400895 0.255136
788 2 0.190712 0.589884 0.512616
789 2 0.287276 0.908101 0.157882
790 2 0.367765 0.94446 0.0513371
791 2 0.507991 0.424155 0.789323
792 2 0.365814 0.584493 0.217084
793 2 0.993238 0.94664 0.764537
794 2 0.446464 0.355301 0.211692
795 2 0.438189 0.421935 0.522077
796 2 0.85057 0.152504 0.543128
797 2 0.984229 0.441147 0.506458
798 2 0.0987593 0.311578 0.268316
799 2 0.186464 0.131692 0.255479
800 2 0.143996 0.227351 0.1696
801 2 0.216609 0.245353 0.313395
802 2 0.421871 0.417584 0.332638
803 2 0.27346 0.21245 0.931681
804 2 0.983659 0.331634 0.162851
805 2 0.574969 0.359228 0.765962
806 2 0.49915 0.563479 0.998541
807 2 0.295137 0.217657 0.88884
808 2 0.054062 0.323876 0.402192
809 2 0.991405 0.136903 0.237509
810 2 0.204666 0.141237 0.675781
811 2 0.175219 0.647189 0.322571
812 2 0.224377 0.139653 0.00135563
813 2 0.421088 0.24725 0.385204
814 2 0.226092 0.423601 0.372488
815 2 0.168039 0.215284 0.410506
816 2 0.459998 0.442843 0.153185
817 2 0.202767 0.305819 0.577997
818 2 0.300257 0.630377 0.146819
819 2 0.0390987 0.106208 0.258336
820 2 0.15267 0.30027 0.687675
821 2 0.634895 0.269936 0.370788
822 2 0.369034 0.110358 0.118563
823 2 0.54579 0.378316 0.15849
824 2 0.523019 0.463891 0.233025
825 2 0.121521 0.483383 0.364349
826 2 0.986598 0.272345 0.635886
827 2 0.926306 0.643659 0.440083
828 2 0.244254 0.438716 0.325294
829 2 0.855909 0.405263 0.547187
830 2 0.643688 0.116945 0.345251
831 2 0.188868 0.416065 0.315748
832 2 0.436657 0.368258 0.538017
833 2 0.0801294 0.104772 0.966376
834 2 0.273933 0.0630397 0.837994
835 2 0.122048 0.106479 0.253784
836 2 0.546443 0.0329151 0.55466
837 2 0.602421 0.236178 0.329206
838 2 0.252642 0.118768 0.895309
839 2 0.880087 0.497413 0.47177
840 2 0.317102 0.335378 0.158073
841 2 0.685283 0.985268 0.181857
842 2 0.565187 0.445927 0.33258
843 2 0.161852 0.175842 0.573085
844 2 0.89326 0.460209 0.540036
845 2 0.278774 0.452025 0.316039
846 2 0.00767939 0.418419 0.444583
847 2 0.299027 0.037726 0.365505
848 2 0.241426 0.249738 0.951148
849 2 0.137442 0.118907 0.37053
850 2 0.30213 0.891783 0.0802342
851 2 0.301205 0.30353 0.337625
852 2 0.260003 0.429619 0.4249
853 2 0.125841 0.175043 0.561996
854 2 0.410478 0.210921 0.345656
855 2 0.42162 0.210847 0.128867
856 2 0.251707 0.19678 0.951651
857 2 0.152685 0.0853735 0.244846
858 2 0.934382 0.166764 0.387756
859 2 0.248462 0.515465 0.443151
860 2 0.409058 0.650746 0.468558
861 2 0.361099 0.364871 0.302756
862 2 0.480357 0.860256 0.567569
863 2 0.899676 0.645376 0.367137
864 2 0.848886 0.129974 0.891843
865 2 0.979328 0.958787 0.610143
866 2 0.586887 0.477391 0.552993
867 2 0.231748 0.229594 0.617612
868 2 0.429434 0.116713 0.0530692
869 2 0.0410197 0.146115 0.481587
870 2 0.0440823 0.30389 0.332324
871 2 0.875575 0.412757 0.369875
872 2 0.410621 0.290657 0.30021
873 2 0.650925 0.209301 0.834512
874 2 0.249648 0.369961 0.424699
875 2 0.0983781 0.216415 0.210778
876 2 0.0332399 0.0947417 0.595314
877 2 0.112449 0.274552 0.353509
878 2 0.497283 0.363171 0.581257
879 2 0.611919 0.359861 0.0946646
880 2 0.307294 0.411309 0.17157
881 2 0.350673 0.32374 0.417572
882 2 0.217286 0.0923222 0.330605
883 2 0.26243 0.793994 0.374663
884 2 0.296874 0.38598 0.909739
885 2 0.250007 0.95774 0.853101
886 2 0.123498 0.439176 0.489887
887 2 0.299756 0.125392 0.213513
888 2 0.250473 0.976684 0.39613
889 2 0.133518 0.182688 0.443127
890 2 0.36143 0.147632 0.287863
891 2 0.353342 0.103398 0.398318
892 2 0.880074 0.0670506 0.616024
893 2 0.0646898 0.0582639 0.878356
894 2 0.371959 0.218425 0.158859
895 2 0.896708 0.271473 0.330222
896 2 0.342225 0.3486 0.439251
897 2 0.895429 0.403645 0.477325
898 2 0.921937 0.0124421 0.386148
899 2 0.373697 0.102069 0.343689
900 2 0.997785 0.225097 0.367789
901 2 0.283747 0.606247 0.406961
902 2 0.432112 0.677537 0.478671
903 2 0.32829 0.455197 0.202903
904 2 0.271667 0.836283 0.601716
905 2 0.326006 0.5296 0.086184