 vasp.6.5.0 16Dec24 (build Jan 20 2025 08:32:48) complex                         
 executed on        HPECrayEX_GCC date 2025.07.22  00:17:49
 running  128 mpi-ranks, with    1 threads/rank, on    1 nodes
 distrk:  each k-point on  128 cores,    1 groups
 distr:  one band on NCORE=  16 cores,    8 groups


--------------------------------------------------------------------------------------------------------


 INCAR:
   SYSTEM = a-Si SPC
   NCORE = 16
   ISTART = 1
   ICHARG = 1
   ISPIN = 1
   ISYM = 1
   EDIFF = 1E-6
   NELM = 150
   EDIFFG = -0.01
   NSW = 0
   ISIF = 2
   IBRION = -1
   PREC = Accurate
   ENCUT = 1200
   KSPACING = 0.23
   KGAMMA = .TRUE.
   METAGGA = SCAN
   LASPH = .TRUE.
   LDIAG = .FALSE.
   LMIXTAU = .TRUE.
   ADDGRID = .TRUE.
   ALGO = Normal
   ISMEAR = 0
   SIGMA = 0.1
   LORBIT = 11
   NEDOS = 2000
   LWAVE = .FALSE.
   LCHARG = .FALSE.

 POTCAR:    PAW_PBE H 15Jun2001                   
 POTCAR:    PAW_PBE Si 05Jan2001                  
 POTCAR:    PAW_PBE H 15Jun2001                   
   SHA256 =  030f79b5d3ab3cf0e668861823c8fb652ff669f3e15e46930bd03bfd63a607b6 H/POTCAR              
   COPYR  = (c) Copyright 15Jun2001 Georg Kresse                                                    
   COPYR  = This file is part of the software VASP. Any use, copying, and all other rights are regul
   COPYR  = If you do not have a valid VASP license, you may not use, copy or distribute this file. 
   VRHFIN =H: ultrasoft test                                                                        
   LEXCH  = PE                                                                                      
   EATOM  =    12.4884 eV,    0.9179 Ry                                                             
                                                                                                    
   TITEL  = PAW_PBE H 15Jun2001                                                                     
   LULTRA =        F    use ultrasoft PP ?                                                          
   IUNSCR =        0    unscreen: 0-lin 1-nonlin 2-no                                               
   RPACOR =    0.000    partial core radius                                                         
   POMASS =    1.000; ZVAL   =    1.000    mass and valenz                                          
   RCORE  =    1.100    outmost cutoff radius                                                       
   RWIGS  =    0.700; RWIGS  =    0.370    wigner-seitz radius (au A)                               
   ENMAX  =  250.000; ENMIN  =  200.000 eV                                                          
   RCLOC  =    0.701    cutoff for local pot                                                        
   LCOR   =        T    correct aug charges                                                         
   LPAW   =        T    paw PP                                                                      
   EAUG   =  400.000                                                                                
   RMAX   =    1.123    core radius for proj-oper                                                   
   RAUG   =    1.200    factor for augmentation sphere                                              
   RDEP   =    1.112    radius for radial grids                                                     
   RDEPT  =    0.926    core radius for aug-charge                                                  
                                                                                                    
   Atomic configuration                                                                             
    2 entries                                                                                       
     n  l   j            E        occ.                                                              
     1  0  0.50        -6.4927   1.0000                                                             
     2  1  0.50        -3.4015   0.0000                                                             
   Description                                                                                      
     l       E           TYP  RCUT    TYP  RCUT                                                     
     0     -6.4927494     23  1.100                                                                 
     0      6.8029130     23  1.100                                                                 
     1     -4.0817478     23  1.100                                                                 
  local pseudopotential read in
  atomic valenz-charges read in
  non local Contribution for L=           0  read in
    real space projection operators read in
  non local Contribution for L=           0  read in
    real space projection operators read in
  non local Contribution for L=           1  read in
    real space projection operators read in
    PAW grid and wavefunctions read in

   number of l-projection  operators is LMAX  =           3
   number of lm-projection operators is LMMAX =           5

 POTCAR:    PAW_PBE Si 05Jan2001                  
   SHA256 =  79d9987ad8750f624c4d6acb2a16d13abf6a777132adc04dc6c8399be72b42bb Si/POTCAR             
   COPYR  = (c) Copyright 05Jan2001 Georg Kresse                                                    
   COPYR  = This file is part of the software VASP. Any use, copying, and all other rights are regul
   COPYR  = If you do not have a valid VASP license, you may not use, copy or distribute this file. 
   VRHFIN =Si: s2p2                                                                                 
   LEXCH  = PE                                                                                      
   EATOM  =   103.0669 eV,    7.5752 Ry                                                             
                                                                                                    
   TITEL  = PAW_PBE Si 05Jan2001                                                                    
   LULTRA =        F    use ultrasoft PP ?                                                          
   IUNSCR =        1    unscreen: 0-lin 1-nonlin 2-no                                               
   RPACOR =    1.500    partial core radius                                                         
   POMASS =   28.085; ZVAL   =    4.000    mass and valenz                                          
   RCORE  =    1.900    outmost cutoff radius                                                       
   RWIGS  =    2.480; RWIGS  =    1.312    wigner-seitz radius (au A)                               
   ENMAX  =  245.345; ENMIN  =  184.009 eV                                                          
   ICORE  =        2    local potential                                                             
   LCOR   =        T    correct aug charges                                                         
   LPAW   =        T    paw PP                                                                      
   EAUG   =  322.069                                                                                
   DEXC   =    0.000                                                                                
   RMAX   =    1.950    core radius for proj-oper                                                   
   RAUG   =    1.300    factor for augmentation sphere                                              
   RDEP   =    1.993    radius for radial grids                                                     
   RDEPT  =    1.837    core radius for aug-charge                                                  
                                                                                                    
   Atomic configuration                                                                             
    6 entries                                                                                       
     n  l   j            E        occ.                                                              
     1  0  0.50     -1785.8828   2.0000                                                             
     2  0  0.50      -139.4969   2.0000                                                             
     2  1  1.50       -95.5546   6.0000                                                             
     3  0  0.50       -10.8127   2.0000                                                             
     3  1  0.50        -4.0811   2.0000                                                             
     3  2  1.50        -4.0817   0.0000                                                             
   Description                                                                                      
     l       E           TYP  RCUT    TYP  RCUT                                                     
     0    -10.8127223     23  1.900                                                                 
     0     -7.6451159     23  1.900                                                                 
     1     -4.0811372     23  1.900                                                                 
     1      2.4879257     23  1.900                                                                 
     2     -4.0817478      7  1.900                                                                 
  local pseudopotential read in
  partial core-charges read in
  partial kinetic energy density read in
  atomic valenz-charges read in
  non local Contribution for L=           0  read in
    real space projection operators read in
  non local Contribution for L=           0  read in
    real space projection operators read in
  non local Contribution for L=           1  read in
    real space projection operators read in
  non local Contribution for L=           1  read in
    real space projection operators read in
    PAW grid and wavefunctions read in

   number of l-projection  operators is LMAX  =           4
   number of lm-projection operators is LMMAX =           8

 -----------------------------------------------------------------------------
|                                                                             |
|               ----> ADVICE to this user running VASP <----                  |
|                                                                             |
|     You have a (more or less) 'large supercell' and for larger cells it     |
|     might be more efficient to use real-space projection operators.         |
|     Therefore, try LREAL= Auto in the INCAR file.                           |
|     Mind: For very accurate calculation, you might also keep the            |
|     reciprocal projection scheme (i.e. LREAL=.FALSE.).                      |
|                                                                             |
 -----------------------------------------------------------------------------

 -----------------------------------------------------------------------------
|                                                                             |
|               ----> ADVICE to this user running VASP <----                  |
|                                                                             |
|     You enforced a specific xc type in the INCAR file but a different       |
|     type was found in the POTCAR file.                                      |
|     I HOPE YOU KNOW WHAT YOU ARE DOING!                                     |
|                                                                             |
 -----------------------------------------------------------------------------

  PAW_PBE H 15Jun2001                   :
 energy of atom  1       EATOM=  -12.4884
 kinetic energy error for atom=    0.0000 (will be added to EATOM!!)
  PAW_PBE Si 05Jan2001                  :
 energy of atom  2       EATOM= -103.0669
 kinetic energy error for atom=    0.0001 (will be added to EATOM!!)


 POSCAR:  H Si
  positions in cartesian coordinates
  No initial velocities read in


 exchange-correlation table for SCAN
   RHO(1)=    0.500       N(1)  =     2000
   RHO(2)=  100.500       N(2)  =     4000



--------------------------------------------------------------------------------------------------------


 ion  position               nearest neighbor table
   1  0.901  0.061  0.567-  35 1.47
   2  0.760  0.023  0.204-  71 1.54
   3  0.945  0.058  0.853-  74 1.50
   4  0.957  0.015  0.192-  33 1.41
   5  0.909  0.760  0.300-  66 1.44
   6  0.049  0.931  0.927-  79 1.57
   7  0.092  0.844  0.519-  39 1.47
   8  0.924  0.691  0.741-  73 1.42
   9  0.668  0.680  0.211-  50 1.55
  10  0.725  0.531  0.810-  46 1.53
  11  0.666  0.781  0.826-  29 1.55
  12  0.723  0.467  0.537-  68 1.54
  13  0.897  0.761  0.075-  66 1.50
  14  0.619  0.846  0.373-  65 1.57
  15  0.463  0.128  0.473-  43 2.32  63 2.33  59 2.37  36 2.41
  16  0.446  0.788  0.792-  29 2.21  87 2.42  21 2.45  91 2.45  17 3.01
  17  0.393  0.926  0.006-  87 2.27  81 2.32  84 2.33  21 2.70  16 3.01
  18  0.412  0.785  0.343-  65 2.28  91 2.35  53 2.40  64 2.47
  19  0.708  0.187  0.768-  58 2.34  24 2.38  51 2.41  37 2.49  48 3.00
  20  0.251  0.703  0.639-  70 2.37  39 2.39  49 2.39  91 2.55
  21  0.323  0.758  0.955-  64 2.31  80 2.44  16 2.45  49 2.48  17 2.70
  22  0.268  0.282  0.371-  36 2.27  76 2.36  89 2.43  60 2.62
  23  0.499  0.589  0.573-  91 2.29  82 2.39  56 2.45  86 2.57
  24  0.812  0.268  0.625-  48 2.32  68 2.35  19 2.38  35 2.51
  25  0.591  0.048  0.996-  42 2.37  71 2.39  81 2.42  51 2.50  63 3.13
  26  0.286  0.374  0.711-  45 2.29  76 2.36  40 2.42  32 2.49
  27  0.991  0.392  0.853-  48 2.35  55 2.35  90 2.41  47 2.46
  28  0.775  0.218  0.193-  58 2.29  71 2.34  31 2.45  94 2.52
  29  0.575  0.769  0.907-  11 1.55  16 2.21  81 2.41  61 2.42
  30  0.003  0.345  0.312-  89 2.32  54 2.40  31 2.40  75 2.47
  31  0.926  0.199  0.297-  33 2.28  35 2.37  30 2.40  28 2.45
  32  0.149  0.442  0.596-  47 2.25  89 2.27  70 2.42  26 2.49
  33  0.001  0.098  0.157-   4 1.41  31 2.28  93 2.30  74 2.44
  34  0.566  0.369  0.319-  56 2.26  43 2.37  94 2.41  78 2.49
  35  0.926  0.156  0.529-   1 1.47  31 2.37  67 2.40  24 2.51
  36  0.298  0.136  0.443-  22 2.27  77 2.32  15 2.41  44 2.42
  37  0.564  0.275  0.731-  62 2.33  88 2.33  43 2.41  19 2.49
  38  0.355  0.418  0.070-  60 2.26  83 2.35  45 2.37  78 2.42
  39  0.191  0.843  0.548-   7 1.47  53 2.36  20 2.39  57 2.53
  40  0.291  0.217  0.791-  88 2.28  44 2.33  41 2.40  26 2.42
  41  0.189  0.213  0.984-  60 2.30  93 2.36  90 2.36  40 2.40
  42  0.483  0.168  0.035-  88 2.19  25 2.37  84 2.40  78 2.44
  43  0.506  0.280  0.501-  15 2.32  76 2.36  34 2.37  37 2.41
  44  0.211  0.116  0.650-  40 2.33  67 2.34  36 2.42  57 2.50
  45  0.340  0.488  0.853-  26 2.29  86 2.35  38 2.37  49 2.43
  46  0.719  0.450  0.909-  10 1.53  62 2.31  52 2.35  48 2.47
  47  0.003  0.483  0.643-  32 2.25  73 2.42  27 2.46  75 2.50
  48  0.838  0.341  0.830-  24 2.32  58 2.33  27 2.35  46 2.47  19 3.00
  49  0.243  0.624  0.852-  20 2.39  45 2.43  92 2.47  21 2.48
  50  0.615  0.592  0.168-   9 1.55  61 2.23  56 2.32  52 2.40
  51  0.638  0.037  0.752-  19 2.41  59 2.45  25 2.50
  52  0.750  0.500  0.131-  94 2.30  46 2.35  50 2.40  69 2.40
  53  0.268  0.866  0.340-  39 2.36  18 2.40  80 2.47  77 2.49
  54  0.107  0.427  0.166-  55 2.22  60 2.28  30 2.40  85 2.51
  55  0.005  0.497  0.034-  54 2.22  92 2.35  27 2.35  69 2.45
  56  0.554  0.521  0.359-  34 2.26  50 2.32  23 2.45  82 2.74
  57  0.230  0.955  0.736-  87 2.36  44 2.50  39 2.53  79 2.54
  58  0.797  0.215  0.963-  28 2.29  48 2.33  19 2.34  74 2.37
  59  0.476  0.064  0.694-  88 2.28  87 2.30  15 2.37  51 2.45
  60  0.230  0.334  0.122-  38 2.26  54 2.28  41 2.30  22 2.62
  61  0.516  0.629  0.005-  50 2.23  86 2.37  29 2.42  64 2.44
  62  0.573  0.387  0.900-  46 2.31  37 2.33  78 2.38  86 2.48
  63  0.531  0.039  0.302-  15 2.33  65 2.38  84 2.41  71 2.50  25 3.13
  64  0.388  0.687  0.141-  21 2.31  83 2.34  61 2.44  18 2.47
  65  0.534  0.876  0.284-  14 1.57  81 2.21  18 2.28  63 2.38
  66  0.937  0.704  0.187-   5 1.44  13 1.50  69 2.31  72 2.36
  67  0.075  0.198  0.614-  89 2.31  44 2.34  35 2.40  90 2.40
  68  0.794  0.397  0.485-  12 1.54  75 2.22  94 2.30  24 2.35
  69  0.898  0.550  0.210-  66 2.31  75 2.38  52 2.40  55 2.45
  70  0.225  0.574  0.496-  85 2.32  82 2.37  20 2.37  32 2.42
  71  0.678  0.090  0.193-   2 1.54  28 2.34  25 2.39  63 2.50
  72  0.098  0.699  0.156-  66 2.36  85 2.44  80 2.45  92 2.49
  73  0.007  0.639  0.731-   8 1.42  92 2.27  47 2.42
  74  0.943  0.145  0.935-   3 1.50  90 2.35  58 2.37  33 2.44
  75  0.920  0.473  0.422-  68 2.22  69 2.38  30 2.47  47 2.50
  76  0.370  0.369  0.507-  82 2.29  26 2.36  22 2.36  43 2.36
  77  0.263  0.032  0.273-  84 2.32  36 2.32  93 2.36  53 2.49
  78  0.495  0.330  0.096-  62 2.38  38 2.42  42 2.44  34 2.49
  79  0.152  0.949  0.967-   6 1.57  93 2.36  80 2.49  57 2.54
  80  0.210  0.822  0.113-  21 2.44  72 2.45  53 2.47  79 2.49
  81  0.545  0.894  0.062-  65 2.21  17 2.32  29 2.41  25 2.42
  82  0.375  0.521  0.447-  76 2.29  83 2.36  70 2.37  23 2.39  56 2.74
  83  0.336  0.544  0.217-  64 2.34  38 2.35  82 2.36  85 2.55
  84  0.399  0.051  0.154-  77 2.32  17 2.33  42 2.40  63 2.41
  85  0.167  0.570  0.276-  70 2.32  72 2.44  54 2.51  83 2.55
  86  0.494  0.528  0.818-  45 2.35  61 2.37  62 2.48  23 2.57
  87  0.390  0.944  0.777-  17 2.27  59 2.30  57 2.36  16 2.42
  88  0.443  0.190  0.823-  42 2.19  40 2.28  59 2.28  37 2.33
  89  0.119  0.315  0.470-  32 2.27  67 2.31  30 2.32  22 2.43
  90  0.058  0.241  0.848-  74 2.35  41 2.36  67 2.40  27 2.41
  91  0.418  0.724  0.564-  23 2.29  18 2.35  16 2.45  20 2.55
  92  0.082  0.621  0.931-  73 2.27  55 2.35  49 2.47  72 2.49
  93  0.154  0.080  0.109-  33 2.30  41 2.36  77 2.36  79 2.36
  94  0.729  0.376  0.273-  52 2.30  68 2.30  34 2.41  28 2.52

  LATTYP: Found a simple tetragonal cell.
 ALAT       =    14.5434455482
 C/A-ratio  =     0.6757187449
  
  Lattice vectors:
  
 A1 = (  14.5434455482,   0.0000000000,   0.0000000000)
 A2 = (   0.0000000000,  14.5434455482,   0.0000000000)
 A3 = (   0.0000000000,   0.0000000000,   9.8272787721)


Analysis of symmetry for initial positions (statically):
=====================================================================
 Subroutine PRICEL returns:
 Original cell was already a primitive cell.
 

 Routine SETGRP: Setting up the symmetry group for a 
 simple tetragonal supercell.


 Subroutine GETGRP returns: Found  1 space group operations
 (whereof  1 operations were pure point group operations)
 out of a pool of 16 trial point group operations.


The static configuration has the point symmetry C_1 .


Analysis of symmetry for dynamics (positions and initial velocities):
=====================================================================
 Subroutine PRICEL returns:
 Original cell was already a primitive cell.
 

 Routine SETGRP: Setting up the symmetry group for a 
 simple tetragonal supercell.


 Subroutine GETGRP returns: Found  1 space group operations
 (whereof  1 operations were pure point group operations)
 out of a pool of 16 trial point group operations.


The dynamic configuration has the point symmetry C_1 .


 Subroutine INISYM returns: Found  1 space group operations
 (whereof  1 operations are pure point group operations),
 and found     1 'primitive' translations


----------------------------------------------------------------------------------------

                                     Primitive cell                                     

  volume of cell :    2078.5855

  direct lattice vectors                    reciprocal lattice vectors
    14.543445548  0.000000000  0.000000000     0.068759497  0.000000000  0.000000000
     0.000000000 14.543445548  0.000000000     0.000000000  0.068759497  0.000000000
     0.000000000  0.000000000  9.827278772     0.000000000  0.000000000  0.101757569

  length of vectors
    14.543445548 14.543445548  9.827278772     0.068759497  0.068759497  0.101757569

  position of ions in fractional coordinates (direct lattice)
     0.901196347  0.061087381  0.567324905
     0.760101859  0.023440731  0.204225406
     0.945223053  0.057719266  0.853414276
     0.956884664  0.014635765  0.191573888
     0.909021178  0.760425029  0.299935523
     0.048831482  0.931120480  0.927267885
     0.092196172  0.843610268  0.519183399
     0.924210151  0.691067324  0.741060691
     0.668178663  0.680207449  0.210644274
     0.724910749  0.530806814  0.809949548
     0.666370288  0.780997870  0.826183951
     0.722627933  0.466608822  0.536715211
     0.896988266  0.761188259  0.075124255
     0.618790779  0.846381276  0.372807171
     0.462858679  0.127696700  0.472516361
     0.446308956  0.787983835  0.791581289
     0.393329076  0.926190424  0.006322065
     0.411530402  0.785494741  0.343483693
     0.708202191  0.186832618  0.767980656
     0.251353092  0.702832074  0.639107747
     0.322969546  0.757929059  0.954832993
     0.268115282  0.281965507  0.371030484
     0.498683752  0.589048859  0.572596965
     0.812269690  0.267744668  0.625218857
     0.590982376  0.048126216  0.996412120
     0.285576068  0.374215311  0.711490959
     0.990913739  0.392398072  0.853371538
     0.774658245  0.217752388  0.193014775
     0.575387722  0.769329384  0.906557167
     0.003348326  0.345061972  0.311985655
     0.926486090  0.199306278  0.296958097
     0.149124222  0.442463237  0.596398061
     0.000709000  0.098176873  0.157111652
     0.566490930  0.369065912  0.319161598
     0.926410454  0.155828273  0.529442598
     0.298339206  0.136306764  0.442518229
     0.563661477  0.275321277  0.730894093
     0.355265881  0.418284648  0.070077283
     0.191083330  0.842627007  0.548491615
     0.290703464  0.216834449  0.790767229
     0.189249514  0.213390973  0.983680246
     0.483305691  0.167852246  0.035308147
     0.506115967  0.280214890  0.500766297
     0.211262867  0.115506329  0.649622357
     0.339626534  0.487595596  0.852739623
     0.718612379  0.449704300  0.908943382
     0.003331704  0.483086348  0.643238087
     0.838453306  0.341395028  0.830491349
     0.243219531  0.624453124  0.852457755
     0.615342490  0.592449703  0.168162524
     0.637814469  0.037271017  0.752114616
     0.749684795  0.500205400  0.131138032
     0.268010767  0.866438421  0.339993408
     0.106989777  0.427055609  0.166461137
     0.005122782  0.497339504  0.034479128
     0.553780050  0.521329693  0.359174710
     0.230045899  0.954766871  0.736016569
     0.796915694  0.215264670  0.962713099
     0.476296348  0.063947982  0.694082274
     0.229768110  0.333841110  0.122276983
     0.515565584  0.628571130  0.004663427
     0.572819555  0.386940631  0.899783165
     0.530902390  0.038933552  0.302275947
     0.388136359  0.687280051  0.141491865
     0.533566820  0.875830969  0.284135625
     0.936765635  0.703526545  0.187481198
     0.075257269  0.197660176  0.613668355
     0.794082803  0.397162418  0.485122088
     0.897751496  0.550484407  0.210349177
     0.224945319  0.574074415  0.495882951
     0.677917758  0.089523490  0.193132814
     0.097544973  0.699380347  0.155603605
     0.006702181  0.638878866  0.730581697
     0.942541432  0.144848069  0.934515059
     0.919651396  0.473142350  0.421647752
     0.370005855  0.368856883  0.506883962
     0.263190727  0.031568035  0.272703163
     0.495339978  0.330352253  0.096004705
     0.151743271  0.949156096  0.966537148
     0.209895240  0.821737872  0.112804371
     0.545177549  0.894052235  0.061878066
     0.375237077  0.521150231  0.446715729
     0.335755374  0.544089086  0.216677480
     0.399490615  0.050878796  0.154329600
     0.167323485  0.570429474  0.276189377
     0.494403474  0.527780709  0.817972115
     0.389508798  0.944088521  0.776713491
     0.443195526  0.189673760  0.823264526
     0.118608757  0.315432817  0.469856418
     0.058047180  0.241066671  0.847684307
     0.417980731  0.724078759  0.564271161
     0.081757792  0.621176046  0.931171305
     0.154383636  0.079844215  0.109296788
     0.729435124  0.376161205  0.273487713

  ion indices of the primitive-cell ions
   primitive index   ion index
                 1           1
                 2           2
                 3           3
                 4           4
                 5           5
                 6           6
                 7           7
                 8           8
                 9           9
                10          10
                11          11
                12          12
                13          13
                14          14
                15          15
                16          16
                17          17
                18          18
                19          19
                20          20
                21          21
                22          22
                23          23
                24          24
                25          25
                26          26
                27          27
                28          28
                29          29
                30          30
                31          31
                32          32
                33          33
                34          34
                35          35
                36          36
                37          37
                38          38
                39          39
                40          40
                41          41
                42          42
                43          43
                44          44
                45          45
                46          46
                47          47
                48          48
                49          49
                50          50
                51          51
                52          52
                53          53
                54          54
                55          55
                56          56
                57          57
                58          58
                59          59
                60          60
                61          61
                62          62
                63          63
                64          64
                65          65
                66          66
                67          67
                68          68
                69          69
                70          70
                71          71
                72          72
                73          73
                74          74
                75          75
                76          76
                77          77
                78          78
                79          79
                80          80
                81          81
                82          82
                83          83
                84          84
                85          85
                86          86
                87          87
                88          88
                89          89
                90          90
                91          91
                92          92
                93          93
                94          94

----------------------------------------------------------------------------------------


 -----------------------------------------------------------------------------
|                                                                             |
|           W    W    AA    RRRRR   N    N  II  N    N   GGGG   !!!           |
|           W    W   A  A   R    R  NN   N  II  NN   N  G    G  !!!           |
|           W    W  A    A  R    R  N N  N  II  N N  N  G       !!!           |
|           W WW W  AAAAAA  RRRRR   N  N N  II  N  N N  G  GGG   !            |
|           WW  WW  A    A  R   R   N   NN  II  N   NN  G    G                |
|           W    W  A    A  R    R  N    N  II  N    N   GGGG   !!!           |
|                                                                             |
|     The requested file  could not be found or opened for reading            |
|     k-point information. Automatic k-point generation is used as a          |
|     fallback, which may lead to unwanted results.                           |
|                                                                             |
 -----------------------------------------------------------------------------



Automatic generation of k-mesh.
 Grid dimensions derived from KSPACING:
 generate k-points for:    2    2    3

 Generating k-lattice:

  Cartesian coordinates                     Fractional coordinates (reciprocal lattice)
     0.034379748  0.000000000  0.000000000     0.500000000  0.000000000  0.000000000
     0.000000000  0.034379748  0.000000000     0.000000000  0.500000000  0.000000000
     0.000000000  0.000000000  0.033919190     0.000000000  0.000000000  0.333333333

  Length of vectors
     0.034379748  0.034379748  0.033919190

  Shift w.r.t. Gamma in fractional coordinates (k-lattice)
     0.000000000  0.000000000  0.000000000

 
 Subroutine IBZKPT returns following result:
 ===========================================
 
 Found      8 irreducible k-points:
 
 Following reciprocal coordinates:
            Coordinates               Weight
  0.000000  0.000000  0.000000      1.000000
  0.500000  0.000000  0.000000      1.000000
  0.000000  0.500000  0.000000      1.000000
  0.500000  0.500000  0.000000      1.000000
  0.000000  0.000000  0.333333      2.000000
  0.500000  0.000000  0.333333      2.000000
  0.000000  0.500000  0.333333      2.000000
  0.500000  0.500000  0.333333      2.000000
 
 Following cartesian coordinates:
            Coordinates               Weight
  0.000000  0.000000  0.000000      1.000000
  0.034380  0.000000  0.000000      1.000000
  0.000000  0.034380  0.000000      1.000000
  0.034380  0.034380  0.000000      1.000000
  0.000000  0.000000  0.033919      2.000000
  0.034380  0.000000  0.033919      2.000000
  0.000000  0.034380  0.033919      2.000000
  0.034380  0.034380  0.033919      2.000000
 


--------------------------------------------------------------------------------------------------------




 Dimension of arrays:
   k-points           NKPTS =      8   k-points in BZ     NKDIM =      8   number of bands    NBANDS=    216
   number of dos      NEDOS =   2000   number of ions     NIONS =     94
   non local maximal  LDIM  =      4   non local SUM 2l+1 LMDIM =      8
   total plane-waves  NPLWV = ******
   max r-space proj   IRMAX =      1   max aug-charges    IRDMAX= 406932
   dimension x,y,z NGX =   168 NGY =  168 NGZ =  112
   dimension x,y,z NGXF=   336 NGYF=  336 NGZF=  224
   support grid    NGXF=   672 NGYF=  672 NGZF=  448
   ions per type =              14  80
   NGX,Y,Z   is equivalent  to a cutoff of  19.20, 19.20, 18.95 a.u.
   NGXF,Y,Z  is equivalent  to a cutoff of  38.41, 38.41, 37.89 a.u.

 SYSTEM =  a-Si SPC                                
 POSCAR =   H Si                                   

 Startparameter for this run:
   NWRITE =      2    write-flag & timer
   PREC   = accura    normal or accurate (medium, high low for compatibility)
   ISTART =      1    job   : 0-new  1-cont  2-samecut
   ICHARG =      1    charge: 1-file 2-atom 10-const
   ISPIN  =      1    spin polarized calculation?
   LNONCOLLINEAR =      F non collinear calculations
   LSORBIT =      F    spin-orbit coupling
   INIWAV =      1    electr: 0-lowe 1-rand  2-diag
   LASPH  =      T    aspherical Exc in radial PAW
 Electronic Relaxation 1
   ENCUT  = 1200.0 eV  88.20 Ry    9.39 a.u.  41.08 41.08 27.76*2*pi/ulx,y,z
   ENINI  = 1200.0     initial cutoff
   ENAUG  =  400.0 eV  augmentation charge cutoff
   NELM   =    150;   NELMIN=  2; NELMDL=  0     # of ELM steps 
   EDIFF  = 0.1E-05   stopping-criterion for ELM
   LREAL  =      F    real-space projection
   NLSPLINE    = F    spline interpolate recip. space projectors
   LCOMPAT=      F    compatible to vasp.4.4
   GGA_COMPAT  = T    GGA compatible to vasp.4.4-vasp.4.6
   LMAXPAW     = -100 max onsite density
   LMAXMIX     =    2 max onsite mixed and CHGCAR
   VOSKOWN=      0    Vosko Wilk Nusair interpolation
   ROPT   =    0.00000   0.00000
 Ionic relaxation
   EDIFFG = -.1E-01   stopping-criterion for IOM
   NSW    =      0    number of steps for IOM
   NBLOCK =      1;   KBLOCK =      1    inner block; outer block 
   IBRION =     -1    ionic relax: 0-MD 1-quasi-New 2-CG
   NFREE  =      0    steps in history (QN), initial steepest desc. (CG)
   ISIF   =      2    stress and relaxation
   IWAVPR =     10    prediction:  0-non 1-charg 2-wave 3-comb
   ISYM   =      1    0-nonsym 1-usesym 2-fastsym
   LCORR  =      T    Harris-Foulkes like correction to forces

   POTIM  = 0.5000    time-step for ionic-motion
   TEIN   =    0.0    initial temperature
   TEBEG  =    0.0;   TEEND  =   0.0 temperature during run
   SMASS  =  -3.00    Nose mass-parameter (am)
   estimated Nose-frequenzy (Omega)   =  0.10E-29 period in steps = 0.13E+47 mass=  -0.483E-26a.u.
   SCALEE = 1.0000    scale energy and forces
   NPACO  =    256;   APACO  = 10.0  distance and # of slots for P.C.
   PSTRESS=    0.0 pullay stress

  Mass of Ions in am
   POMASS =   1.00 28.09
  Ionic Valenz
   ZVAL   =   1.00  4.00
  Atomic Wigner-Seitz radii
   RWIGS  =  -1.00 -1.00
  virtual crystal weights 
   VCA    =   1.00  1.00
   NELECT =     334.0000    total number of electrons
   NUPDOWN=      -1.0000    fix difference up-down

 DOS related values:
   EMIN   =  10.00;   EMAX   =-10.00  energy-range for DOS
   EFERMI =   0.00;   METHOD = LEGACY      
   ISMEAR =     0;   SIGMA  =   0.10  broadening in eV -4-tet -1-fermi 0-gaus
   EFERMI_NEDOS =   21; number of points for ismear=-14 and -15

 Electronic relaxation 2 (details)
   IALGO  =     38    algorithm
   LDIAG  =      F    sub-space diagonalisation (order eigenvalues)
   LSUBROT=      F    optimize rotation matrix (better conditioning)
   TURBO    =      0    0=normal 1=particle mesh
   IRESTART =      0    0=no restart 2=restart with 2 vectors
   NREBOOT  =      0    no. of reboots
   NMIN     =      0    reboot dimension
   EREF     =   0.00    reference energy to select bands
   IMIX   =      4    mixing-type and parameters
     AMIX     =   0.40;   BMIX     =  1.00
     AMIX_MAG =   1.60;   BMIX_MAG =  1.00
     AMIN     =   0.10
     WC   =   100.;   INIMIX=   1;  MIXPRE=   1;  MAXMIX= -45

 Intra band minimization:
   WEIMIN = 0.0000     energy-eigenvalue tresh-hold
   EBREAK =  0.12E-08  absolut break condition
   DEPER  =   0.30     relativ break condition  

   TIME   =   0.40     timestep for ELM

  volume/ion in A,a.u.               =      22.11       149.22
  Fermi-wavevector in a.u.,A,eV,Ry     =   0.890023  1.681899 10.777721  0.792140
  Thomas-Fermi vector in A             =   2.011659

 Write flags
   LWAVE        =      F    write WAVECAR
   LDOWNSAMPLE  =      F    k-point downsampling of WAVECAR
   LCHARG       =      F    write CHGCAR
   LVTOT        =      F    write LOCPOT, total local potential
   LVHAR        =      F    write LOCPOT, Hartree potential only
   WRT_POTENTIAL= false  ! write potential to hdf5 file
   LELF         =      F    write electronic localiz. function (ELF)
   LORBIT       =     11    0 simple, 1 ext, 2 COOP (PROOUT), +10 PAW based schemes


 Python interface
   PLUGINS active      =      F    recompile with -DPLUGINS to activate

 Dipole corrections
   LMONO      =      F    monopole corrections only (constant potential shift)
   LDIPOL     =      F    correct potential (dipole corrections)
   IDIPOL     =      0    1-x, 2-y, 3-z, 4-all directions 
   EPSILON    =  1.0000000 bulk dielectric constant
   LVACPOTAV  =      F  vacuum potentials using an averaging scheme for the charge density
   VACPOTFLAT =  0.1000000 required flatness to determine vacuum potential

Coulomb truncation method
  LTRUNCATE          =      F  Coulomb kernel truncation to be used
  IDIMENSIONALITY    =      3  Dimensionality of cutoff (0 molecules / 2 surfaces)
  ISURFACE           =     -1  Direction of surface normal
  LCOARSEN           =      F  Coarsen the charge grid before padding, preferred


 Exchange correlation treatment:
   METAGGA = SCAN    functional components
   XC_C    = 1    coefficients multiplying the functional components
   LIBXC   =     F    Libxc                    
   VOSKOWN =     0    Vosko Wilk Nusair interpolation
   LHFCALC =     F    Hartree Fock is set to
   LHFONE  =     F    Hartree Fock one center treatment
   AEXX    =    0.0000 exact exchange contribution

 Parameters of functionals:
   SCAN:
     P1 =  0.000000E+00
     P2 =  0.000000E+00
     P3 =  0.000000E+00

 Accuracy and mixing parameters for tau-dependent meta-GGA functionals:
   LMAXTAU = 6
   LMIXTAU = T

 Van der Waals corrections
   IVDW    =     0    specifies the selected vdW correction

 Linear response parameters
   LEPSILON=     F    determine dielectric tensor
   LRPA    =     F    only Hartree local field effects (RPA)
   LNABLA  =     F    use nabla operator in PAW spheres
   LVEL    =     F    velocity operator in full k-point grid
   CSHIFT  =0.1000    complex shift for real part using Kramers Kronig
   OMEGAMAX=  -1.0    maximum frequency
   DEG_THRESHOLD= 0.2000000E-02 threshold for treating states as degnerate
   RTIME   =   -0.100 relaxation time in fs
  (WPLASMAI=    0.000 imaginary part of plasma frequency in eV, 0.658/RTIME)
   DFIELD  = 0.0000000 0.0000000 0.0000000 field for delta impulse in time

  Optional k-point grid parameters
   LKPOINTS_OPT  =     F    use optional k-point grid
   KPOINTS_OPT_MODE=     1    mode for optional k-point grid

 Orbital magnetization related:
   ORBITALMAG=     F  switch on orbital magnetization
   LCHIMAG   =     F  perturbation theory with respect to B field
   DQ        =  0.001000  dq finite difference perturbation B field
   LLRAUG    =     F  two centre corrections for induced B field
   LBONE     =     F  B-component reconstruction in AE one-centre
   LVGVCALC  =     T  calculate vGv susceptibility
   LVGVAPPL  =     F  apply vGv susceptibility instead of pGv for G=0

 Random number generation:
   RANDOM_GENERATOR = DEFAULT
   PCG_SEED         = not used


--------------------------------------------------------------------------------------------------------


 Static calculation
 charge density and potential will be updated during run
 non-spin polarized calculation
 Variant of blocked Davidson
 perform Loewdin sub-space diagonalisation
    ordering is kept fixed
    before iterative eigenvector-optimisation
 modified Broyden-mixing scheme, WC =      100.0
 initial mixing is a Kerker type mixing with AMIX =  0.4000 and BMIX =      1.0000
 Hartree-type preconditioning will be used
 using additional bands           49
 reciprocal scheme for non local part
 use partial core corrections
 calculate Harris-corrections to forces   (improved forces if not selfconsistent)
 use gradient corrections 
 use of overlap-Matrix (Vanderbilt PP)
 Gauss-broadening in eV      SIGMA  =   0.10


--------------------------------------------------------------------------------------------------------


  energy-cutoff  :     1200.00
  volume of cell :     2078.59
      direct lattice vectors                 reciprocal lattice vectors
    14.543445548  0.000000000  0.000000000     0.068759497  0.000000000  0.000000000
     0.000000000 14.543445548  0.000000000     0.000000000  0.068759497  0.000000000
     0.000000000  0.000000000  9.827278772     0.000000000  0.000000000  0.101757569

  length of vectors
    14.543445548 14.543445548  9.827278772     0.068759497  0.068759497  0.101757569



 old parameters found on file WAVECAR:
  energy-cutoff  :     1200.00
  volume of cell :     2078.59
      direct lattice vectors                 reciprocal lattice vectors
    14.543445548  0.000000000  0.000000000     0.068759497  0.000000000  0.000000000
     0.000000000 14.543445548  0.000000000     0.000000000  0.068759497  0.000000000
     0.000000000  0.000000000  9.827278772     0.000000000  0.000000000  0.101757569

  length of vectors


 k-points in units of 2pi/SCALE and weight: read from INCAR                         
   0.00000000  0.00000000  0.00000000       0.083
   0.03437975  0.00000000  0.00000000       0.083
   0.00000000  0.03437975  0.00000000       0.083
   0.03437975  0.03437975  0.00000000       0.083
   0.00000000  0.00000000  0.03391919       0.167
   0.03437975  0.00000000  0.03391919       0.167
   0.00000000  0.03437975  0.03391919       0.167
   0.03437975  0.03437975  0.03391919       0.167

 k-points in reciprocal lattice and weights: read from INCAR                         
   0.00000000  0.00000000  0.00000000       0.083
   0.50000000  0.00000000  0.00000000       0.083
   0.00000000  0.50000000  0.00000000       0.083
   0.50000000  0.50000000  0.00000000       0.083
   0.00000000  0.00000000  0.33333333       0.167
   0.50000000  0.00000000  0.33333333       0.167
   0.00000000  0.50000000  0.33333333       0.167
   0.50000000  0.50000000  0.33333333       0.167

 position of ions in fractional coordinates (direct lattice) 
   0.90119635  0.06108738  0.56732491
   0.76010186  0.02344073  0.20422541
   0.94522305  0.05771927  0.85341428
   0.95688466  0.01463577  0.19157389
   0.90902118  0.76042503  0.29993552
   0.04883148  0.93112048  0.92726788
   0.09219617  0.84361027  0.51918340
   0.92421015  0.69106732  0.74106069
   0.66817866  0.68020745  0.21064427
   0.72491075  0.53080681  0.80994955
   0.66637029  0.78099787  0.82618395
   0.72262793  0.46660882  0.53671521
   0.89698827  0.76118826  0.07512426
   0.61879078  0.84638128  0.37280717
   0.46285868  0.12769670  0.47251636
   0.44630896  0.78798384  0.79158129
   0.39332908  0.92619042  0.00632207
   0.41153040  0.78549474  0.34348369
   0.70820219  0.18683262  0.76798066
   0.25135309  0.70283207  0.63910775
   0.32296955  0.75792906  0.95483299
   0.26811528  0.28196551  0.37103048
   0.49868375  0.58904886  0.57259697
   0.81226969  0.26774467  0.62521886
   0.59098238  0.04812622  0.99641212
   0.28557607  0.37421531  0.71149096
   0.99091374  0.39239807  0.85337154
   0.77465824  0.21775239  0.19301477
   0.57538772  0.76932938  0.90655717
   0.00334833  0.34506197  0.31198565
   0.92648609  0.19930628  0.29695810
   0.14912422  0.44246324  0.59639806
   0.00070900  0.09817687  0.15711165
   0.56649093  0.36906591  0.31916160
   0.92641045  0.15582827  0.52944260
   0.29833921  0.13630676  0.44251823
   0.56366148  0.27532128  0.73089409
   0.35526588  0.41828465  0.07007728
   0.19108333  0.84262701  0.54849161
   0.29070346  0.21683445  0.79076723
   0.18924951  0.21339097  0.98368025
   0.48330569  0.16785225  0.03530815
   0.50611597  0.28021489  0.50076630
   0.21126287  0.11550633  0.64962236
   0.33962653  0.48759560  0.85273962
   0.71861238  0.44970430  0.90894338
   0.00333170  0.48308635  0.64323809
   0.83845331  0.34139503  0.83049135
   0.24321953  0.62445312  0.85245776
   0.61534249  0.59244970  0.16816252
   0.63781447  0.03727102  0.75211462
   0.74968480  0.50020540  0.13113803
   0.26801077  0.86643842  0.33999341
   0.10698978  0.42705561  0.16646114
   0.00512278  0.49733950  0.03447913
   0.55378005  0.52132969  0.35917471
   0.23004590  0.95476687  0.73601657
   0.79691569  0.21526467  0.96271310
   0.47629635  0.06394798  0.69408227
   0.22976811  0.33384111  0.12227698
   0.51556558  0.62857113  0.00466343
   0.57281955  0.38694063  0.89978317
   0.53090239  0.03893355  0.30227595
   0.38813636  0.68728005  0.14149186
   0.53356682  0.87583097  0.28413563
   0.93676563  0.70352655  0.18748120
   0.07525727  0.19766018  0.61366836
   0.79408280  0.39716242  0.48512209
   0.89775150  0.55048441  0.21034918
   0.22494532  0.57407442  0.49588295
   0.67791776  0.08952349  0.19313281
   0.09754497  0.69938035  0.15560360
   0.00670218  0.63887887  0.73058170
   0.94254143  0.14484807  0.93451506
   0.91965140  0.47314235  0.42164775
   0.37000585  0.36885688  0.50688396
   0.26319073  0.03156804  0.27270316
   0.49533998  0.33035225  0.09600471
   0.15174327  0.94915610  0.96653715
   0.20989524  0.82173787  0.11280437
   0.54517755  0.89405224  0.06187807
   0.37523708  0.52115023  0.44671573
   0.33575537  0.54408909  0.21667748
   0.39949061  0.05087880  0.15432960
   0.16732349  0.57042947  0.27618938
   0.49440347  0.52778071  0.81797211
   0.38950880  0.94408852  0.77671349
   0.44319553  0.18967376  0.82326453
   0.11860876  0.31543282  0.46985642
   0.05804718  0.24106667  0.84768431
   0.41798073  0.72407876  0.56427116
   0.08175779  0.62117605  0.93117131
   0.15438364  0.07984422  0.10929679
   0.72943512  0.37616120  0.27348771

 position of ions in cartesian coordinates  (Angst):
  13.10650000  0.88842100  5.57526000
  11.05450000  0.34090900  2.00698000
  13.74680000  0.83943700  8.38674000
  13.91640000  0.21285445  1.88265000
  13.22030000 11.05920000  2.94755000
   0.71017800 13.54170000  9.11252000
   1.34085000 12.26900000  5.10216000
  13.44120000 10.05050000  7.28261000
   9.71762000  9.89256000  2.07006000
  10.54270000  7.71976000  7.95960000
   9.69132000 11.35840000  8.11914000
  10.50950000  6.78610000  5.27445000
  13.04530000 11.07030000  0.73826700
   8.99935000 12.30930000  3.66368000
   6.73156000  1.85715000  4.64355000
   6.49087000 11.46000000  7.77909000
   5.72036000 13.47000000  0.06212870
   5.98507000 11.42380000  3.37551000
  10.29970000  2.71719000  7.54716000
   3.65554000 10.22160000  6.28069000
   4.69709000 11.02290000  9.38341000
   3.89932000  4.10075000  3.64622000
   7.25258000  8.56680000  5.62707000
  11.81320000  3.89393000  6.14420000
   8.59492000  0.69992100  9.79201967
   4.15326000  5.44238000  6.99202000
  14.41130000  5.70682000  8.38632000
  11.26620000  3.16687000  1.89681000
   8.36812000 11.18870000  8.90899000
   0.04869620  5.01839000  3.06597000
  13.47430000  2.89860000  2.91829000
   2.16878000  6.43494000  5.86097000
   0.01031130  1.42783000  1.54398000
   8.23873000  5.36749000  3.13649000
  13.47320000  2.26628000  5.20298000
   4.33888000  1.98237000  4.34875000
   8.19758000  4.00412000  7.18270000
   5.16679000  6.08330000  0.68866900
   2.77901000 12.25470000  5.39018000
   4.22783000  3.15352000  7.77109000
   2.75234000  3.10344000  9.66690000
   7.02893000  2.44115000  0.34698300
   7.36067000  4.07529000  4.92117000
   3.07249000  1.67986000  6.38402000
   4.93934000  7.09132000  8.38011000
  10.45110000  6.54025000  8.93244000
   0.04845445  7.02574000  6.32128000
  12.19400000  4.96506000  8.16147000
   3.53725000  9.08170000  8.37734000
   8.94920000  8.61626000  1.65258000
   9.27602000  0.54204900  7.39124000
  10.90300000  7.27471000  1.28873000
   3.89780000 12.60100000  3.34121000
   1.55600000  6.21086000  1.63586000
   0.07450290  7.23303000  0.33883600
   8.05387000  7.58193000  3.52971000
   3.34566000 13.88560000  7.23304000
  11.58990000  3.13069000  9.46085000
   6.92699000  0.93002400  6.82094000
   3.34162000  4.85520000  1.20165000
   7.49810000  9.14159000  0.04582880
   8.33077000  5.62745000  8.84242000
   7.72115000  0.56622800  2.97055000
   5.64484000  9.99542000  1.39048000
   7.75990000 12.73760000  2.79228000
  13.62380000 10.23170000  1.84243000
   1.09450000  2.87466000  6.03069000
  11.54870000  5.77611000  4.76743000
  13.05640000  8.00594000  2.06716000
   3.27148000  8.34902000  4.87318000
   9.85926000  1.30198000  1.89797000
   1.41864000 10.17140000  1.52916000
   0.09747280  9.29150000  7.17963000
  13.70780000  2.10659000  9.18374000
  13.37490000  6.88112000  4.14365000
   5.38116000  5.36445000  4.98129000
   3.82770000  0.45910800  2.67993000
   7.20395000  4.80446000  0.94346500
   2.20687000 13.80400000  9.49843000
   3.05260000 11.95090000  1.10856000
   7.92876000 13.00260000  0.60809300
   5.45724000  7.57932000  4.39000000
   4.88304000  7.91293000  2.12935000
   5.80997000  0.73995300  1.51664000
   2.43346000  8.29601000  2.71419000
   7.19033000  7.67575000  8.03844000
   5.66480000 13.73030000  7.63298000
   6.44559000  2.75851000  8.09045000
   1.72498000  4.58748000  4.61741000
   0.84420600  3.50594000  8.33043000
   6.07888000 10.53060000  5.54525000
   1.18904000  9.03404000  9.15088000
   2.24527000  1.16121000  1.07409000
  10.60850000  5.47068000  2.68764000



--------------------------------------------------------------------------------------------------------


 k-point     1 :   0.0000 0.0000 0.0000  plane waves:  196223
 k-point     2 :   0.5000 0.0000 0.0000  plane waves:  196178
 k-point     3 :   0.0000 0.5000 0.0000  plane waves:  196178
 k-point     4 :   0.5000 0.5000 0.0000  plane waves:  196196
 k-point     5 :   0.0000 0.0000 0.3333  plane waves:  196096
 k-point     6 :   0.5000 0.0000 0.3333  plane waves:  196166
 k-point     7 :   0.0000 0.5000 0.3333  plane waves:  196166
 k-point     8 :   0.5000 0.5000 0.3333  plane waves:  196200

 maximum and minimum number of plane-waves per node :     12330    12202

 maximum number of plane-waves:    196223
 maximum index in each direction: 
   IXMAX=   41   IYMAX=   41   IZMAX=   27
   IXMIN=  -41   IYMIN=  -41   IZMIN=  -28


 parallel 3D FFT for wavefunctions:
    minimum data exchange during FFTs selected (reduces bandwidth)
 parallel 3D FFT for charge:
    minimum data exchange during FFTs selected (reduces bandwidth)


 total amount of memory used by VASP MPI-rank0   171381. kBytes
=======================================================================

   base                                    :      30000. kBytes
   nonl-proj                               :      31043. kBytes
   fftplans                                :      38237. kBytes
   grid                                    :      29478. kBytes
   one-center                              :         18. kBytes
   wavefun                                 :      42605. kBytes

     INWAV:  cpu time      7.7196: real time      7.7217
 Broyden mixing: mesh for mixing (old mesh)
   NGX = 83   NGY = 83   NGZ = 55
  (NGX  =336   NGY  =336   NGZ  =224)
  gives a total of 378895 points

 initial charge density was supplied:
 number of electron     333.9999999 magnetization 
 keeping initial charge density in first step


--------------------------------------------------------------------------------------------------------


 Maximum index for augmentation-charges        10750 (set IRDMAX)


--------------------------------------------------------------------------------------------------------


 First call to EWALD:  gamma=   0.139
 Maximum number of real-space cells   2x   2x   3
 Maximum number of reciprocal cells   3x   3x   2

    FEWALD:  cpu time      0.0173: real time      0.0175


--------------------------------------- Ionic step        1  -------------------------------------------




--------------------------------------- Iteration      1(   1)  ---------------------------------------


    POTLOK:  cpu time      0.6773: real time      0.6783
    SETDIJ:  cpu time      1.2637: real time      1.2647
    EDDIAG:  cpu time     17.1513: real time     17.1660
     EDDAV:  cpu time     79.8525: real time     79.9134
       DOS:  cpu time      0.0105: real time      0.0111
    CHARGE:  cpu time      7.6981: real time      7.7033
    MIXING:  cpu time      0.0232: real time      0.0235
    --------------------------------------------
      LOOP:  cpu time    106.6767: real time    106.7605

 eigenvalue-minimisations  :  3488
 total energy-change (2. order) :-0.8795811E+03  (-0.9520685E+00)
 number of electron     333.9999999 magnetization 
 augmentation part      -17.5379213 magnetization 

 Broyden mixing:
  rms(total) = 0.11580E+01    rms(broyden)= 0.47155E+02
  rms(prec ) = 0.12559E+01
  weight for this iteration     100.00
  WARNING: grid for Broyden might be to small

 Free energy of the ion-electron system (eV)
  ---------------------------------------------------
  alpha Z        PSCENC =       113.66442825
  Ewald energy   TEWEN  =     -5303.84533627
  -Hartree energ DENC   =     -3923.21013046
  -exchange      EXHF   =         0.00000000
  -V(xc)+E(xc)   XCENC  =      -344.53935161
  PAW double counting   =     31675.14651382   -30878.16006375
  entropy T*S    EENTRO =        -0.06597664
  eigenvalues    EBANDS =      -638.75508382
  atomic energy  EATOM  =      8420.18393134
  Solvation  Ediel_sol  =         0.00000000
  ---------------------------------------------------
  free energy    TOTEN  =      -879.58106915 eV

  energy without entropy =     -879.51509251  energy(sigma->0) =     -879.54808083


--------------------------------------------------------------------------------------------------------




--------------------------------------- Iteration      1(   2)  ---------------------------------------


    POTLOK:  cpu time      0.6633: real time      0.6764
    SETDIJ:  cpu time      1.2557: real time      1.2562
    EDDIAG:  cpu time     17.2578: real time     17.2709
     EDDAV:  cpu time     79.8767: real time     79.9465
       DOS:  cpu time      0.0046: real time      0.0046
    CHARGE:  cpu time      7.6538: real time      7.6605
    MIXING:  cpu time      0.0160: real time      0.0165
    --------------------------------------------
      LOOP:  cpu time    106.7279: real time    106.8317

 eigenvalue-minimisations  :  3456
 total energy-change (2. order) : 0.5955167E+02  (-0.8892851E+00)
 number of electron     333.9999999 magnetization 
 augmentation part      -17.4761900 magnetization 

 Broyden mixing:
  rms(total) = 0.77359E+00    rms(broyden)= 0.27090E+02
  rms(prec ) = 0.82740E+00
  weight for this iteration     100.00
  WARNING: grid for Broyden might be to small

 eigenvalues of (default mixing * dielectric matrix)
  average eigenvalue GAMMA=   0.6352
  0.6352

 Free energy of the ion-electron system (eV)
  ---------------------------------------------------
  alpha Z        PSCENC =       113.66442825
  Ewald energy   TEWEN  =     -5303.84533627
  -Hartree energ DENC   =     -3913.61942494
  -exchange      EXHF   =         0.00000000
  -V(xc)+E(xc)   XCENC  =      -336.23183089
  PAW double counting   =     37956.39856249   -37159.17486590
  entropy T*S    EENTRO =        -0.05796247
  eigenvalues    EBANDS =      -597.34689676
  atomic energy  EATOM  =      8420.18393134
  Solvation  Ediel_sol  =         0.00000000
  ---------------------------------------------------
  free energy    TOTEN  =      -820.02939513 eV

  energy without entropy =     -819.97143266  energy(sigma->0) =     -820.00041390


--------------------------------------------------------------------------------------------------------




--------------------------------------- Iteration      1(   3)  ---------------------------------------


    POTLOK:  cpu time      0.6617: real time      0.6778
    SETDIJ:  cpu time      1.2537: real time      1.2542
    EDDIAG:  cpu time     17.3306: real time     17.3441
     EDDAV:  cpu time     79.8666: real time     79.9378
       DOS:  cpu time      0.0050: real time      0.0050
    CHARGE:  cpu time      7.7250: real time      7.7316
    MIXING:  cpu time      0.0133: real time      0.0133
    --------------------------------------------
      LOOP:  cpu time    106.8560: real time    106.9639

 eigenvalue-minimisations  :  3456
 total energy-change (2. order) :-0.3096514E+01  (-0.7543800E+00)
 number of electron     333.9999999 magnetization 
 augmentation part      -17.4212132 magnetization 

 Broyden mixing:
  rms(total) = 0.46842E+00    rms(broyden)= 0.19526E+02
  rms(prec ) = 0.53478E+00
  weight for this iteration     100.00
  WARNING: grid for Broyden might be to small

 eigenvalues of (default mixing * dielectric matrix)
  average eigenvalue GAMMA=   0.6313
  0.6633  0.5994

 Free energy of the ion-electron system (eV)
  ---------------------------------------------------
  alpha Z        PSCENC =       113.66442825
  Ewald energy   TEWEN  =     -5303.84533627
  -Hartree energ DENC   =     -3917.07469866
  -exchange      EXHF   =         0.00000000
  -V(xc)+E(xc)   XCENC  =      -340.86930135
  PAW double counting   =     42995.76310112   -42198.61706691
  entropy T*S    EENTRO =        -0.07238039
  eigenvalues    EBANDS =      -592.25858579
  atomic energy  EATOM  =      8420.18393134
  Solvation  Ediel_sol  =         0.00000000
  ---------------------------------------------------
  free energy    TOTEN  =      -823.12590866 eV

  energy without entropy =     -823.05352827  energy(sigma->0) =     -823.08971847


--------------------------------------------------------------------------------------------------------




--------------------------------------- Iteration      1(   4)  ---------------------------------------


    POTLOK:  cpu time      0.6593: real time      0.6763
    SETDIJ:  cpu time      1.2530: real time      1.2536
    EDDIAG:  cpu time     17.3010: real time     17.3157
     EDDAV:  cpu time     85.7144: real time     85.7876
       DOS:  cpu time      0.0040: real time      0.0040
    CHARGE:  cpu time      7.6226: real time      7.6295
    MIXING:  cpu time      0.0134: real time      0.0134
    --------------------------------------------
      LOOP:  cpu time    112.5676: real time    112.6802

 eigenvalue-minimisations  :  3912
 total energy-change (2. order) :-0.3190453E+00  (-0.1705914E+00)
 number of electron     333.9999999 magnetization 
 augmentation part      -17.4158236 magnetization 

 Broyden mixing:
  rms(total) = 0.15956E+00    rms(broyden)= 0.32775E+01
  rms(prec ) = 0.29789E+00
  weight for this iteration     100.00
  WARNING: grid for Broyden might be to small

 eigenvalues of (default mixing * dielectric matrix)
  average eigenvalue GAMMA=   0.7638
  1.1725  0.6302  0.4886

 Free energy of the ion-electron system (eV)
  ---------------------------------------------------
  alpha Z        PSCENC =       113.66442825
  Ewald energy   TEWEN  =     -5303.84533627
  -Hartree energ DENC   =     -3921.49567423
  -exchange      EXHF   =         0.00000000
  -V(xc)+E(xc)   XCENC  =      -341.26443387
  PAW double counting   =     49889.68221195   -49092.58790748
  entropy T*S    EENTRO =        -0.03818252
  eigenvalues    EBANDS =      -587.74399116
  atomic energy  EATOM  =      8420.18393134
  Solvation  Ediel_sol  =         0.00000000
  ---------------------------------------------------
  free energy    TOTEN  =      -823.44495400 eV

  energy without entropy =     -823.40677148  energy(sigma->0) =     -823.42586274


--------------------------------------------------------------------------------------------------------




--------------------------------------- Iteration      1(   5)  ---------------------------------------


    POTLOK:  cpu time      0.6619: real time      0.6804
    SETDIJ:  cpu time      1.2529: real time      1.2543
    EDDIAG:  cpu time     17.3071: real time     17.3218
     EDDAV:  cpu time     87.1477: real time     87.2220
       DOS:  cpu time      0.0038: real time      0.0038
    CHARGE:  cpu time      7.6086: real time      7.6162
    MIXING:  cpu time      0.0136: real time      0.0136
    --------------------------------------------
      LOOP:  cpu time    113.9956: real time    114.1120

 eigenvalue-minimisations  :  4000
 total energy-change (2. order) : 0.4975313E-01  (-0.5801402E-01)
 number of electron     333.9999999 magnetization 
 augmentation part      -17.4137399 magnetization 

 Broyden mixing:
  rms(total) = 0.46997E-01    rms(broyden)= 0.18083E+01
  rms(prec ) = 0.75441E-01
  weight for this iteration     100.00
  WARNING: grid for Broyden might be to small

 eigenvalues of (default mixing * dielectric matrix)
  average eigenvalue GAMMA=   0.9763
  2.0819  0.7551  0.6207  0.4475

 Free energy of the ion-electron system (eV)
  ---------------------------------------------------
  alpha Z        PSCENC =       113.66442825
  Ewald energy   TEWEN  =     -5303.84533627
  -Hartree energ DENC   =     -3923.15466634
  -exchange      EXHF   =         0.00000000
  -V(xc)+E(xc)   XCENC  =      -341.95711708
  PAW double counting   =     50713.19481029   -49916.09728590
  entropy T*S    EENTRO =        -0.06418212
  eigenvalues    EBANDS =      -585.31978304
  atomic energy  EATOM  =      8420.18393134
  Solvation  Ediel_sol  =         0.00000000
  ---------------------------------------------------
  free energy    TOTEN  =      -823.39520087 eV

  energy without entropy =     -823.33101875  energy(sigma->0) =     -823.36310981


--------------------------------------------------------------------------------------------------------




--------------------------------------- Iteration      1(   6)  ---------------------------------------


    POTLOK:  cpu time      0.6598: real time      0.6795
    SETDIJ:  cpu time      1.2567: real time      1.2572
    EDDIAG:  cpu time     17.2803: real time     17.2958
     EDDAV:  cpu time     83.7208: real time     83.7956
       DOS:  cpu time      0.0033: real time      0.0033
    CHARGE:  cpu time      7.5717: real time      7.5775
    MIXING:  cpu time      0.0137: real time      0.0137
    --------------------------------------------
      LOOP:  cpu time    110.5062: real time    110.6225

 eigenvalue-minimisations  :  3736
 total energy-change (2. order) :-0.4846474E-02  (-0.8194342E-02)
 number of electron     333.9999999 magnetization 
 augmentation part      -17.4150411 magnetization 

 Broyden mixing:
  rms(total) = 0.25541E-01    rms(broyden)= 0.25188E+00
  rms(prec ) = 0.35084E-01
  weight for this iteration     100.00
  WARNING: grid for Broyden might be to small

 eigenvalues of (default mixing * dielectric matrix)
  average eigenvalue GAMMA=   1.0135
  2.5190  0.8504  0.6187  0.6187  0.4605

 Free energy of the ion-electron system (eV)
  ---------------------------------------------------
  alpha Z        PSCENC =       113.66442825
  Ewald energy   TEWEN  =     -5303.84533627
  -Hartree energ DENC   =     -3923.12956881
  -exchange      EXHF   =         0.00000000
  -V(xc)+E(xc)   XCENC  =      -342.32489492
  PAW double counting   =     50411.86439842   -49614.74797648
  entropy T*S    EENTRO =        -0.06883728
  eigenvalues    EBANDS =      -584.99619159
  atomic energy  EATOM  =      8420.18393134
  Solvation  Ediel_sol  =         0.00000000
  ---------------------------------------------------
  free energy    TOTEN  =      -823.40004734 eV

  energy without entropy =     -823.33121006  energy(sigma->0) =     -823.36562870


--------------------------------------------------------------------------------------------------------




--------------------------------------- Iteration      1(   7)  ---------------------------------------


    POTLOK:  cpu time      0.6602: real time      0.6783
    SETDIJ:  cpu time      1.2524: real time      1.2531
    EDDIAG:  cpu time     17.2914: real time     17.3066
     EDDAV:  cpu time     89.4186: real time     89.5007
       DOS:  cpu time      0.0048: real time      0.0048
    CHARGE:  cpu time      7.5246: real time      7.5318
    MIXING:  cpu time      0.0140: real time      0.0140
    --------------------------------------------
      LOOP:  cpu time    116.1661: real time    116.2893

 eigenvalue-minimisations  :  4184
 total energy-change (2. order) :-0.3478051E-03  (-0.7471390E-03)
 number of electron     333.9999999 magnetization 
 augmentation part      -17.4137204 magnetization 

 Broyden mixing:
  rms(total) = 0.17198E-01    rms(broyden)= 0.15973E+00
  rms(prec ) = 0.19808E-01
  weight for this iteration     100.00
  WARNING: grid for Broyden might be to small

 eigenvalues of (default mixing * dielectric matrix)
  average eigenvalue GAMMA=   0.9761
  2.5878  1.0185  0.6788  0.6230  0.4493  0.4990

 Free energy of the ion-electron system (eV)
  ---------------------------------------------------
  alpha Z        PSCENC =       113.66442825
  Ewald energy   TEWEN  =     -5303.84533627
  -Hartree energ DENC   =     -3923.53948263
  -exchange      EXHF   =         0.00000000
  -V(xc)+E(xc)   XCENC  =      -342.31532310
  PAW double counting   =     50357.57185961   -49560.44507362
  entropy T*S    EENTRO =        -0.06532022
  eigenvalues    EBANDS =      -584.61007850
  atomic energy  EATOM  =      8420.18393134
  Solvation  Ediel_sol  =         0.00000000
  ---------------------------------------------------
  free energy    TOTEN  =      -823.40039515 eV

  energy without entropy =     -823.33507493  energy(sigma->0) =     -823.36773504


--------------------------------------------------------------------------------------------------------




--------------------------------------- Iteration      1(   8)  ---------------------------------------


    POTLOK:  cpu time      0.6774: real time      0.6777
    SETDIJ:  cpu time      1.2843: real time      1.2857
    EDDIAG:  cpu time     17.2858: real time     17.3007
     EDDAV:  cpu time     88.1835: real time     88.2616
       DOS:  cpu time      0.0055: real time      0.0055
    CHARGE:  cpu time      7.5405: real time      7.5471
    MIXING:  cpu time      0.0144: real time      0.0144
    --------------------------------------------
      LOOP:  cpu time    114.9914: real time    115.0927

 eigenvalue-minimisations  :  4080
 total energy-change (2. order) :-0.4173431E-03  (-0.1652623E-03)
 number of electron     333.9999999 magnetization 
 augmentation part      -17.4128467 magnetization 

 Broyden mixing:
  rms(total) = 0.10663E-01    rms(broyden)= 0.63397E-01
  rms(prec ) = 0.12227E-01
  weight for this iteration     100.00
  WARNING: grid for Broyden might be to small

 eigenvalues of (default mixing * dielectric matrix)
  average eigenvalue GAMMA=   1.0075
  2.5507  1.3495  0.9398  0.6337  0.6337  0.4472  0.4977

 Free energy of the ion-electron system (eV)
  ---------------------------------------------------
  alpha Z        PSCENC =       113.66442825
  Ewald energy   TEWEN  =     -5303.84533627
  -Hartree energ DENC   =     -3923.80931013
  -exchange      EXHF   =         0.00000000
  -V(xc)+E(xc)   XCENC  =      -342.25833263
  PAW double counting   =     50371.17777736   -49574.04227924
  entropy T*S    EENTRO =        -0.06629622
  eigenvalues    EBANDS =      -584.40539495
  atomic energy  EATOM  =      8420.18393134
  Solvation  Ediel_sol  =         0.00000000
  ---------------------------------------------------
  free energy    TOTEN  =      -823.40081249 eV

  energy without entropy =     -823.33451627  energy(sigma->0) =     -823.36766438


--------------------------------------------------------------------------------------------------------




--------------------------------------- Iteration      1(   9)  ---------------------------------------


    POTLOK:  cpu time      0.6637: real time      0.6813
    SETDIJ:  cpu time      1.2528: real time      1.2533
    EDDIAG:  cpu time     17.2535: real time     17.2682
     EDDAV:  cpu time     84.1604: real time     84.2361
       DOS:  cpu time      0.0047: real time      0.0047
    CHARGE:  cpu time      7.7519: real time      7.7582
    MIXING:  cpu time      0.0142: real time      0.0142
    --------------------------------------------
      LOOP:  cpu time    111.1013: real time    111.2162

 eigenvalue-minimisations  :  3776
 total energy-change (2. order) :-0.3546791E-03  (-0.9792347E-04)
 number of electron     333.9999999 magnetization 
 augmentation part      -17.4117904 magnetization 

 Broyden mixing:
  rms(total) = 0.29356E-02    rms(broyden)= 0.80353E-01
  rms(prec ) = 0.35705E-02
  weight for this iteration     100.00
  WARNING: grid for Broyden might be to small

 eigenvalues of (default mixing * dielectric matrix)
  average eigenvalue GAMMA=   1.0972
  2.5454  2.1644  1.0323  0.8317  0.4304  0.6343  0.6343  0.5049

 Free energy of the ion-electron system (eV)
  ---------------------------------------------------
  alpha Z        PSCENC =       113.66442825
  Ewald energy   TEWEN  =     -5303.84533627
  -Hartree energ DENC   =     -3924.13863451
  -exchange      EXHF   =         0.00000000
  -V(xc)+E(xc)   XCENC  =      -342.16190975
  PAW double counting   =     50378.80386018   -49581.65677821
  entropy T*S    EENTRO =        -0.06597295
  eigenvalues    EBANDS =      -584.18475525
  atomic energy  EATOM  =      8420.18393134
  Solvation  Ediel_sol  =         0.00000000
  ---------------------------------------------------
  free energy    TOTEN  =      -823.40116717 eV

  energy without entropy =     -823.33519422  energy(sigma->0) =     -823.36818069


--------------------------------------------------------------------------------------------------------




--------------------------------------- Iteration      1(  10)  ---------------------------------------


    POTLOK:  cpu time      0.6718: real time      0.6894
    SETDIJ:  cpu time      1.2538: real time      1.2543
    EDDIAG:  cpu time     17.2604: real time     17.2762
     EDDAV:  cpu time     89.2177: real time     89.3010
       DOS:  cpu time      0.0055: real time      0.0055
    CHARGE:  cpu time      7.5383: real time      7.5441
    MIXING:  cpu time      0.0143: real time      0.0143
    --------------------------------------------
      LOOP:  cpu time    115.9617: real time    116.0847

 eigenvalue-minimisations  :  4136
 total energy-change (2. order) :-0.6623290E-04  (-0.1454610E-04)
 number of electron     333.9999999 magnetization 
 augmentation part      -17.4119094 magnetization 

 Broyden mixing:
  rms(total) = 0.13141E-02    rms(broyden)= 0.60581E-01
  rms(prec ) = 0.18929E-02
  weight for this iteration     100.00
  WARNING: grid for Broyden might be to small

 eigenvalues of (default mixing * dielectric matrix)
  average eigenvalue GAMMA=   1.1366
  2.5967  2.5967  1.1306  0.9753  0.4268  0.7285  0.5153  0.6424  0.6167

 Free energy of the ion-electron system (eV)
  ---------------------------------------------------
  alpha Z        PSCENC =       113.66442825
  Ewald energy   TEWEN  =     -5303.84533627
  -Hartree energ DENC   =     -3924.14501816
  -exchange      EXHF   =         0.00000000
  -V(xc)+E(xc)   XCENC  =      -342.16584987
  PAW double counting   =     50381.75252978   -49584.60171798
  entropy T*S    EENTRO =        -0.06581620
  eigenvalues    EBANDS =      -584.17838428
  atomic energy  EATOM  =      8420.18393134
  Solvation  Ediel_sol  =         0.00000000
  ---------------------------------------------------
  free energy    TOTEN  =      -823.40123340 eV

  energy without entropy =     -823.33541720  energy(sigma->0) =     -823.36832530


--------------------------------------------------------------------------------------------------------




--------------------------------------- Iteration      1(  11)  ---------------------------------------


    POTLOK:  cpu time      0.6582: real time      0.6781
    SETDIJ:  cpu time      1.2593: real time      1.2599
    EDDIAG:  cpu time     17.2751: real time     17.2895
     EDDAV:  cpu time     85.8522: real time     85.9283
       DOS:  cpu time      0.0054: real time      0.0054
    CHARGE:  cpu time      7.4621: real time      7.4688
    MIXING:  cpu time      0.0145: real time      0.0146
    --------------------------------------------
      LOOP:  cpu time    112.5267: real time    112.6445

 eigenvalue-minimisations  :  3904
 total energy-change (2. order) :-0.1303789E-04  (-0.3019921E-05)
 number of electron     333.9999999 magnetization 
 augmentation part      -17.4119296 magnetization 

 Broyden mixing:
  rms(total) = 0.68684E-03    rms(broyden)= 0.16203E-01
  rms(prec ) = 0.89597E-03
  weight for this iteration     100.00
  WARNING: grid for Broyden might be to small

 eigenvalues of (default mixing * dielectric matrix)
  average eigenvalue GAMMA=   1.1577
  2.9068  2.6073  1.1780  1.1780  0.8599  0.4273  0.6766  0.5191  0.6342  0.5902

 Free energy of the ion-electron system (eV)
  ---------------------------------------------------
  alpha Z        PSCENC =       113.66442825
  Ewald energy   TEWEN  =     -5303.84533627
  -Hartree energ DENC   =     -3924.13351330
  -exchange      EXHF   =         0.00000000
  -V(xc)+E(xc)   XCENC  =      -342.17077050
  PAW double counting   =     50378.33774565   -49581.18571526
  entropy T*S    EENTRO =        -0.06590453
  eigenvalues    EBANDS =      -584.18611181
  atomic energy  EATOM  =      8420.18393134
  Solvation  Ediel_sol  =         0.00000000
  ---------------------------------------------------
  free energy    TOTEN  =      -823.40124644 eV

  energy without entropy =     -823.33534191  energy(sigma->0) =     -823.36829417


--------------------------------------------------------------------------------------------------------




--------------------------------------- Iteration      1(  12)  ---------------------------------------


    POTLOK:  cpu time      0.6640: real time      0.6826
    SETDIJ:  cpu time      1.2569: real time      1.2584
    EDDIAG:  cpu time     17.2537: real time     17.2680
     EDDAV:  cpu time     85.0428: real time     85.1200
       DOS:  cpu time      0.0055: real time      0.0055
    CHARGE:  cpu time      7.5894: real time      7.5961
    MIXING:  cpu time      0.0150: real time      0.0150
    --------------------------------------------
      LOOP:  cpu time    111.8272: real time    111.9456

 eigenvalue-minimisations  :  3864
 total energy-change (2. order) :-0.1185141E-04  (-0.1501295E-05)
 number of electron     333.9999999 magnetization 
 augmentation part      -17.4119776 magnetization 

 Broyden mixing:
  rms(total) = 0.35847E-03    rms(broyden)= 0.77135E-02
  rms(prec ) = 0.55032E-03
  weight for this iteration     100.00
  WARNING: grid for Broyden might be to small

 eigenvalues of (default mixing * dielectric matrix)
  average eigenvalue GAMMA=   1.1894
  3.0307  2.6690  1.6992  1.1150  0.9745  0.7939  0.4277  0.5131  0.6415  0.6092
  0.6092

 Free energy of the ion-electron system (eV)
  ---------------------------------------------------
  alpha Z        PSCENC =       113.66442825
  Ewald energy   TEWEN  =     -5303.84533627
  -Hartree energ DENC   =     -3924.10874659
  -exchange      EXHF   =         0.00000000
  -V(xc)+E(xc)   XCENC  =      -342.17509306
  PAW double counting   =     50373.48582807   -49576.33290406
  entropy T*S    EENTRO =        -0.06596645
  eigenvalues    EBANDS =      -584.20739953
  atomic energy  EATOM  =      8420.18393134
  Solvation  Ediel_sol  =         0.00000000
  ---------------------------------------------------
  free energy    TOTEN  =      -823.40125829 eV

  energy without entropy =     -823.33529183  energy(sigma->0) =     -823.36827506


--------------------------------------------------------------------------------------------------------




--------------------------------------- Iteration      1(  13)  ---------------------------------------


    POTLOK:  cpu time      0.6667: real time      0.6797
    SETDIJ:  cpu time      1.2539: real time      1.2551
    EDDIAG:  cpu time     17.3423: real time     17.3566
     EDDAV:  cpu time     74.1301: real time     74.1994
       DOS:  cpu time      0.0040: real time      0.0040
    CHARGE:  cpu time      7.6284: real time      7.6355
    MIXING:  cpu time      0.0150: real time      0.0150
    --------------------------------------------
      LOOP:  cpu time    101.0404: real time    101.1453

 eigenvalue-minimisations  :  3008
 total energy-change (2. order) :-0.2281115E-05  (-0.2845501E-06)
 number of electron     333.9999999 magnetization 
 augmentation part      -17.4120065 magnetization 

 Broyden mixing:
  rms(total) = 0.13226E-03    rms(broyden)= 0.31205E-02
  rms(prec ) = 0.20886E-03
  weight for this iteration     100.00
  WARNING: grid for Broyden might be to small

 eigenvalues of (default mixing * dielectric matrix)
  average eigenvalue GAMMA=   1.2180
  3.1369  2.7176  2.0330  1.1751  1.0611  0.9294  0.4277  0.7557  0.5130  0.6440
  0.6239  0.5984

 Free energy of the ion-electron system (eV)
  ---------------------------------------------------
  alpha Z        PSCENC =       113.66442825
  Ewald energy   TEWEN  =     -5303.84533627
  -Hartree energ DENC   =     -3924.09497925
  -exchange      EXHF   =         0.00000000
  -V(xc)+E(xc)   XCENC  =      -342.17944779
  PAW double counting   =     50374.44516073   -49577.29251710
  entropy T*S    EENTRO =        -0.06592403
  eigenvalues    EBANDS =      -584.21657646
  atomic energy  EATOM  =      8420.18393134
  Solvation  Ediel_sol  =         0.00000000
  ---------------------------------------------------
  free energy    TOTEN  =      -823.40126057 eV

  energy without entropy =     -823.33533654  energy(sigma->0) =     -823.36829856


--------------------------------------------------------------------------------------------------------




--------------------------------------- Iteration      1(  14)  ---------------------------------------


    POTLOK:  cpu time      0.6894: real time      0.6902
    SETDIJ:  cpu time      1.2529: real time      1.2534
    EDDIAG:  cpu time     17.3449: real time     17.3598
     EDDAV:  cpu time     72.7556: real time     72.8185
       DOS:  cpu time      0.0045: real time      0.0045
    CHARGE:  cpu time      7.7255: real time      7.7324
    MIXING:  cpu time      0.0155: real time      0.0155
    --------------------------------------------
      LOOP:  cpu time     99.7884: real time     99.8743

 eigenvalue-minimisations  :  2904
 total energy-change (2. order) :-0.1918357E-05  (-0.2505810E-06)
 number of electron     333.9999999 magnetization 
 augmentation part      -17.4120052 magnetization 

 Broyden mixing:
  rms(total) = 0.60692E-04    rms(broyden)= 0.47422E-02
  rms(prec ) = 0.12063E-03
  weight for this iteration     100.00
  WARNING: grid for Broyden might be to small

 eigenvalues of (default mixing * dielectric matrix)
  average eigenvalue GAMMA=   1.2509
  3.4385  2.6293  2.3535  1.4913  1.0199  0.9052  0.9052  0.4277  0.5133  0.7071
  0.6437  0.6299  0.5976

 Free energy of the ion-electron system (eV)
  ---------------------------------------------------
  alpha Z        PSCENC =       113.66442825
  Ewald energy   TEWEN  =     -5303.84533627
  -Hartree energ DENC   =     -3924.08589847
  -exchange      EXHF   =         0.00000000
  -V(xc)+E(xc)   XCENC  =      -342.18046337
  PAW double counting   =     50374.74354622   -49577.59107808
  entropy T*S    EENTRO =        -0.06592898
  eigenvalues    EBANDS =      -584.22446314
  atomic energy  EATOM  =      8420.18393134
  Solvation  Ediel_sol  =         0.00000000
  ---------------------------------------------------
  free energy    TOTEN  =      -823.40126249 eV

  energy without entropy =     -823.33533351  energy(sigma->0) =     -823.36829800


--------------------------------------------------------------------------------------------------------




--------------------------------------- Iteration      1(  15)  ---------------------------------------


    POTLOK:  cpu time      0.6597: real time      0.6780
    SETDIJ:  cpu time      1.2548: real time      1.2562
    EDDIAG:  cpu time     17.3070: real time     17.3220
     EDDAV:  cpu time     67.9295: real time     67.9882
       DOS:  cpu time      0.0041: real time      0.0040
    --------------------------------------------
      LOOP:  cpu time     87.1555: real time     87.2488

 eigenvalue-minimisations  :  2528
 total energy-change (2. order) :-0.5052134E-06  (-0.9539688E-07)
 number of electron     333.9999999 magnetization 
 augmentation part      -17.4120052 magnetization 

 Free energy of the ion-electron system (eV)
  ---------------------------------------------------
  alpha Z        PSCENC =       113.66442825
  Ewald energy   TEWEN  =     -5303.84533627
  -Hartree energ DENC   =     -3924.08028892
  -exchange      EXHF   =         0.00000000
  -V(xc)+E(xc)   XCENC  =      -342.18094031
  PAW double counting   =     50374.89882646   -49577.74643771
[...]
   0.271E+02 -.122E+02 0.310E+01   -.284E+02 0.124E+02 -.488E+01   0.146E+01 0.339E-01 0.316E+01   0.770E-04 -.138E-03 0.292E-04
   0.652E+02 -.458E+02 0.169E+02   -.613E+02 0.446E+02 -.163E+02   -.391E+01 0.114E+01 -.147E+01   -.479E-04 -.159E-03 0.182E-03
   -.684E+02 -.614E+02 -.307E+02   0.702E+02 0.592E+02 0.287E+02   -.240E+01 0.301E+01 0.306E+01   -.155E-04 -.145E-03 -.569E-04
   0.787E+02 0.275E+02 0.202E+02   -.766E+02 -.270E+02 -.198E+02   -.240E+01 -.585E-01 -.586E+00   0.231E-03 0.122E-03 0.550E-04
   0.919E+00 0.589E+02 -.110E+02   0.122E+01 -.570E+02 0.955E+01   -.128E+01 -.188E+01 0.688E+00   -.257E-03 0.777E-04 -.204E-04
   -.528E+02 0.659E+02 0.376E+02   0.533E+02 -.637E+02 -.358E+02   0.748E+00 -.227E+01 -.212E+01   0.206E-03 0.127E-03 0.188E-03
   0.152E+02 0.197E+02 -.212E+01   -.153E+02 -.183E+02 0.477E+00   0.204E+00 -.206E+01 0.300E+01   0.132E-03 -.135E-03 -.352E-04
   -.685E+02 -.278E+02 0.135E+02   0.695E+02 0.289E+02 -.121E+02   -.956E+00 0.220E+00 -.198E+01   -.643E-04 -.856E-04 0.349E-06
   -.408E+02 -.224E+02 0.775E+01   0.418E+02 0.222E+02 -.912E+01   -.126E+01 0.122E+01 0.718E+00   0.415E-05 -.213E-03 0.129E-04
   -.859E+02 0.327E+02 -.498E+02   0.834E+02 -.339E+02 0.499E+02   0.243E+01 0.101E+01 0.602E-01   -.146E-03 0.216E-03 -.122E-03
   -.239E+02 -.226E+02 -.226E+02   0.220E+02 0.216E+02 0.200E+02   0.266E+01 0.382E+00 0.258E+01   0.483E-04 0.510E-04 -.310E-04
   -.102E+03 0.278E+02 -.541E+02   0.103E+03 -.272E+02 0.535E+02   0.784E+00 -.187E+00 0.314E+01   -.221E-03 0.107E-03 -.159E-03
   0.627E+02 -.812E+02 -.145E+02   -.641E+02 0.847E+02 0.162E+02   0.168E+01 -.266E+01 -.192E+01   -.234E-04 -.766E-04 0.483E-04
   0.539E+02 0.769E+02 0.866E+01   -.530E+02 -.751E+02 -.886E+01   -.125E+01 -.184E+01 0.851E+00   0.297E-04 -.555E-05 -.275E-04
   0.133E+02 -.313E+02 -.275E+02   -.139E+02 0.337E+02 0.248E+02   -.117E+01 -.226E+01 0.263E+01   -.143E-03 -.184E-03 -.348E-04
   0.403E+02 -.799E+02 -.152E+02   -.410E+02 0.817E+02 0.140E+02   0.404E+00 -.184E+01 0.350E+00   -.125E-03 -.108E-03 0.266E-04
   0.534E+02 -.565E+02 -.764E+01   -.529E+02 0.564E+02 0.788E+01   -.911E+00 -.384E-01 0.165E+00   0.141E-03 -.778E-04 -.875E-04
   -.621E+02 0.605E+02 -.427E+02   0.640E+02 -.621E+02 0.395E+02   -.192E+01 0.469E+00 0.288E+01   -.227E-03 0.264E-03 -.169E-03
   0.696E+02 -.713E+02 -.213E+02   -.704E+02 0.716E+02 0.205E+02   0.102E+01 -.551E+00 -.176E+00   0.123E-03 0.645E-04 0.672E-04
   0.761E+02 -.989E+02 0.381E+02   -.771E+02 0.985E+02 -.360E+02   0.208E+01 -.703E+00 -.244E+01   0.158E-03 -.365E-03 0.122E-03
   0.359E+02 0.873E+02 0.845E+01   -.352E+02 -.886E+02 -.899E+01   -.586E+00 0.704E+00 0.108E+01   -.210E-04 0.168E-03 0.762E-04
   0.272E+02 -.918E+02 -.224E+02   -.296E+02 0.878E+02 0.224E+02   0.405E+01 0.314E+01 0.366E-01   -.122E-03 -.219E-03 -.134E-03
   -.276E+02 -.107E+01 0.684E+00   0.265E+02 0.135E+01 -.101E+01   0.750E+00 -.870E+00 0.229E+00   0.174E-03 -.139E-03 0.115E-05
   0.590E+02 0.375E+02 -.242E+02   -.564E+02 -.346E+02 0.243E+02   -.223E+01 -.282E+01 0.499E+00   0.898E-04 0.234E-04 -.544E-04
   -.306E+02 0.945E+01 -.202E+02   0.304E+02 -.908E+01 0.192E+02   0.291E+00 -.199E+00 0.136E+01   0.960E-04 -.143E-03 -.712E-04
   0.839E+02 0.359E+02 0.190E+02   -.864E+02 -.356E+02 -.176E+02   0.168E+01 -.116E+01 -.187E+01   0.263E-03 0.117E-03 0.108E-03
   0.820E+02 -.143E+02 -.123E+02   -.826E+02 0.138E+02 0.113E+02   -.164E+00 0.592E+00 0.439E+00   0.200E-03 0.185E-03 0.242E-04
   -.123E+03 0.342E+02 0.409E+01   0.120E+03 -.342E+02 -.320E+01   0.311E+01 -.269E+00 -.279E+01   -.173E-03 0.222E-03 -.753E-04
   -.281E+02 -.319E+02 -.389E+01   0.256E+02 0.302E+02 0.524E+01   0.273E+01 0.131E+01 -.115E+01   0.127E-03 -.819E-04 -.532E-04
   -.219E+01 -.240E+02 0.341E+01   0.164E+01 0.246E+02 -.452E+01   -.460E+00 -.109E+00 0.874E+00   0.130E-03 -.426E-04 -.475E-04
   0.371E+01 0.265E+01 -.117E+02   -.359E+01 -.412E+01 0.119E+02   0.219E+00 0.211E+01 -.391E+00   0.101E-03 0.951E-04 -.635E-04
   0.575E+02 -.545E+02 -.919E+01   -.566E+02 0.540E+02 0.997E+01   -.676E+00 0.106E+00 -.186E+01   0.123E-03 -.423E-04 -.257E-04
   -.723E+02 -.390E+02 0.345E+02   0.698E+02 0.364E+02 -.312E+02   0.212E+01 0.184E+01 -.337E+01   0.219E-04 -.125E-03 0.672E-04
   -.178E+02 0.165E+02 0.476E+02   0.181E+02 -.166E+02 -.453E+02   -.366E+00 -.381E+00 -.260E+01   0.904E-04 0.192E-03 0.519E-04
   -.994E+01 0.100E+02 0.425E+01   0.113E+02 -.124E+02 -.327E+01   -.157E+01 0.238E+01 -.213E+01   0.197E-03 -.971E-04 0.377E-04
   0.348E+02 0.249E+02 0.960E+01   -.351E+02 -.238E+02 -.919E+01   0.977E+00 -.139E+01 -.106E+01   0.262E-04 -.118E-03 -.193E-04
   0.325E+02 0.285E+02 0.406E+00   -.336E+02 -.300E+02 -.138E+00   0.679E+00 0.195E+01 -.344E+00   0.234E-04 -.821E-04 0.445E-04
   -.596E+02 -.444E+02 0.472E+01   0.600E+02 0.434E+02 -.354E+01   -.948E+00 0.119E+01 0.256E+00   -.373E-06 0.261E-04 0.180E-04
   0.575E+02 -.702E+02 0.160E+02   -.600E+02 0.704E+02 -.163E+02   0.338E+01 0.453E+00 0.119E+01   0.290E-03 -.694E-04 0.311E-03
   0.497E+02 0.426E+02 -.187E+02   -.507E+02 -.434E+02 0.177E+02   0.150E+01 0.486E+00 0.743E+00   0.126E-03 0.181E-04 0.321E-04
   -.151E+02 0.244E+01 -.436E+01   0.154E+02 -.111E+01 0.626E+01   -.106E+01 -.324E+01 -.208E+01   -.114E-03 -.130E-03 -.716E-04
 -----------------------------------------------------------------------------------------------
   -.174E+02 -.662E+01 -.315E+01   -.639E-13 0.990E-13 0.924E-13   0.173E+02 0.661E+01 0.315E+01   0.168E-02 -.175E-02 0.407E-03


 POSITION                                       TOTAL-FORCE (eV/Angst)
 -----------------------------------------------------------------------------------
     13.10650      0.88842      5.57526        -0.211518     -0.148270     -0.105366
     11.05450      0.34091      2.00698        -0.690399      0.014239      0.289997
     13.74680      0.83944      8.38674        -0.103329      0.123961     -0.040874
     13.91640      0.21285      1.88265        -0.550175     -1.480315      0.313319
     13.22030     11.05920      2.94755        -0.193556      0.272102      1.028707
      0.71018     13.54170      9.11252         0.994749      0.104415      0.345674
      1.34085     12.26900      5.10216        -0.385273     -0.066769      0.044764
     13.44120     10.05050      7.28261        -1.166834      0.661236     -0.110207
      9.71762      9.89256      2.07006        -0.752407     -0.426031     -0.107599
     10.54270      7.71976      7.95960        -0.241165     -0.296460      0.482895
      9.69132     11.35840      8.11914        -0.879898     -0.407525      0.431252
     10.50950      6.78610      5.27445         0.398769     -0.471374      0.244365
     13.04530     11.07030      0.73827         0.075935     -0.572810     -0.173034
      8.99935     12.30930      3.66368        -0.823816      0.055374     -0.854326
      6.73156      1.85715      4.64355        -0.674949     -0.707700      0.520816
      6.49087     11.46000      7.77909        -1.774189      1.267969     -2.260724
      5.72036     13.47000      0.06213         0.205624      0.085329      0.430487
      5.98507     11.42380      3.37551        -0.589458      0.194782     -0.421819
     10.29970      2.71719      7.54716        -1.552085     -0.385272     -0.514906
      3.65554     10.22160      6.28069         0.304358     -0.789806     -1.103497
      4.69709     11.02290      9.38341        -0.543085     -0.244784      0.959991
      3.89932      4.10075      3.64622        -1.228563      0.919741     -0.851528
      7.25258      8.56680      5.62707         0.363255     -0.952329     -0.055637
     11.81320      3.89393      6.14420         0.534657     -0.719536     -0.131772
      8.59492      0.69992      9.79202         1.465089      0.108304     -0.702678
      4.15326      5.44238      6.99202        -1.072943     -0.372327     -0.556161
     14.41130      5.70682      8.38632        -1.000932     -0.243053     -0.455113
     11.26620      3.16687      1.89681        -0.208147      1.454093      0.912315
      8.36812     11.18870      8.90899         1.629872      0.196821      1.026009
      0.04870      5.01839      3.06597        -0.011281      0.400487      0.524456
     13.47430      2.89860      2.91829        -0.341138      0.611946      0.118637
      2.16878      6.43494      5.86097         1.868414      0.289834      0.259932
      0.01031      1.42783      1.54398        -0.052911      1.093182     -1.282623
      8.23873      5.36749      3.13649         0.498586     -1.079941     -0.662815
     13.47320      2.26628      5.20298         0.019856      1.227177      0.376428
      4.33888      1.98237      4.34875         0.105285     -0.803061      0.289774
      8.19758      4.00412      7.18270         0.475453     -0.139573      0.015998
      5.16679      6.08330      0.68867         0.516046      0.336640     -0.288420
      2.77901     12.25470      5.39018         0.254736      0.218667      1.121777
      4.22783      3.15352      7.77109        -0.924145      0.862461      0.573216
      2.75234      3.10344      9.66690         0.422140     -0.104230     -0.613737
      7.02893      2.44115      0.34698        -0.722220     -0.260797      1.403446
      7.36067      4.07529      4.92117         0.306094      0.771540      0.397546
      3.07249      1.67986      6.38402         0.712894     -0.826834     -0.693051
      4.93934      7.09132      8.38011         0.217062      0.527823      0.349811
     10.45110      6.54025      8.93244         1.550504      0.038576     -0.967299
      0.04845      7.02574      6.32128        -0.500269      1.418618      0.520704
     12.19400      4.96506      8.16147        -0.162056      0.983845      1.014967
      3.53725      9.08170      8.37734        -0.335130      0.257815      0.295483
      8.94920      8.61626      1.65258         2.010918      0.509712      1.103750
      9.27602      0.54205      7.39124        -0.484481      0.129671      0.879823
     10.90300      7.27471      1.28873        -0.021579      0.075451     -0.082919
      3.89780     12.60100      3.34121         0.205545      0.828570     -1.287498
      1.55600      6.21086      1.63586         0.162607      0.261906      1.577405
      0.07450      7.23303      0.33884        -0.073446     -0.005991     -0.915866
      8.05387      7.58193      3.52971        -0.770925      0.913299      1.186056
      3.34566     13.88560      7.23304        -0.405806      0.470547     -0.236512
     11.58990      3.13069      9.46085         0.828156     -0.069527     -0.800446
      6.92699      0.93002      6.82094         1.259972     -0.167320     -0.357348
      3.34162      4.85520      1.20165         0.125220     -0.742003      1.527900
      7.49810      9.14159      0.04583         0.042156      1.288344     -0.633323
      8.33077      5.62745      8.84242        -0.364015      1.099296     -0.632912
      7.72115      0.56623      2.97055         0.032001     -0.166035      0.047370
      5.64484      9.99542      1.39048         0.982781     -0.664763      0.163257
      7.75990     12.73760      2.79228         1.775486      0.431256      2.668084
     13.62380     10.23170      1.84243         0.378247      0.796991     -0.351718
      1.09450      2.87466      6.03069        -0.375831     -0.117396      0.713751
     11.54870      5.77611      4.76743        -1.872337      0.109299      0.023030
     13.05640      8.00594      2.06716        -0.335903     -0.095326     -0.909388
      3.27148      8.34902      4.87318        -0.453616     -0.222377      0.377630
      9.85926      1.30198      1.89797        -0.168251     -1.162908     -0.184387
      1.41864     10.17140      1.52916         0.339202     -0.400817     -1.012748
      0.09747      9.29150      7.17963         1.120951     -1.106025     -0.428498
     13.70780      2.10659      9.18374         0.148189     -0.656312      0.571837
     13.37490      6.88112      4.14365         1.816740     -0.804587      0.094781
      5.38116      5.36445      4.98129        -0.325372     -0.636844     -0.084763
      3.82770      0.45911      2.67993         0.326275     -0.054546      0.525814
      7.20395      4.80446      0.94347         0.165979      0.193753      0.413876
      2.20687     13.80400      9.49843        -0.759644     -0.922473     -0.566792
      3.05260     11.95090      1.10856        -0.732363      0.173984     -0.540975
      7.92876     13.00260      0.60809         0.331483     -0.223316     -2.042988
      5.45724      7.57932      4.39000         0.412746     -0.381504      0.113917
      4.88304      7.91293      2.12935        -1.027488      0.419013     -0.158392
      5.80997      0.73995      1.51664         0.382609      0.714658     -0.171480
      2.43346      8.29601      2.71419         0.316799     -0.377660     -1.207484
      7.19033      7.67575      8.03844        -0.333872     -0.688160     -0.174964
      5.66480     13.73030      7.63298        -0.025508     -0.558274     -0.460779
      6.44559      2.75851      8.09045        -0.282798      0.156487     -1.268206
      1.72498      4.58748      4.61741         0.716430     -0.386606     -0.683108
      0.84421      3.50594      8.33043        -0.460775      0.538798     -0.084056
      6.07888     10.53060      5.54525        -0.621544      0.201768      1.463216
      1.18904      9.03404      9.15088         1.129995      0.588417      0.960383
      2.24527      1.16121      1.07409         0.482359     -0.217961     -0.195334
     10.60850      5.47068      2.68764        -0.824795     -2.070672     -0.278577
 -----------------------------------------------------------------------------------
    total drift:                               -0.001809     -0.008646     -0.002104


--------------------------------------------------------------------------------------------------------



  FREE ENERGIE OF THE ION-ELECTRON SYSTEM (eV)
  ---------------------------------------------------
  free  energy   TOTEN  =      -823.40126299 eV

  energy  without entropy=     -823.33532688  energy(sigma->0) =     -823.36829494



--------------------------------------------------------------------------------------------------------


    POTLOK:  cpu time      1.9056: real time      1.9065


--------------------------------------------------------------------------------------------------------


     LOOP+:  cpu time   1798.1874: real time   1799.9571
    4ORBIT:  cpu time      0.0000: real time      0.0000



 total charge

# of ion       s       p       d       tot
------------------------------------------
    1        0.568   0.016   0.000   0.584
    2        0.548   0.013   0.000   0.562
    3        0.563   0.015   0.000   0.578
    4        0.601   0.019   0.000   0.621
    5        0.596   0.017   0.000   0.613
    6        0.536   0.012   0.000   0.548
    7        0.575   0.017   0.000   0.591
    8        0.591   0.019   0.000   0.610
    9        0.541   0.013   0.000   0.554
   10        0.551   0.013   0.000   0.564
   11        0.531   0.013   0.000   0.544
   12        0.549   0.014   0.000   0.563
   13        0.561   0.014   0.000   0.575
   14        0.533   0.012   0.000   0.544
   15        0.748   0.945   0.000   1.694
   16        0.767   0.912   0.000   1.678
   17        0.783   0.922   0.000   1.705
   18        0.745   0.934   0.000   1.679
   19        0.759   0.875   0.000   1.635
   20        0.755   0.890   0.000   1.645
   21        0.745   0.897   0.000   1.641
   22        0.754   0.916   0.000   1.670
   23        0.762   0.875   0.000   1.637
   24        0.744   0.934   0.000   1.678
   25        0.760   0.876   0.000   1.636
   26        0.753   0.920   0.000   1.673
   27        0.758   0.906   0.000   1.664
   28        0.749   0.914   0.000   1.662
   29        0.740   0.964   0.000   1.704
   30        0.749   0.930   0.000   1.678
   31        0.745   0.934   0.000   1.679
   32        0.760   0.950   0.000   1.710
   33        0.745   1.021   0.000   1.766
   34        0.750   0.928   0.000   1.678
   35        0.738   0.937   0.000   1.675
   36        0.751   0.953   0.000   1.703
   37        0.756   0.911   0.000   1.666
   38        0.751   0.955   0.000   1.706
   39        0.739   0.932   0.000   1.671
   40        0.752   0.942   0.000   1.693
   41        0.745   0.953   0.000   1.698
   42        0.760   0.946   0.000   1.706
   43        0.745   0.932   0.000   1.677
   44        0.752   0.916   0.000   1.667
   45        0.747   0.946   0.000   1.693
   46        0.742   0.946   0.000   1.687
   47        0.757   0.896   0.000   1.653
   48        0.757   0.943   0.000   1.699
   49        0.765   0.859   0.000   1.624
   50        0.746   0.976   0.000   1.722
   51        0.816   0.797   0.000   1.613
   52        0.747   0.951   0.000   1.698
   53        0.746   0.896   0.000   1.642
   54        0.759   0.948   0.000   1.707
   55        0.754   0.954   0.000   1.708
   56        0.783   0.861   0.000   1.644
   57        0.748   0.860   0.000   1.608
   58        0.747   0.976   0.000   1.723
   59        0.753   0.953   0.000   1.706
   60        0.753   0.955   0.000   1.708
   61        0.753   0.943   0.000   1.696
   62        0.750   0.932   0.000   1.682
   63        0.749   0.912   0.000   1.662
   64        0.758   0.914   0.000   1.671
   65        0.741   0.987   0.000   1.728
   66        0.735   1.016   0.000   1.751
   67        0.746   0.947   0.000   1.693
   68        0.742   0.999   0.000   1.740
   69        0.745   0.913   0.000   1.658
   70        0.767   0.911   0.000   1.678
   71        0.743   0.921   0.000   1.664
   72        0.752   0.892   0.000   1.644
   73        0.773   0.924   0.000   1.697
   74        0.744   0.959   0.000   1.703
   75        0.747   0.927   0.000   1.674
   76        0.754   0.961   0.000   1.714
   77        0.748   0.941   0.000   1.689
   78        0.751   0.874   0.000   1.624
   79        0.741   0.889   0.000   1.631
   80        0.760   0.837   0.000   1.598
   81        0.758   0.958   0.000   1.716
   82        0.754   0.963   0.000   1.717
   83        0.761   0.899   0.000   1.660
   84        0.758   0.933   0.000   1.691
   85        0.755   0.883   0.000   1.637
   86        0.753   0.877   0.000   1.630
   87        0.750   0.962   0.000   1.712
   88        0.759   1.036   0.000   1.795
   89        0.755   0.976   0.000   1.731
   90        0.749   0.935   0.000   1.684
   91        0.750   0.904   0.000   1.654
   92        0.746   0.927   0.000   1.673
   93        0.744   0.956   0.000   1.700
   94        0.753   0.939   0.000   1.692
--------------------------------------------------
tot         68.063  74.488   0.000 142.551


 total amount of memory used by VASP MPI-rank0   171381. kBytes
=======================================================================

   base                                    :      30000. kBytes
   nonl-proj                               :      31043. kBytes
   fftplans                                :      38237. kBytes
   grid                                    :      29478. kBytes
   one-center                              :         18. kBytes
   wavefun                                 :      42605. kBytes

  
  
 General timing and accounting informations for this job:
 ========================================================
  
                  Total CPU time used (sec):     1859.374
                            User time (sec):     1852.652
                          System time (sec):        6.722
                         Elapsed time (sec):     1861.378
  
                   Maximum memory used (kb):      333260.
                   Average memory used (kb):          N/A
  
                          Minor page faults:       265543
                          Major page faults:         1160
                 Voluntary context switches:         2671
