 vasp.6.5.0 16Dec24 (build Jan 20 2025 08:32:48) complex                         
 executed on        HPECrayEX_GCC date 2025.07.21  18:11:46
 running  128 mpi-ranks, with    1 threads/rank, on    1 nodes
 distrk:  each k-point on  128 cores,    1 groups
 distr:  one band on NCORE=  16 cores,    8 groups


--------------------------------------------------------------------------------------------------------


 INCAR:
   SYSTEM = a-Si SPC
   NCORE = 16
   ISTART = 1
   ICHARG = 1
   ISPIN = 1
   ISYM = 1
   EDIFF = 1E-6
   NELM = 150
   EDIFFG = -0.01
   NSW = 0
   ISIF = 2
   IBRION = -1
   PREC = Accurate
   ENCUT = 1200
   KSPACING = 0.23
   KGAMMA = .TRUE.
   METAGGA = SCAN
   LASPH = .TRUE.
   LDIAG = .FALSE.
   LMIXTAU = .TRUE.
   ADDGRID = .TRUE.
   ALGO = Normal
   ISMEAR = 0
   SIGMA = 0.1
   LORBIT = 11
   NEDOS = 2000
   LWAVE = .FALSE.
   LCHARG = .FALSE.

 POTCAR:    PAW_PBE H 15Jun2001                   
 POTCAR:    PAW_PBE Si 05Jan2001                  
 POTCAR:    PAW_PBE H 15Jun2001                   
   SHA256 =  030f79b5d3ab3cf0e668861823c8fb652ff669f3e15e46930bd03bfd63a607b6 H/POTCAR              
   COPYR  = (c) Copyright 15Jun2001 Georg Kresse                                                    
   COPYR  = This file is part of the software VASP. Any use, copying, and all other rights are regul
   COPYR  = If you do not have a valid VASP license, you may not use, copy or distribute this file. 
   VRHFIN =H: ultrasoft test                                                                        
   LEXCH  = PE                                                                                      
   EATOM  =    12.4884 eV,    0.9179 Ry                                                             
                                                                                                    
   TITEL  = PAW_PBE H 15Jun2001                                                                     
   LULTRA =        F    use ultrasoft PP ?                                                          
   IUNSCR =        0    unscreen: 0-lin 1-nonlin 2-no                                               
   RPACOR =    0.000    partial core radius                                                         
   POMASS =    1.000; ZVAL   =    1.000    mass and valenz                                          
   RCORE  =    1.100    outmost cutoff radius                                                       
   RWIGS  =    0.700; RWIGS  =    0.370    wigner-seitz radius (au A)                               
   ENMAX  =  250.000; ENMIN  =  200.000 eV                                                          
   RCLOC  =    0.701    cutoff for local pot                                                        
   LCOR   =        T    correct aug charges                                                         
   LPAW   =        T    paw PP                                                                      
   EAUG   =  400.000                                                                                
   RMAX   =    1.123    core radius for proj-oper                                                   
   RAUG   =    1.200    factor for augmentation sphere                                              
   RDEP   =    1.112    radius for radial grids                                                     
   RDEPT  =    0.926    core radius for aug-charge                                                  
                                                                                                    
   Atomic configuration                                                                             
    2 entries                                                                                       
     n  l   j            E        occ.                                                              
     1  0  0.50        -6.4927   1.0000                                                             
     2  1  0.50        -3.4015   0.0000                                                             
   Description                                                                                      
     l       E           TYP  RCUT    TYP  RCUT                                                     
     0     -6.4927494     23  1.100                                                                 
     0      6.8029130     23  1.100                                                                 
     1     -4.0817478     23  1.100                                                                 
  local pseudopotential read in
  atomic valenz-charges read in
  non local Contribution for L=           0  read in
    real space projection operators read in
  non local Contribution for L=           0  read in
    real space projection operators read in
  non local Contribution for L=           1  read in
    real space projection operators read in
    PAW grid and wavefunctions read in

   number of l-projection  operators is LMAX  =           3
   number of lm-projection operators is LMMAX =           5

 POTCAR:    PAW_PBE Si 05Jan2001                  
   SHA256 =  79d9987ad8750f624c4d6acb2a16d13abf6a777132adc04dc6c8399be72b42bb Si/POTCAR             
   COPYR  = (c) Copyright 05Jan2001 Georg Kresse                                                    
   COPYR  = This file is part of the software VASP. Any use, copying, and all other rights are regul
   COPYR  = If you do not have a valid VASP license, you may not use, copy or distribute this file. 
   VRHFIN =Si: s2p2                                                                                 
   LEXCH  = PE                                                                                      
   EATOM  =   103.0669 eV,    7.5752 Ry                                                             
                                                                                                    
   TITEL  = PAW_PBE Si 05Jan2001                                                                    
   LULTRA =        F    use ultrasoft PP ?                                                          
   IUNSCR =        1    unscreen: 0-lin 1-nonlin 2-no                                               
   RPACOR =    1.500    partial core radius                                                         
   POMASS =   28.085; ZVAL   =    4.000    mass and valenz                                          
   RCORE  =    1.900    outmost cutoff radius                                                       
   RWIGS  =    2.480; RWIGS  =    1.312    wigner-seitz radius (au A)                               
   ENMAX  =  245.345; ENMIN  =  184.009 eV                                                          
   ICORE  =        2    local potential                                                             
   LCOR   =        T    correct aug charges                                                         
   LPAW   =        T    paw PP                                                                      
   EAUG   =  322.069                                                                                
   DEXC   =    0.000                                                                                
   RMAX   =    1.950    core radius for proj-oper                                                   
   RAUG   =    1.300    factor for augmentation sphere                                              
   RDEP   =    1.993    radius for radial grids                                                     
   RDEPT  =    1.837    core radius for aug-charge                                                  
                                                                                                    
   Atomic configuration                                                                             
    6 entries                                                                                       
     n  l   j            E        occ.                                                              
     1  0  0.50     -1785.8828   2.0000                                                             
     2  0  0.50      -139.4969   2.0000                                                             
     2  1  1.50       -95.5546   6.0000                                                             
     3  0  0.50       -10.8127   2.0000                                                             
     3  1  0.50        -4.0811   2.0000                                                             
     3  2  1.50        -4.0817   0.0000                                                             
   Description                                                                                      
     l       E           TYP  RCUT    TYP  RCUT                                                     
     0    -10.8127223     23  1.900                                                                 
     0     -7.6451159     23  1.900                                                                 
     1     -4.0811372     23  1.900                                                                 
     1      2.4879257     23  1.900                                                                 
     2     -4.0817478      7  1.900                                                                 
  local pseudopotential read in
  partial core-charges read in
  partial kinetic energy density read in
  atomic valenz-charges read in
  non local Contribution for L=           0  read in
    real space projection operators read in
  non local Contribution for L=           0  read in
    real space projection operators read in
  non local Contribution for L=           1  read in
    real space projection operators read in
  non local Contribution for L=           1  read in
    real space projection operators read in
    PAW grid and wavefunctions read in

   number of l-projection  operators is LMAX  =           4
   number of lm-projection operators is LMMAX =           8

 -----------------------------------------------------------------------------
|                                                                             |
|               ----> ADVICE to this user running VASP <----                  |
|                                                                             |
|     You have a (more or less) 'large supercell' and for larger cells it     |
|     might be more efficient to use real-space projection operators.         |
|     Therefore, try LREAL= Auto in the INCAR file.                           |
|     Mind: For very accurate calculation, you might also keep the            |
|     reciprocal projection scheme (i.e. LREAL=.FALSE.).                      |
|                                                                             |
 -----------------------------------------------------------------------------

 -----------------------------------------------------------------------------
|                                                                             |
|               ----> ADVICE to this user running VASP <----                  |
|                                                                             |
|     You enforced a specific xc type in the INCAR file but a different       |
|     type was found in the POTCAR file.                                      |
|     I HOPE YOU KNOW WHAT YOU ARE DOING!                                     |
|                                                                             |
 -----------------------------------------------------------------------------

  PAW_PBE H 15Jun2001                   :
 energy of atom  1       EATOM=  -12.4884
 kinetic energy error for atom=    0.0000 (will be added to EATOM!!)
  PAW_PBE Si 05Jan2001                  :
 energy of atom  2       EATOM= -103.0669
 kinetic energy error for atom=    0.0001 (will be added to EATOM!!)


 POSCAR:  H Si
  positions in cartesian coordinates
  No initial velocities read in


 exchange-correlation table for SCAN
   RHO(1)=    0.500       N(1)  =     2000
   RHO(2)=  100.500       N(2)  =     4000



--------------------------------------------------------------------------------------------------------


 ion  position               nearest neighbor table
   1  0.771  0.406  0.463-   7 1.56
   2  0.166  0.573  0.454-  56 1.48
   3  0.956  0.780  0.445-  59 1.52
   4  0.847  0.693  0.489-  35 1.43
   5  0.665  0.565  0.560-  67 2.28  57 2.33  21 2.38  43 2.42
   6  0.799  0.907  0.616-  33 2.28  71 2.37  70 2.40
   7  0.824  0.328  0.435-   1 1.56  34 2.20   8 2.28
   8  0.962  0.289  0.471-  10 2.21   7 2.28  20 2.41  32 2.49
   9  0.987  0.778  0.574-  35 2.33  71 2.43  60 2.46
  10  0.057  0.245  0.409-   8 2.21  52 2.35
  11  0.852  0.975  0.425-  64 2.39  53 2.47
  12  0.833  0.294  0.611-  49 2.36  58 2.42
  13  0.689  0.150  0.498-  49 2.24  34 2.25  29 2.30  63 2.34  24 3.07
  14  0.452  0.459  0.487-  36 2.24  43 2.37  42 2.38  51 2.41
  15  0.457  0.708  0.459-  46 2.30  44 2.37  42 2.38  61 2.43
  16  0.281  0.417  0.393-  36 2.28  56 2.30
  17  0.255  0.328  0.525-  37 2.29  66 2.30  68 2.38  36 2.40
  18  0.561  0.019  0.384-  62 2.34  63 2.35
  19  0.586  0.289  0.412-  34 2.30  48 2.32  51 2.32
  20  0.945  0.162  0.529-  53 2.28  30 2.33  49 2.35   8 2.41
  21  0.679  0.539  0.470-  44 2.24  51 2.32   5 2.38  45 2.49
  22  0.379  0.993  0.491-  62 2.17  26 2.28  38 2.29  55 2.31
  23  0.150  0.582  0.568-  68 2.23  60 2.24  50 2.45
  24  0.572  0.047  0.577-  38 2.28  70 2.32  29 2.46  63 3.05  13 3.07
  25  0.556  0.313  0.603-  43 2.29  29 2.36
  26  0.296  0.881  0.451-  22 2.28  47 2.36  46 2.39  31 2.41
  27  0.107  0.988  0.473-  53 2.28  52 2.38  40 2.40  31 2.40
  28  0.679  0.789  0.406-  44 2.29  64 2.45
  29  0.557  0.200  0.538-  13 2.30  48 2.36  25 2.36  24 2.46
  30  0.063  0.209  0.584-  54 2.24  20 2.33  66 2.33
  31  0.161  0.906  0.399-  27 2.40  26 2.41
  32  0.984  0.447  0.505-  68 2.40  58 2.41  41 2.42   8 2.49
  33  0.732  0.816  0.555-   6 2.28  35 2.33  57 2.46  64 2.48
  34  0.725  0.216  0.422-   7 2.20  13 2.25  19 2.30
  35  0.853  0.713  0.543-   4 1.43   9 2.33  33 2.33  67 2.35
  36  0.364  0.346  0.456-  14 2.24  16 2.28  48 2.35  17 2.40
  37  0.315  0.360  0.605-  17 2.29  39 2.31
  38  0.509  0.935  0.527-  24 2.28  22 2.29  61 2.30  63 2.60
  39  0.401  0.494  0.606-  50 2.20  37 2.31  43 2.41
  40  0.181  0.960  0.554-  55 2.33  47 2.39  27 2.40
  41  0.946  0.557  0.438-  45 2.27  32 2.42  59 2.56
  42  0.357  0.592  0.491-  56 2.34  14 2.38  15 2.38  50 2.39
  43  0.542  0.453  0.563-  25 2.29  14 2.37  39 2.41   5 2.42
  44  0.606  0.658  0.433-  21 2.24  28 2.29  15 2.37  45 3.05  51 3.11
  45  0.803  0.597  0.413-  41 2.27  21 2.49  44 3.05
  46  0.411  0.811  0.398-  15 2.30  26 2.39
  47  0.243  0.816  0.528-  69 2.33  26 2.36  40 2.39  60 2.51
  48  0.471  0.225  0.462-  19 2.32  62 2.33  36 2.35  29 2.36
  49  0.793  0.165  0.560-  13 2.24  20 2.35  12 2.36  70 2.39
  50  0.316  0.609  0.580-  39 2.20  69 2.34  42 2.39  23 2.45
  51  0.575  0.447  0.426-  21 2.32  19 2.32  14 2.41  44 3.11
  52  0.155  0.138  0.448-  66 2.20  10 2.35  27 2.38  65 2.42
  53  0.958  0.018  0.495-  27 2.28  20 2.28  71 2.37  11 2.47
  54  0.083  0.357  0.604-  30 2.24  68 2.25
  55  0.294  0.074  0.551-  22 2.31  40 2.33  66 2.37
  56  0.252  0.561  0.425-   2 1.48  16 2.30  42 2.34
  57  0.613  0.709  0.586-   5 2.33  61 2.42  33 2.46
  58  0.882  0.441  0.577-  67 2.34  32 2.41  12 2.42
  59  0.033  0.709  0.447-   3 1.52  60 2.27  41 2.56
  60  0.110  0.707  0.523-  23 2.24  59 2.27   9 2.46  47 2.51
  61  0.486  0.781  0.542-  38 2.30  69 2.31  57 2.42  15 2.43
  62  0.436  0.080  0.430-  22 2.17  48 2.33  18 2.34  65 2.42  63 3.12
  63  0.629  0.012  0.466-  64 2.24  13 2.34  18 2.35  38 2.60  24 3.05  62 3.12
  64  0.733  0.898  0.471-  63 2.24  11 2.39  28 2.45  33 2.48
  65  0.293  0.141  0.397-  52 2.42  62 2.42
  66  0.184  0.186  0.527-  52 2.20  17 2.30  30 2.33  55 2.37
  67  0.811  0.583  0.591-   5 2.28  58 2.34  35 2.35
  68  0.138  0.440  0.537-  23 2.23  54 2.25  17 2.38  32 2.40
  69  0.351  0.765  0.588-  61 2.31  47 2.33  50 2.34
  70  0.719  0.051  0.612-  24 2.32  49 2.39   6 2.40
  71  0.941  0.939  0.574-  53 2.37   6 2.37   9 2.43

  LATTYP: Found a simple tetragonal cell.
 ALAT       =    14.5365156675
 C/A-ratio  =     1.7892927298
  
  Lattice vectors:
  
 A1 = (  14.5365156675,   0.0000000000,   0.0000000000)
 A2 = (   0.0000000000,  14.5365156675,   0.0000000000)
 A3 = (   0.0000000000,   0.0000000000,  26.0100818000)


Analysis of symmetry for initial positions (statically):
=====================================================================
 Subroutine PRICEL returns:
 Original cell was already a primitive cell.
 

 Routine SETGRP: Setting up the symmetry group for a 
 simple tetragonal supercell.


 Subroutine GETGRP returns: Found  1 space group operations
 (whereof  1 operations were pure point group operations)
 out of a pool of 16 trial point group operations.


The static configuration has the point symmetry C_1 .


Analysis of symmetry for dynamics (positions and initial velocities):
=====================================================================
 Subroutine PRICEL returns:
 Original cell was already a primitive cell.
 

 Routine SETGRP: Setting up the symmetry group for a 
 simple tetragonal supercell.


 Subroutine GETGRP returns: Found  1 space group operations
 (whereof  1 operations were pure point group operations)
 out of a pool of 16 trial point group operations.


The dynamic configuration has the point symmetry C_1 .


 Subroutine INISYM returns: Found  1 space group operations
 (whereof  1 operations are pure point group operations),
 and found     1 'primitive' translations


----------------------------------------------------------------------------------------

                                     Primitive cell                                     

  volume of cell :    5496.1979

  direct lattice vectors                    reciprocal lattice vectors
    14.536515667  0.000000000  0.000000000     0.068792276  0.000000000  0.000000000
     0.000000000 14.536515667  0.000000000     0.000000000  0.068792276  0.000000000
     0.000000000  0.000000000 26.010081800     0.000000000  0.000000000  0.038446630

  length of vectors
    14.536515667 14.536515667 26.010081800     0.068792276  0.068792276  0.038446630

  position of ions in fractional coordinates (direct lattice)
     0.770707387  0.406276864  0.462834062
     0.165609150  0.573053419  0.454469997
     0.956020020  0.780152566  0.445060184
     0.846660939  0.692586878  0.489104644
     0.665239884  0.564951752  0.559938716
     0.799304336  0.907232538  0.615533697
     0.824282811  0.327742914  0.434991012
     0.961949914  0.289010111  0.470701011
     0.987286110  0.778460276  0.574319678
     0.056542986  0.244697566  0.408723505
     0.852288147  0.975034205  0.424878779
     0.832785537  0.293571726  0.611259969
     0.689037196  0.150460403  0.497612114
     0.452265877  0.459178812  0.486946250
     0.457350314  0.707645507  0.459272366
     0.280753662  0.416857116  0.393096603
     0.255153304  0.327774558  0.525157203
     0.560528409  0.019470278  0.384466303
     0.585927893  0.289242628  0.411789739
     0.945102686  0.161524264  0.528922281
     0.678505787  0.539021192  0.469881713
     0.378737940  0.993415501  0.490549853
     0.150494799  0.582153949  0.568318928
     0.572059370  0.047092785  0.577035548
     0.555929645  0.313092223  0.603125047
     0.295999406  0.880554893  0.450632639
     0.106965110  0.988159771  0.473115075
     0.679466815  0.788586499  0.405829627
     0.557477472  0.200171077  0.537741938
     0.062579714  0.208778367  0.583639526
     0.160995252  0.905739745  0.398922498
     0.983990960  0.447409830  0.504515591
     0.732424485  0.816289149  0.554659993
     0.724767905  0.215695430  0.421925309
     0.852638987  0.712832445  0.542977600
     0.363611894  0.345882749  0.456294290
     0.315432536  0.360365587  0.604626772
     0.509492107  0.935052134  0.526856544
     0.401334827  0.493804717  0.606255371
     0.181310987  0.960464001  0.554157496
     0.946416618  0.556762032  0.437821837
     0.356952114  0.591784180  0.491243430
     0.542173254  0.452523848  0.563050586
     0.605691914  0.658322133  0.433468525
     0.802819621  0.597255229  0.412562632
     0.410819218  0.811274192  0.397742340
     0.243375378  0.815573709  0.528204483
     0.471125279  0.225183949  0.462258900
     0.793450113  0.165457807  0.560297038
     0.315589382  0.609462419  0.579622622
     0.575395108  0.446733602  0.425576585
     0.154746161  0.138214690  0.448451177
     0.958242011  0.017662348  0.494996206
     0.082814206  0.357220404  0.603783253
     0.294032635  0.073837502  0.550853777
     0.252200052  0.561377306  0.425336294
     0.613483327  0.709241488  0.585940941
     0.881820671  0.440504461  0.577385797
     0.033080899  0.709048869  0.446892935
     0.109899789  0.706902550  0.522947675
     0.485865400  0.781156933  0.541638504
     0.435738532  0.079526623  0.430244391
     0.629366776  0.011867012  0.466121633
     0.732809722  0.897945581  0.470987438
     0.293002126  0.141494017  0.396910163
     0.184289004  0.186402991  0.526893068
     0.810882076  0.582634119  0.590997442
     0.138063347  0.439687897  0.537287499
     0.351395074  0.765320951  0.588209292
     0.719023750  0.051218945  0.611520637
     0.941360386  0.939303497  0.574416563

  ion indices of the primitive-cell ions
   primitive index   ion index
                 1           1
                 2           2
                 3           3
                 4           4
                 5           5
                 6           6
                 7           7
                 8           8
                 9           9
                10          10
                11          11
                12          12
                13          13
                14          14
                15          15
                16          16
                17          17
                18          18
                19          19
                20          20
                21          21
                22          22
                23          23
                24          24
                25          25
                26          26
                27          27
                28          28
                29          29
                30          30
                31          31
                32          32
                33          33
                34          34
                35          35
                36          36
                37          37
                38          38
                39          39
                40          40
                41          41
                42          42
                43          43
                44          44
                45          45
                46          46
                47          47
                48          48
                49          49
                50          50
                51          51
                52          52
                53          53
                54          54
                55          55
                56          56
                57          57
                58          58
                59          59
                60          60
                61          61
                62          62
                63          63
                64          64
                65          65
                66          66
                67          67
                68          68
                69          69
                70          70
                71          71

----------------------------------------------------------------------------------------


 -----------------------------------------------------------------------------
|                                                                             |
|           W    W    AA    RRRRR   N    N  II  N    N   GGGG   !!!           |
|           W    W   A  A   R    R  NN   N  II  NN   N  G    G  !!!           |
|           W    W  A    A  R    R  N N  N  II  N N  N  G       !!!           |
|           W WW W  AAAAAA  RRRRR   N  N N  II  N  N N  G  GGG   !            |
|           WW  WW  A    A  R   R   N   NN  II  N   NN  G    G                |
|           W    W  A    A  R    R  N    N  II  N    N   GGGG   !!!           |
|                                                                             |
|     The requested file  could not be found or opened for reading            |
|     k-point information. Automatic k-point generation is used as a          |
|     fallback, which may lead to unwanted results.                           |
|                                                                             |
 -----------------------------------------------------------------------------



Automatic generation of k-mesh.
 Grid dimensions derived from KSPACING:
 generate k-points for:    2    2    2

 Generating k-lattice:

  Cartesian coordinates                     Fractional coordinates (reciprocal lattice)
     0.034396138  0.000000000  0.000000000     0.500000000  0.000000000  0.000000000
     0.000000000  0.034396138  0.000000000     0.000000000  0.500000000  0.000000000
     0.000000000  0.000000000  0.019223315     0.000000000  0.000000000  0.500000000

  Length of vectors
     0.034396138  0.034396138  0.019223315

  Shift w.r.t. Gamma in fractional coordinates (k-lattice)
     0.000000000  0.000000000  0.000000000

 
 Subroutine IBZKPT returns following result:
 ===========================================
 
 Found      8 irreducible k-points:
 
 Following reciprocal coordinates:
            Coordinates               Weight
  0.000000  0.000000  0.000000      1.000000
  0.500000  0.000000  0.000000      1.000000
  0.000000  0.500000  0.000000      1.000000
  0.500000  0.500000  0.000000      1.000000
  0.000000  0.000000  0.500000      1.000000
  0.500000  0.000000  0.500000      1.000000
  0.000000  0.500000  0.500000      1.000000
  0.500000  0.500000  0.500000      1.000000
 
 Following cartesian coordinates:
            Coordinates               Weight
  0.000000  0.000000  0.000000      1.000000
  0.034396  0.000000  0.000000      1.000000
  0.000000  0.034396  0.000000      1.000000
  0.034396  0.034396  0.000000      1.000000
  0.000000  0.000000  0.019223      1.000000
  0.034396  0.000000  0.019223      1.000000
  0.000000  0.034396  0.019223      1.000000
  0.034396  0.034396  0.019223      1.000000
 


--------------------------------------------------------------------------------------------------------




 Dimension of arrays:
   k-points           NKPTS =      8   k-points in BZ     NKDIM =      8   number of bands    NBANDS=    176
   number of dos      NEDOS =   2000   number of ions     NIONS =     71
   non local maximal  LDIM  =      4   non local SUM 2l+1 LMDIM =      8
   total plane-waves  NPLWV = ******
   max r-space proj   IRMAX =      1   max aug-charges    IRDMAX= 403978
   dimension x,y,z NGX =   168 NGY =  168 NGZ =  294
   dimension x,y,z NGXF=   336 NGYF=  336 NGZF=  588
   support grid    NGXF=   672 NGYF=  672 NGZF= 1176
   ions per type =               4  67
   NGX,Y,Z   is equivalent  to a cutoff of  19.21, 19.21, 18.79 a.u.
   NGXF,Y,Z  is equivalent  to a cutoff of  38.43, 38.43, 37.58 a.u.

 SYSTEM =  a-Si SPC                                
 POSCAR =   H Si                                   

 Startparameter for this run:
   NWRITE =      2    write-flag & timer
   PREC   = accura    normal or accurate (medium, high low for compatibility)
   ISTART =      1    job   : 0-new  1-cont  2-samecut
   ICHARG =      1    charge: 1-file 2-atom 10-const
   ISPIN  =      1    spin polarized calculation?
   LNONCOLLINEAR =      F non collinear calculations
   LSORBIT =      F    spin-orbit coupling
   INIWAV =      1    electr: 0-lowe 1-rand  2-diag
   LASPH  =      T    aspherical Exc in radial PAW
 Electronic Relaxation 1
   ENCUT  = 1200.0 eV  88.20 Ry    9.39 a.u.  41.06 41.06 73.47*2*pi/ulx,y,z
   ENINI  = 1200.0     initial cutoff
   ENAUG  =  400.0 eV  augmentation charge cutoff
   NELM   =    150;   NELMIN=  2; NELMDL=  0     # of ELM steps 
   EDIFF  = 0.1E-05   stopping-criterion for ELM
   LREAL  =      F    real-space projection
   NLSPLINE    = F    spline interpolate recip. space projectors
   LCOMPAT=      F    compatible to vasp.4.4
   GGA_COMPAT  = T    GGA compatible to vasp.4.4-vasp.4.6
   LMAXPAW     = -100 max onsite density
   LMAXMIX     =    2 max onsite mixed and CHGCAR
   VOSKOWN=      0    Vosko Wilk Nusair interpolation
   ROPT   =    0.00000   0.00000
 Ionic relaxation
   EDIFFG = -.1E-01   stopping-criterion for IOM
   NSW    =      0    number of steps for IOM
   NBLOCK =      1;   KBLOCK =      1    inner block; outer block 
   IBRION =     -1    ionic relax: 0-MD 1-quasi-New 2-CG
   NFREE  =      0    steps in history (QN), initial steepest desc. (CG)
   ISIF   =      2    stress and relaxation
   IWAVPR =     10    prediction:  0-non 1-charg 2-wave 3-comb
   ISYM   =      1    0-nonsym 1-usesym 2-fastsym
   LCORR  =      T    Harris-Foulkes like correction to forces

   POTIM  = 0.5000    time-step for ionic-motion
   TEIN   =    0.0    initial temperature
   TEBEG  =    0.0;   TEEND  =   0.0 temperature during run
   SMASS  =  -3.00    Nose mass-parameter (am)
   estimated Nose-frequenzy (Omega)   =  0.10E-29 period in steps = 0.13E+47 mass=  -0.483E-26a.u.
   SCALEE = 1.0000    scale energy and forces
   NPACO  =    256;   APACO  = 10.0  distance and # of slots for P.C.
   PSTRESS=    0.0 pullay stress

  Mass of Ions in am
   POMASS =   1.00 28.09
  Ionic Valenz
   ZVAL   =   1.00  4.00
  Atomic Wigner-Seitz radii
   RWIGS  =  -1.00 -1.00
  virtual crystal weights 
   VCA    =   1.00  1.00
   NELECT =     272.0000    total number of electrons
   NUPDOWN=      -1.0000    fix difference up-down

 DOS related values:
   EMIN   =  10.00;   EMAX   =-10.00  energy-range for DOS
   EFERMI =   0.00;   METHOD = LEGACY      
   ISMEAR =     0;   SIGMA  =   0.10  broadening in eV -4-tet -1-fermi 0-gaus
   EFERMI_NEDOS =   21; number of points for ismear=-14 and -15

 Electronic relaxation 2 (details)
   IALGO  =     38    algorithm
   LDIAG  =      F    sub-space diagonalisation (order eigenvalues)
   LSUBROT=      F    optimize rotation matrix (better conditioning)
   TURBO    =      0    0=normal 1=particle mesh
   IRESTART =      0    0=no restart 2=restart with 2 vectors
   NREBOOT  =      0    no. of reboots
   NMIN     =      0    reboot dimension
   EREF     =   0.00    reference energy to select bands
   IMIX   =      4    mixing-type and parameters
     AMIX     =   0.40;   BMIX     =  1.00
     AMIX_MAG =   1.60;   BMIX_MAG =  1.00
     AMIN     =   0.10
     WC   =   100.;   INIMIX=   1;  MIXPRE=   1;  MAXMIX= -45

 Intra band minimization:
   WEIMIN = 0.0000     energy-eigenvalue tresh-hold
   EBREAK =  0.14E-08  absolut break condition
   DEPER  =   0.30     relativ break condition  

   TIME   =   0.40     timestep for ELM

  volume/ion in A,a.u.               =      77.41       522.40
  Fermi-wavevector in a.u.,A,eV,Ry     =   0.601050  1.135819  4.915250  0.361261
  Thomas-Fermi vector in A             =   1.653138

 Write flags
   LWAVE        =      F    write WAVECAR
   LDOWNSAMPLE  =      F    k-point downsampling of WAVECAR
   LCHARG       =      F    write CHGCAR
   LVTOT        =      F    write LOCPOT, total local potential
   LVHAR        =      F    write LOCPOT, Hartree potential only
   WRT_POTENTIAL= false  ! write potential to hdf5 file
   LELF         =      F    write electronic localiz. function (ELF)
   LORBIT       =     11    0 simple, 1 ext, 2 COOP (PROOUT), +10 PAW based schemes


 Python interface
   PLUGINS active      =      F    recompile with -DPLUGINS to activate

 Dipole corrections
   LMONO      =      F    monopole corrections only (constant potential shift)
   LDIPOL     =      F    correct potential (dipole corrections)
   IDIPOL     =      0    1-x, 2-y, 3-z, 4-all directions 
   EPSILON    =  1.0000000 bulk dielectric constant
   LVACPOTAV  =      F  vacuum potentials using an averaging scheme for the charge density
   VACPOTFLAT =  0.1000000 required flatness to determine vacuum potential

Coulomb truncation method
  LTRUNCATE          =      F  Coulomb kernel truncation to be used
  IDIMENSIONALITY    =      3  Dimensionality of cutoff (0 molecules / 2 surfaces)
  ISURFACE           =     -1  Direction of surface normal
  LCOARSEN           =      F  Coarsen the charge grid before padding, preferred


 Exchange correlation treatment:
   METAGGA = SCAN    functional components
   XC_C    = 1    coefficients multiplying the functional components
   LIBXC   =     F    Libxc                    
   VOSKOWN =     0    Vosko Wilk Nusair interpolation
   LHFCALC =     F    Hartree Fock is set to
   LHFONE  =     F    Hartree Fock one center treatment
   AEXX    =    0.0000 exact exchange contribution

 Parameters of functionals:
   SCAN:
     P1 =  0.000000E+00
     P2 =  0.000000E+00
     P3 =  0.000000E+00

 Accuracy and mixing parameters for tau-dependent meta-GGA functionals:
   LMAXTAU = 6
   LMIXTAU = T

 Van der Waals corrections
   IVDW    =     0    specifies the selected vdW correction

 Linear response parameters
   LEPSILON=     F    determine dielectric tensor
   LRPA    =     F    only Hartree local field effects (RPA)
   LNABLA  =     F    use nabla operator in PAW spheres
   LVEL    =     F    velocity operator in full k-point grid
   CSHIFT  =0.1000    complex shift for real part using Kramers Kronig
   OMEGAMAX=  -1.0    maximum frequency
   DEG_THRESHOLD= 0.2000000E-02 threshold for treating states as degnerate
   RTIME   =   -0.100 relaxation time in fs
  (WPLASMAI=    0.000 imaginary part of plasma frequency in eV, 0.658/RTIME)
   DFIELD  = 0.0000000 0.0000000 0.0000000 field for delta impulse in time

  Optional k-point grid parameters
   LKPOINTS_OPT  =     F    use optional k-point grid
   KPOINTS_OPT_MODE=     1    mode for optional k-point grid

 Orbital magnetization related:
   ORBITALMAG=     F  switch on orbital magnetization
   LCHIMAG   =     F  perturbation theory with respect to B field
   DQ        =  0.001000  dq finite difference perturbation B field
   LLRAUG    =     F  two centre corrections for induced B field
   LBONE     =     F  B-component reconstruction in AE one-centre
   LVGVCALC  =     T  calculate vGv susceptibility
   LVGVAPPL  =     F  apply vGv susceptibility instead of pGv for G=0

 Random number generation:
   RANDOM_GENERATOR = DEFAULT
   PCG_SEED         = not used


--------------------------------------------------------------------------------------------------------


 Static calculation
 charge density and potential will be updated during run
 non-spin polarized calculation
 Variant of blocked Davidson
 perform Loewdin sub-space diagonalisation
    ordering is kept fixed
    before iterative eigenvector-optimisation
 modified Broyden-mixing scheme, WC =      100.0
 initial mixing is a Kerker type mixing with AMIX =  0.4000 and BMIX =      1.0000
 Hartree-type preconditioning will be used
 using additional bands           40
 reciprocal scheme for non local part
 use partial core corrections
 calculate Harris-corrections to forces   (improved forces if not selfconsistent)
 use gradient corrections 
 use of overlap-Matrix (Vanderbilt PP)
 Gauss-broadening in eV      SIGMA  =   0.10


--------------------------------------------------------------------------------------------------------


  energy-cutoff  :     1200.00
  volume of cell :     5496.20
      direct lattice vectors                 reciprocal lattice vectors
    14.536515667  0.000000000  0.000000000     0.068792276  0.000000000  0.000000000
     0.000000000 14.536515667  0.000000000     0.000000000  0.068792276  0.000000000
     0.000000000  0.000000000 26.010081800     0.000000000  0.000000000  0.038446630

  length of vectors
    14.536515667 14.536515667 26.010081800     0.068792276  0.068792276  0.038446630



 old parameters found on file WAVECAR:
  energy-cutoff  :     1200.00
  volume of cell :     5496.20
      direct lattice vectors                 reciprocal lattice vectors
    14.536515667  0.000000000  0.000000000     0.068792276  0.000000000  0.000000000
     0.000000000 14.536515667  0.000000000     0.000000000  0.068792276  0.000000000
     0.000000000  0.000000000 26.010081800     0.000000000  0.000000000  0.038446630

  length of vectors


 k-points in units of 2pi/SCALE and weight: read from INCAR                         
   0.00000000  0.00000000  0.00000000       0.125
   0.03439614  0.00000000  0.00000000       0.125
   0.00000000  0.03439614  0.00000000       0.125
   0.03439614  0.03439614  0.00000000       0.125
   0.00000000  0.00000000  0.01922332       0.125
   0.03439614  0.00000000  0.01922332       0.125
   0.00000000  0.03439614  0.01922332       0.125
   0.03439614  0.03439614  0.01922332       0.125

 k-points in reciprocal lattice and weights: read from INCAR                         
   0.00000000  0.00000000  0.00000000       0.125
   0.50000000  0.00000000  0.00000000       0.125
   0.00000000  0.50000000  0.00000000       0.125
   0.50000000  0.50000000  0.00000000       0.125
   0.00000000  0.00000000  0.50000000       0.125
   0.50000000  0.00000000  0.50000000       0.125
   0.00000000  0.50000000  0.50000000       0.125
   0.50000000  0.50000000  0.50000000       0.125

 position of ions in fractional coordinates (direct lattice) 
   0.77070739  0.40627686  0.46283406
   0.16560915  0.57305342  0.45447000
   0.95602002  0.78015257  0.44506018
   0.84666094  0.69258688  0.48910464
   0.66523988  0.56495175  0.55993872
   0.79930434  0.90723254  0.61553370
   0.82428281  0.32774291  0.43499101
   0.96194991  0.28901011  0.47070101
   0.98728611  0.77846028  0.57431968
   0.05654299  0.24469757  0.40872351
   0.85228815  0.97503421  0.42487878
   0.83278554  0.29357173  0.61125997
   0.68903720  0.15046040  0.49761211
   0.45226588  0.45917881  0.48694625
   0.45735031  0.70764551  0.45927237
   0.28075366  0.41685712  0.39309660
   0.25515330  0.32777456  0.52515720
   0.56052841  0.01947028  0.38446630
   0.58592789  0.28924263  0.41178974
   0.94510269  0.16152426  0.52892228
   0.67850579  0.53902119  0.46988171
   0.37873794  0.99341550  0.49054985
   0.15049480  0.58215395  0.56831893
   0.57205937  0.04709278  0.57703555
   0.55592965  0.31309222  0.60312505
   0.29599941  0.88055489  0.45063264
   0.10696511  0.98815977  0.47311507
   0.67946681  0.78858650  0.40582963
   0.55747747  0.20017108  0.53774194
   0.06257971  0.20877837  0.58363953
   0.16099525  0.90573975  0.39892250
   0.98399096  0.44740983  0.50451559
   0.73242448  0.81628915  0.55465999
   0.72476790  0.21569543  0.42192531
   0.85263899  0.71283244  0.54297760
   0.36361189  0.34588275  0.45629429
   0.31543254  0.36036559  0.60462677
   0.50949211  0.93505213  0.52685654
   0.40133483  0.49380472  0.60625537
   0.18131099  0.96046400  0.55415750
   0.94641662  0.55676203  0.43782184
   0.35695211  0.59178418  0.49124343
   0.54217325  0.45252385  0.56305059
   0.60569191  0.65832213  0.43346853
   0.80281962  0.59725523  0.41256263
   0.41081922  0.81127419  0.39774234
   0.24337538  0.81557371  0.52820448
   0.47112528  0.22518395  0.46225890
   0.79345011  0.16545781  0.56029704
   0.31558938  0.60946242  0.57962262
   0.57539511  0.44673360  0.42557659
   0.15474616  0.13821469  0.44845118
   0.95824201  0.01766235  0.49499621
   0.08281421  0.35722040  0.60378325
   0.29403263  0.07383750  0.55085378
   0.25220005  0.56137731  0.42533629
   0.61348333  0.70924149  0.58594094
   0.88182067  0.44050446  0.57738580
   0.03308090  0.70904887  0.44689294
   0.10989979  0.70690255  0.52294767
   0.48586540  0.78115693  0.54163850
   0.43573853  0.07952662  0.43024439
   0.62936678  0.01186701  0.46612163
   0.73280972  0.89794558  0.47098744
   0.29300213  0.14149402  0.39691016
   0.18428900  0.18640299  0.52689307
   0.81088208  0.58263412  0.59099744
   0.13806335  0.43968790  0.53728750
   0.35139507  0.76532095  0.58820929
   0.71902375  0.05121895  0.61152064
   0.94136039  0.93930350  0.57441656

 position of ions in cartesian coordinates  (Angst):
  11.20340000  5.90585000 12.03835180
   2.40738000  8.33020000 11.82080180
  13.89720000 11.34070000 11.57605180
  12.30750000 10.06780000 12.72165180
   9.67027000  8.21243000 14.56405180
  11.61910000 13.18800000 16.01008180
  11.98220000  4.76424000 11.31415180
  13.98340000  4.20120000 12.24297180
  14.35170000 11.31610000 14.93810180
   0.82193800  3.55705000 10.63093180
  12.38930000 14.17360000 11.05113180
  12.10580000  4.26751000 15.89892180
  10.01620000  2.18717000 12.94293180
   6.57437000  6.67486000 12.66551180
   6.64828000 10.28670000 11.94571180
   4.08118000  6.05965000 10.22447480
   3.70904000  4.76470000 13.65938180
   8.14813000  0.28303000 10.00000000
   8.51735000  4.20458000 10.71068480
  13.73850000  2.34800000 13.75731180
   9.86311000  7.83549000 12.22166180
   5.50553000 14.44080000 12.75924180
   2.18767000  8.46249000 14.78202180
   8.31575000  0.68456500 15.00874180
   8.08128000  4.55127000 15.68733180
   4.30280000 12.80020000 11.72099180
   1.55490000 14.36440000 12.30576180
   9.87708000 11.46330000 10.55566180
   8.10378000  2.90979000 13.98671180
   0.90969100  3.03491000 15.18051180
   2.34031000 13.16630000 10.37600680
  14.30380000  6.50378000 13.12249180
  10.64690000 11.86600000 14.42675180
  10.53560000  3.13546000 10.97431180
  12.39440000 10.36210000 14.12289180
   5.28565000  5.02793000 11.86825180
   4.58529000  5.23846000 15.72639180
   7.40624000 13.59240000 13.70358180
   5.83401000  7.17820000 15.76875180
   2.63563000 13.96180000 14.41368180
  13.75760000  8.09338000 11.38778180
   5.18884000  8.60248000 12.77728180
   7.88131000  6.57812000 14.64499180
   8.80465000  9.56971000 11.27455180
  11.67020000  8.68201000 10.73078780
   5.97188000 11.79310000 10.34531080
   3.53783000 11.85560000 13.73864180
   6.84852000  3.27339000 12.02339180
  11.53400000  2.40518000 14.57337180
   4.58757000  8.85946000 15.07603180
   8.36424000  6.49395000 11.06928180
   2.24947000  2.00916000 11.66425180
  13.92950000  0.25674900 12.87489180
   1.20383000  5.19274000 15.70445180
   4.27421000  1.07334000 14.32775180
   3.66611000  8.16047000 11.06303180
   8.91791000 10.30990000 15.24037180
  12.81860000  6.40340000 15.01785180
   0.48088100 10.30710000 11.62372180
   1.59756000 10.27590000 13.60191180
   7.06279000 11.35530000 14.08806180
   6.33412000  1.15604000 11.19069180
   9.14880000  0.17250500 12.12386180
  10.65250000 13.05300000 12.25042180
   4.25923000  2.05683000 10.32366580
   2.67892000  2.70965000 13.70453180
  11.78740000  8.46947000 15.37189180
   2.00696000  6.39153000 13.97489180
   5.10806000 11.12510000 15.29937180
  10.45210000  0.74454500 15.90570180
  13.68410000 13.65420000 14.94062180



--------------------------------------------------------------------------------------------------------


 k-point     1 :   0.0000 0.0000 0.0000  plane waves:  518635
 k-point     2 :   0.5000 0.0000 0.0000  plane waves:  518730
 k-point     3 :   0.0000 0.5000 0.0000  plane waves:  518730
 k-point     4 :   0.5000 0.5000 0.0000  plane waves:  518956
 k-point     5 :   0.0000 0.0000 0.5000  plane waves:  518602
 k-point     6 :   0.5000 0.0000 0.5000  plane waves:  518904
 k-point     7 :   0.0000 0.5000 0.5000  plane waves:  518904
 k-point     8 :   0.5000 0.5000 0.5000  plane waves:  518840

 maximum and minimum number of plane-waves per node :     32498    32336

 maximum number of plane-waves:    518956
 maximum index in each direction: 
   IXMAX=   41   IYMAX=   41   IZMAX=   73
   IXMIN=  -41   IYMIN=  -41   IZMIN=  -73


 parallel 3D FFT for wavefunctions:
    minimum data exchange during FFTs selected (reduces bandwidth)
 parallel 3D FFT for charge:
    minimum data exchange during FFTs selected (reduces bandwidth)


 total amount of memory used by VASP MPI-rank0   368719. kBytes
=======================================================================

   base                                    :      30000. kBytes
   nonl-proj                               :      70053. kBytes
   fftplans                                :     100033. kBytes
   grid                                    :      77177. kBytes
   one-center                              :         15. kBytes
   wavefun                                 :      91441. kBytes

     INWAV:  cpu time     27.6600: real time     27.6763
 Broyden mixing: mesh for mixing (old mesh)
   NGX = 83   NGY = 83   NGZ =147
  (NGX  =336   NGY  =336   NGZ  =588)
  gives a total of ****** points

 initial charge density was supplied:
 number of electron     271.9999999 magnetization 
 keeping initial charge density in first step


--------------------------------------------------------------------------------------------------------


 Maximum index for augmentation-charges        11105 (set IRDMAX)


--------------------------------------------------------------------------------------------------------


 First call to EWALD:  gamma=   0.100
 Maximum number of real-space cells   3x   3x   2
 Maximum number of reciprocal cells   2x   2x   4

    FEWALD:  cpu time      0.0096: real time      0.0096


--------------------------------------- Ionic step        1  -------------------------------------------




--------------------------------------- Iteration      1(   1)  ---------------------------------------


    POTLOK:  cpu time      1.9686: real time      1.9698
    SETDIJ:  cpu time      1.3946: real time      1.3955
    EDDIAG:  cpu time     53.6634: real time     53.6911
     EDDAV:  cpu time    235.9072: real time    236.0470
       DOS:  cpu time      0.0072: real time      0.0074
    CHARGE:  cpu time     30.4817: real time     30.5092
    MIXING:  cpu time      0.0476: real time      0.0483
    --------------------------------------------
      LOOP:  cpu time    323.4703: real time    323.6683

 eigenvalue-minimisations  :  2816
 total energy-change (2. order) :-0.6690851E+03  (-0.7705964E+00)
 number of electron     271.9999999 magnetization 
 augmentation part      -15.4873788 magnetization 

 Broyden mixing:
  rms(total) = 0.95921E+00    rms(broyden)= 0.24105E+02
  rms(prec ) = 0.99049E+00
  weight for this iteration     100.00
  WARNING: grid for Broyden might be to small

 Free energy of the ion-electron system (eV)
  ---------------------------------------------------
  alpha Z        PSCENC =        28.38685540
  Ewald energy   TEWEN  =     32528.12823971
  -Hartree energ DENC   =    -38514.80665987
  -exchange      EXHF   =         0.00000000
  -V(xc)+E(xc)   XCENC  =      -329.54479686
  PAW double counting   =     23194.20578418   -22525.78697082
  entropy T*S    EENTRO =        -0.16896900
  eigenvalues    EBANDS =     -2004.93002390
  atomic energy  EATOM  =      6955.43144537
  Solvation  Ediel_sol  =         0.00000000
  ---------------------------------------------------
  free energy    TOTEN  =      -669.08509579 eV

  energy without entropy =     -668.91612679  energy(sigma->0) =     -669.00061129


--------------------------------------------------------------------------------------------------------




--------------------------------------- Iteration      1(   2)  ---------------------------------------


    POTLOK:  cpu time      1.9364: real time      1.9446
    SETDIJ:  cpu time      1.3860: real time      1.3868
    EDDIAG:  cpu time     53.6748: real time     53.7022
     EDDAV:  cpu time    235.9714: real time    236.1121
       DOS:  cpu time      0.0027: real time      0.0027
    CHARGE:  cpu time     30.2506: real time     30.2789
    MIXING:  cpu time      0.0420: real time      0.0420
    --------------------------------------------
      LOOP:  cpu time    323.2637: real time    323.4693

 eigenvalue-minimisations  :  2816
 total energy-change (2. order) : 0.4836981E+02  (-0.7294214E+00)
 number of electron     271.9999999 magnetization 
 augmentation part      -15.4445186 magnetization 

 Broyden mixing:
  rms(total) = 0.64986E+00    rms(broyden)= 0.13882E+02
  rms(prec ) = 0.66580E+00
  weight for this iteration     100.00
  WARNING: grid for Broyden might be to small

 eigenvalues of (default mixing * dielectric matrix)
  average eigenvalue GAMMA=   0.6346
  0.6346

 Free energy of the ion-electron system (eV)
  ---------------------------------------------------
  alpha Z        PSCENC =        28.38685540
  Ewald energy   TEWEN  =     32528.12823971
  -Hartree energ DENC   =    -38505.09373189
  -exchange      EXHF   =         0.00000000
  -V(xc)+E(xc)   XCENC  =      -322.51430163
  PAW double counting   =     27628.17025890   -26959.59778095
  entropy T*S    EENTRO =        -0.16440549
  eigenvalues    EBANDS =     -1973.46186865
  atomic energy  EATOM  =      6955.43144537
  Solvation  Ediel_sol  =         0.00000000
  ---------------------------------------------------
  free energy    TOTEN  =      -620.71528922 eV

  energy without entropy =     -620.55088373  energy(sigma->0) =     -620.63308647


--------------------------------------------------------------------------------------------------------




--------------------------------------- Iteration      1(   3)  ---------------------------------------


    POTLOK:  cpu time      1.9302: real time      1.9445
    SETDIJ:  cpu time      1.3907: real time      1.3914
    EDDIAG:  cpu time     53.6791: real time     53.7048
     EDDAV:  cpu time    235.8526: real time    235.9928
       DOS:  cpu time      0.0029: real time      0.0029
    CHARGE:  cpu time     30.3405: real time     30.3659
    MIXING:  cpu time      0.0379: real time      0.0379
    --------------------------------------------
      LOOP:  cpu time    323.2339: real time    323.4402

 eigenvalue-minimisations  :  2816
 total energy-change (2. order) :-0.2313793E+01  (-0.5968424E+00)
 number of electron     271.9999999 magnetization 
 augmentation part      -15.3936653 magnetization 

 Broyden mixing:
  rms(total) = 0.28255E+00    rms(broyden)= 0.19435E+02
  rms(prec ) = 0.34508E+00
  weight for this iteration     100.00
  WARNING: grid for Broyden might be to small

 eigenvalues of (default mixing * dielectric matrix)
  average eigenvalue GAMMA=   0.7635
  0.9011  0.6260

 Free energy of the ion-electron system (eV)
  ---------------------------------------------------
  alpha Z        PSCENC =        28.38685540
  Ewald energy   TEWEN  =     32528.12823971
  -Hartree energ DENC   =    -38503.54984251
  -exchange      EXHF   =         0.00000000
  -V(xc)+E(xc)   XCENC  =      -324.77763115
  PAW double counting   =     32711.90730416   -32043.46585435
  entropy T*S    EENTRO =        -0.16746398
  eigenvalues    EBANDS =     -1974.92213508
  atomic energy  EATOM  =      6955.43144537
  Solvation  Ediel_sol  =         0.00000000
  ---------------------------------------------------
  free energy    TOTEN  =      -623.02908242 eV

  energy without entropy =     -622.86161844  energy(sigma->0) =     -622.94535043


--------------------------------------------------------------------------------------------------------




--------------------------------------- Iteration      1(   4)  ---------------------------------------


    POTLOK:  cpu time      1.9285: real time      1.9445
    SETDIJ:  cpu time      1.3853: real time      1.3863
    EDDIAG:  cpu time     53.6596: real time     53.6870
     EDDAV:  cpu time    242.8224: real time    242.9651
       DOS:  cpu time      0.0036: real time      0.0036
    CHARGE:  cpu time     30.3342: real time     30.3648
    MIXING:  cpu time      0.0384: real time      0.0384
    --------------------------------------------
      LOOP:  cpu time    330.1719: real time    330.3896

 eigenvalue-minimisations  :  2960
 total energy-change (2. order) : 0.2591904E+00  (-0.6412302E-01)
 number of electron     271.9999999 magnetization 
 augmentation part      -15.3875001 magnetization 

 Broyden mixing:
  rms(total) = 0.47105E-01    rms(broyden)= 0.21116E+01
  rms(prec ) = 0.60658E-01
  weight for this iteration     100.00
  WARNING: grid for Broyden might be to small

 eigenvalues of (default mixing * dielectric matrix)
  average eigenvalue GAMMA=   1.1037
  1.9804  0.7126  0.6181

 Free energy of the ion-electron system (eV)
  ---------------------------------------------------
  alpha Z        PSCENC =        28.38685540
  Ewald energy   TEWEN  =     32528.12823971
  -Hartree energ DENC   =    -38503.14841728
  -exchange      EXHF   =         0.00000000
  -V(xc)+E(xc)   XCENC  =      -325.26994595
  PAW double counting   =     36955.27800560   -36286.90460300
  entropy T*S    EENTRO =        -0.16577304
  eigenvalues    EBANDS =     -1974.50569884
  atomic energy  EATOM  =      6955.43144537
  Solvation  Ediel_sol  =         0.00000000
  ---------------------------------------------------
  free energy    TOTEN  =      -622.76989203 eV

  energy without entropy =     -622.60411899  energy(sigma->0) =     -622.68700551


--------------------------------------------------------------------------------------------------------




--------------------------------------- Iteration      1(   5)  ---------------------------------------


    POTLOK:  cpu time      1.9266: real time      1.9438
    SETDIJ:  cpu time      1.3880: real time      1.3888
    EDDIAG:  cpu time     53.6745: real time     53.7040
     EDDAV:  cpu time    265.4096: real time    265.5710
       DOS:  cpu time      0.0030: real time      0.0030
    CHARGE:  cpu time     30.3414: real time     30.3694
    MIXING:  cpu time      0.0386: real time      0.0386
    --------------------------------------------
      LOOP:  cpu time    352.7817: real time    353.0186

 eigenvalue-minimisations  :  3448
 total energy-change (2. order) :-0.2963779E-01  (-0.7157305E-02)
 number of electron     271.9999999 magnetization 
 augmentation part      -15.3887844 magnetization 

 Broyden mixing:
  rms(total) = 0.37703E-01    rms(broyden)= 0.33250E+00
  rms(prec ) = 0.51472E-01
  weight for this iteration     100.00
  WARNING: grid for Broyden might be to small

 eigenvalues of (default mixing * dielectric matrix)
  average eigenvalue GAMMA=   1.0841
  2.4680  0.7575  0.6218  0.4891

 Free energy of the ion-electron system (eV)
  ---------------------------------------------------
  alpha Z        PSCENC =        28.38685540
  Ewald energy   TEWEN  =     32528.12823971
  -Hartree energ DENC   =    -38503.50991429
  -exchange      EXHF   =         0.00000000
  -V(xc)+E(xc)   XCENC  =      -326.07638188
  PAW double counting   =     36603.19744449   -35934.80073862
  entropy T*S    EENTRO =        -0.16705726
  eigenvalues    EBANDS =     -1973.38942274
  atomic energy  EATOM  =      6955.43144537
  Solvation  Ediel_sol  =         0.00000000
  ---------------------------------------------------
  free energy    TOTEN  =      -622.79952982 eV

  energy without entropy =     -622.63247256  energy(sigma->0) =     -622.71600119


--------------------------------------------------------------------------------------------------------




--------------------------------------- Iteration      1(   6)  ---------------------------------------


    POTLOK:  cpu time      1.9216: real time      1.9433
    SETDIJ:  cpu time      1.3824: real time      1.3831
    EDDIAG:  cpu time     53.6715: real time     53.7019
     EDDAV:  cpu time    253.4352: real time    253.5843
       DOS:  cpu time      0.0033: real time      0.0033
    CHARGE:  cpu time     30.3598: real time     30.3886
    MIXING:  cpu time      0.0391: real time      0.0391
    --------------------------------------------
      LOOP:  cpu time    340.8128: real time    341.0436

 eigenvalue-minimisations  :  3192
 total energy-change (2. order) : 0.5140852E-03  (-0.2151693E-02)
 number of electron     271.9999999 magnetization 
 augmentation part      -15.3893732 magnetization 

 Broyden mixing:
  rms(total) = 0.22566E-01    rms(broyden)= 0.21847E+00
  rms(prec ) = 0.24242E-01
  weight for this iteration     100.00
  WARNING: grid for Broyden might be to small

 eigenvalues of (default mixing * dielectric matrix)
  average eigenvalue GAMMA=   1.0502
  2.5981  0.9295  0.6577  0.6278  0.4378

 Free energy of the ion-electron system (eV)
  ---------------------------------------------------
  alpha Z        PSCENC =        28.38685540
  Ewald energy   TEWEN  =     32528.12823971
  -Hartree energ DENC   =    -38503.35539575
  -exchange      EXHF   =         0.00000000
  -V(xc)+E(xc)   XCENC  =      -326.25107675
  PAW double counting   =     36531.44466546   -35863.03976335
  entropy T*S    EENTRO =        -0.16615709
  eigenvalues    EBANDS =     -1973.37782873
  atomic energy  EATOM  =      6955.43144537
  Solvation  Ediel_sol  =         0.00000000
  ---------------------------------------------------
  free energy    TOTEN  =      -622.79901573 eV

  energy without entropy =     -622.63285865  energy(sigma->0) =     -622.71593719


--------------------------------------------------------------------------------------------------------




--------------------------------------- Iteration      1(   7)  ---------------------------------------


    POTLOK:  cpu time      1.9214: real time      1.9400
    SETDIJ:  cpu time      1.3873: real time      1.3880
    EDDIAG:  cpu time     53.7116: real time     53.7411
     EDDAV:  cpu time    241.9093: real time    242.0483
       DOS:  cpu time      0.0028: real time      0.0028
    CHARGE:  cpu time     30.3502: real time     30.3788
    MIXING:  cpu time      0.0395: real time      0.0395
    --------------------------------------------
      LOOP:  cpu time    329.3221: real time    329.5385

 eigenvalue-minimisations  :  2944
 total energy-change (2. order) :-0.9295226E-03  (-0.1060587E-02)
 number of electron     271.9999999 magnetization 
 augmentation part      -15.3868913 magnetization 

 Broyden mixing:
  rms(total) = 0.85149E-02    rms(broyden)= 0.10820E+00
  rms(prec ) = 0.95987E-02
  weight for this iteration     100.00
  WARNING: grid for Broyden might be to small

 eigenvalues of (default mixing * dielectric matrix)
  average eigenvalue GAMMA=   1.0697
  2.5783  1.3047  0.8287  0.6430  0.6312  0.4320

 Free energy of the ion-electron system (eV)
  ---------------------------------------------------
  alpha Z        PSCENC =        28.38685540
  Ewald energy   TEWEN  =     32528.12823971
  -Hartree energ DENC   =    -38502.99028099
  -exchange      EXHF   =         0.00000000
  -V(xc)+E(xc)   XCENC  =      -326.07287695
  PAW double counting   =     36508.06417112   -35839.64754524
  entropy T*S    EENTRO =        -0.16668437
  eigenvalues    EBANDS =     -1973.93326931
  atomic energy  EATOM  =      6955.43144537
  Solvation  Ediel_sol  =         0.00000000
  ---------------------------------------------------
  free energy    TOTEN  =      -622.79994526 eV

  energy without entropy =     -622.63326089  energy(sigma->0) =     -622.71660307


--------------------------------------------------------------------------------------------------------




--------------------------------------- Iteration      1(   8)  ---------------------------------------


    POTLOK:  cpu time      1.9304: real time      1.9479
    SETDIJ:  cpu time      1.3886: real time      1.3897
    EDDIAG:  cpu time     53.6953: real time     53.7261
     EDDAV:  cpu time    250.1290: real time    250.2752
       DOS:  cpu time      0.0036: real time      0.0036
    CHARGE:  cpu time     30.3490: real time     30.3781
    MIXING:  cpu time      0.0400: real time      0.0400
    --------------------------------------------
      LOOP:  cpu time    337.5359: real time    337.7605

 eigenvalue-minimisations  :  3120
 total energy-change (2. order) :-0.4101665E-03  (-0.1953770E-03)
 number of electron     271.9999999 magnetization 
 augmentation part      -15.3866277 magnetization 

 Broyden mixing:
  rms(total) = 0.34147E-02    rms(broyden)= 0.52516E-01
  rms(prec ) = 0.46547E-02
  weight for this iteration     100.00
  WARNING: grid for Broyden might be to small

 eigenvalues of (default mixing * dielectric matrix)
  average eigenvalue GAMMA=   1.1220
  2.5872  1.8523  0.9418  0.4298  0.7562  0.6654  0.6213

 Free energy of the ion-electron system (eV)
  ---------------------------------------------------
  alpha Z        PSCENC =        28.38685540
  Ewald energy   TEWEN  =     32528.12823971
  -Hartree energ DENC   =    -38502.46089918
  -exchange      EXHF   =         0.00000000
  -V(xc)+E(xc)   XCENC  =      -326.02776297
  PAW double counting   =     36542.78545747   -35874.36303090
  entropy T*S    EENTRO =        -0.16646269
  eigenvalues    EBANDS =     -1974.51419763
  atomic energy  EATOM  =      6955.43144537
  Solvation  Ediel_sol  =         0.00000000
  ---------------------------------------------------
  free energy    TOTEN  =      -622.80035542 eV

  energy without entropy =     -622.63389274  energy(sigma->0) =     -622.71712408


--------------------------------------------------------------------------------------------------------




--------------------------------------- Iteration      1(   9)  ---------------------------------------


    POTLOK:  cpu time      1.9210: real time      1.9415
    SETDIJ:  cpu time      1.3926: real time      1.3934
    EDDIAG:  cpu time     53.6912: real time     53.7253
     EDDAV:  cpu time    245.2325: real time    245.3806
       DOS:  cpu time      0.0038: real time      0.0038
    CHARGE:  cpu time     30.3163: real time     30.3454
    MIXING:  cpu time      0.0411: real time      0.0411
    --------------------------------------------
      LOOP:  cpu time    332.5987: real time    332.8313

 eigenvalue-minimisations  :  3016
 total energy-change (2. order) :-0.5360503E-04  (-0.5813987E-04)
 number of electron     271.9999999 magnetization 
 augmentation part      -15.3868368 magnetization 

 Broyden mixing:
  rms(total) = 0.18337E-02    rms(broyden)= 0.27470E-01
  rms(prec ) = 0.22819E-02
  weight for this iteration     100.00
  WARNING: grid for Broyden might be to small

 eigenvalues of (default mixing * dielectric matrix)
  average eigenvalue GAMMA=   1.2072
  2.9206  2.5732  1.0649  0.8552  0.6465  0.6341  0.4289  0.5340

 Free energy of the ion-electron system (eV)
  ---------------------------------------------------
  alpha Z        PSCENC =        28.38685540
  Ewald energy   TEWEN  =     32528.12823971
  -Hartree energ DENC   =    -38502.17751585
  -exchange      EXHF   =         0.00000000
  -V(xc)+E(xc)   XCENC  =      -326.05625266
  PAW double counting   =     36550.54502131   -35882.12146011
  entropy T*S    EENTRO =        -0.16659259
  eigenvalues    EBANDS =     -1974.77014962
  atomic energy  EATOM  =      6955.43144537
  Solvation  Ediel_sol  =         0.00000000
  ---------------------------------------------------
  free energy    TOTEN  =      -622.80040903 eV

  energy without entropy =     -622.63381644  energy(sigma->0) =     -622.71711274


--------------------------------------------------------------------------------------------------------




--------------------------------------- Iteration      1(  10)  ---------------------------------------


    POTLOK:  cpu time      1.9230: real time      1.9421
    SETDIJ:  cpu time      1.3812: real time      1.3822
    EDDIAG:  cpu time     53.6627: real time     53.6942
     EDDAV:  cpu time    242.1463: real time    242.2868
       DOS:  cpu time      0.0037: real time      0.0037
    CHARGE:  cpu time     30.3434: real time     30.3716
    MIXING:  cpu time      0.0419: real time      0.0419
    --------------------------------------------
      LOOP:  cpu time    329.5022: real time    329.7223

 eigenvalue-minimisations  :  2952
 total energy-change (2. order) :-0.1127580E-03  (-0.5134803E-04)
 number of electron     271.9999999 magnetization 
 augmentation part      -15.3869938 magnetization 

 Broyden mixing:
  rms(total) = 0.98924E-03    rms(broyden)= 0.25243E-01
  rms(prec ) = 0.13970E-02
  weight for this iteration     100.00
  WARNING: grid for Broyden might be to small

 eigenvalues of (default mixing * dielectric matrix)
  average eigenvalue GAMMA=   1.2993
  3.7527  2.6059  1.3078  0.9475  0.8377  0.4285  0.6503  0.6304  0.5326

 Free energy of the ion-electron system (eV)
  ---------------------------------------------------
  alpha Z        PSCENC =        28.38685540
  Ewald energy   TEWEN  =     32528.12823971
  -Hartree energ DENC   =    -38501.78373912
  -exchange      EXHF   =         0.00000000
  -V(xc)+E(xc)   XCENC  =      -326.07114227
  PAW double counting   =     36544.55268811   -35876.12787604
  entropy T*S    EENTRO =        -0.16658001
  eigenvalues    EBANDS =     -1975.15041294
  atomic energy  EATOM  =      6955.43144537
  Solvation  Ediel_sol  =         0.00000000
  ---------------------------------------------------
  free energy    TOTEN  =      -622.80052179 eV

  energy without entropy =     -622.63394177  energy(sigma->0) =     -622.71723178


--------------------------------------------------------------------------------------------------------




--------------------------------------- Iteration      1(  11)  ---------------------------------------


    POTLOK:  cpu time      1.9449: real time      1.9463
    SETDIJ:  cpu time      1.3828: real time      1.3837
    EDDIAG:  cpu time     53.6868: real time     53.7176
     EDDAV:  cpu time    241.8810: real time    242.0238
       DOS:  cpu time      0.0126: real time      0.0128
    CHARGE:  cpu time     30.3208: real time     30.3499
    MIXING:  cpu time      0.0559: real time      0.0566
    --------------------------------------------
      LOOP:  cpu time    329.2848: real time    329.4907

 eigenvalue-minimisations  :  2944
 total energy-change (2. order) :-0.2441533E-03  (-0.3873429E-04)
 number of electron     271.9999999 magnetization 
 augmentation part      -15.3871185 magnetization 

 Broyden mixing:
  rms(total) = 0.54402E-03    rms(broyden)= 0.17655E-01
  rms(prec ) = 0.89743E-03
  weight for this iteration     100.00
  WARNING: grid for Broyden might be to small

 eigenvalues of (default mixing * dielectric matrix)
  average eigenvalue GAMMA=   1.5524
  5.7631  2.6134  2.2073  1.0809  0.8855  0.4283  0.7239  0.6353  0.6353  0.5505

 Free energy of the ion-electron system (eV)
  ---------------------------------------------------
  alpha Z        PSCENC =        28.38685540
  Ewald energy   TEWEN  =     32528.12823971
  -Hartree energ DENC   =    -38501.38703546
  -exchange      EXHF   =         0.00000000
  -V(xc)+E(xc)   XCENC  =      -326.08024648
  PAW double counting   =     36543.10653903   -35874.68107014
  entropy T*S    EENTRO =        -0.16657091
  eigenvalues    EBANDS =     -1975.53892246
  atomic energy  EATOM  =      6955.43144537
  Solvation  Ediel_sol  =         0.00000000
  ---------------------------------------------------
  free energy    TOTEN  =      -622.80076594 eV

  energy without entropy =     -622.63419503  energy(sigma->0) =     -622.71748049


--------------------------------------------------------------------------------------------------------




--------------------------------------- Iteration      1(  12)  ---------------------------------------


    POTLOK:  cpu time      1.9608: real time      1.9626
    SETDIJ:  cpu time      1.3882: real time      1.3900
    EDDIAG:  cpu time     53.6695: real time     53.6961
     EDDAV:  cpu time    241.8817: real time    242.0254
       DOS:  cpu time      0.0117: real time      0.0117
    CHARGE:  cpu time     30.3339: real time     30.3636
    MIXING:  cpu time      0.0572: real time      0.0576
    --------------------------------------------
      LOOP:  cpu time    329.3034: real time    329.5074

 eigenvalue-minimisations  :  2944
 total energy-change (2. order) :-0.2360684E-03  (-0.2782736E-04)
 number of electron     271.9999999 magnetization 
 augmentation part      -15.3872174 magnetization 

 Broyden mixing:
  rms(total) = 0.37110E-03    rms(broyden)= 0.12725E-01
  rms(prec ) = 0.65066E-03
  weight for this iteration     100.00
  WARNING: grid for Broyden might be to small

 eigenvalues of (default mixing * dielectric matrix)
  average eigenvalue GAMMA=   1.7281
  7.9489  2.6007  2.6007  1.0575  1.0575  0.8408  0.4282  0.6760  0.6245  0.6245
  0.5496

 Free energy of the ion-electron system (eV)
  ---------------------------------------------------
  alpha Z        PSCENC =        28.38685540
  Ewald energy   TEWEN  =     32528.12823971
  -Hartree energ DENC   =    -38501.10897483
  -exchange      EXHF   =         0.00000000
  -V(xc)+E(xc)   XCENC  =      -326.08860105
  PAW double counting   =     36543.77932158   -35875.35398127
  entropy T*S    EENTRO =        -0.16658457
  eigenvalues    EBANDS =     -1975.80872235
  atomic energy  EATOM  =      6955.43144537
  Solvation  Ediel_sol  =         0.00000000
  ---------------------------------------------------
  free energy    TOTEN  =      -622.80100201 eV

  energy without entropy =     -622.63441744  energy(sigma->0) =     -622.71770973


--------------------------------------------------------------------------------------------------------




--------------------------------------- Iteration      1(  13)  ---------------------------------------


    POTLOK:  cpu time      1.9293: real time      1.9468
    SETDIJ:  cpu time      1.4060: real time      1.4071
    EDDIAG:  cpu time     53.6579: real time     53.6829
     EDDAV:  cpu time    242.0957: real time    242.2393
       DOS:  cpu time      0.0052: real time      0.0052
    CHARGE:  cpu time     30.4112: real time     30.4378
    MIXING:  cpu time      0.0440: real time      0.0440
    --------------------------------------------
      LOOP:  cpu time    329.5489: real time    329.7627

 eigenvalue-minimisations  :  2944
 total energy-change (2. order) :-0.2524093E-03  (-0.3828082E-04)
 number of electron     271.9999999 magnetization 
 augmentation part      -15.3873064 magnetization 

 Broyden mixing:
  rms(total) = 0.23587E-03    rms(broyden)= 0.97899E-02
  rms(prec ) = 0.42994E-03
  weight for this iteration     100.00
  WARNING: grid for Broyden might be to small

 eigenvalues of (default mixing * dielectric matrix)
  average eigenvalue GAMMA=   1.8204
  9.3262  2.7179  2.7179  1.4618  1.0892  0.9137  0.4283  0.7538  0.5482  0.6380
  0.6380  0.6118

 Free energy of the ion-electron system (eV)
  ---------------------------------------------------
  alpha Z        PSCENC =        28.38685540
  Ewald energy   TEWEN  =     32528.12823971
  -Hartree energ DENC   =    -38500.78577472
  -exchange      EXHF   =         0.00000000
  -V(xc)+E(xc)   XCENC  =      -326.09601874
  PAW double counting   =     36543.70859206   -35875.28369576
  entropy T*S    EENTRO =        -0.16658375
  eigenvalues    EBANDS =     -1976.12431397
  atomic energy  EATOM  =      6955.43144537
  Solvation  Ediel_sol  =         0.00000000
  ---------------------------------------------------
  free energy    TOTEN  =      -622.80125442 eV

  energy without entropy =     -622.63467066  energy(sigma->0) =     -622.71796254


--------------------------------------------------------------------------------------------------------




--------------------------------------- Iteration      1(  14)  ---------------------------------------


    POTLOK:  cpu time      1.9119: real time      1.9391
    SETDIJ:  cpu time      1.3863: real time      1.3874
    EDDIAG:  cpu time     53.6631: real time     53.6921
     EDDAV:  cpu time    243.7353: real time    243.8859
       DOS:  cpu time      0.0030: real time      0.0030
    CHARGE:  cpu time     30.3452: real time     30.3721
    MIXING:  cpu time      0.0467: real time      0.0467
    --------------------------------------------
      LOOP:  cpu time    331.0914: real time    331.3263

 eigenvalue-minimisations  :  2976
 total energy-change (2. order) :-0.2185778E-03  (-0.2644761E-04)
 number of electron     271.9999999 magnetization 
 augmentation part      -15.3873792 magnetization 

 Broyden mixing:
  rms(total) = 0.17739E-03    rms(broyden)= 0.65892E-02
  rms(prec ) = 0.28324E-03
  weight for this iteration     100.00
  WARNING: grid for Broyden might be to small

 eigenvalues of (default mixing * dielectric matrix)
  average eigenvalue GAMMA=   1.8142
  9.7463  2.7820  2.7820  1.6808  1.0993  1.0220  0.9040  0.4282  0.7290  0.5624
  0.6298  0.6298  0.5890

 Free energy of the ion-electron system (eV)
  ---------------------------------------------------
  alpha Z        PSCENC =        28.38685540
  Ewald energy   TEWEN  =     32528.12823971
  -Hartree energ DENC   =    -38500.50272197
  -exchange      EXHF   =         0.00000000
  -V(xc)+E(xc)   XCENC  =      -326.10095643
  PAW double counting   =     36543.42346246   -35874.99894132
  entropy T*S    EENTRO =        -0.16658263
  eigenvalues    EBANDS =     -1976.40227359
  atomic energy  EATOM  =      6955.43144537
  Solvation  Ediel_sol  =         0.00000000
  ---------------------------------------------------
  free energy    TOTEN  =      -622.80147300 eV

  energy without entropy =     -622.63489037  energy(sigma->0) =     -622.71818168


--------------------------------------------------------------------------------------------------------




--------------------------------------- Iteration      1(  15)  ---------------------------------------


    POTLOK:  cpu time      1.9253: real time      1.9429
    SETDIJ:  cpu time      1.3903: real time      1.3910
    EDDIAG:  cpu time     53.6929: real time     53.7218
     EDDAV:  cpu time    243.7397: real time    243.8871
       DOS:  cpu time      0.0038: real time      0.0038
    CHARGE:  cpu time     30.4014: real time     30.4311
    MIXING:  cpu time      0.0456: real time      0.0456
    --------------------------------------------
      LOOP:  cpu time    331.1991: real time    331.4234

 eigenvalue-minimisations  :  2976
 total energy-change (2. order) :-0.9444049E-04  (-0.7711077E-05)
 number of electron     271.9999999 magnetization 
 augmentation part      -15.3874069 magnetization 

 Broyden mixing:
  rms(total) = 0.11666E-03    rms(broyden)= 0.44179E-02
  rms(prec ) = 0.18192E-03
  weight for this iteration     100.00
  WARNING: grid for Broyden might be to small

 eigenvalues of (default mixing * dielectric matrix)
  average eigenvalue GAMMA=   1.7982
  9.9168  2.9479  2.7362  1.9843  1.3256  1.0345  0.8742  0.8423  0.4282  0.6808
  0.6493  0.6182  0.5681  0.5681

 Free energy of the ion-electron system (eV)
  ---------------------------------------------------
  alpha Z        PSCENC =        28.38685540
  Ewald energy   TEWEN  =     32528.12823971
  -Hartree energ DENC   =    -38500.36290244
  -exchange      EXHF   =         0.00000000
  -V(xc)+E(xc)   XCENC  =      -326.10195218
  PAW double counting   =     36543.71076942   -35875.28642104
  entropy T*S    EENTRO =        -0.16658302
  eigenvalues    EBANDS =     -1976.54101864
  atomic energy  EATOM  =      6955.43144537
  Solvation  Ediel_sol  =         0.00000000
  ---------------------------------------------------
  free energy    TOTEN  =      -622.80156744 eV

  energy without entropy =     -622.63498441  energy(sigma->0) =     -622.71827593


--------------------------------------------------------------------------------------------------------




--------------------------------------- Iteration      1(  16)  ---------------------------------------


    POTLOK:  cpu time      1.9409: real time      1.9423
    SETDIJ:  cpu time      1.3893: real time      1.3905
    EDDIAG:  cpu time     53.6925: real time     53.7215
     EDDAV:  cpu time    239.9778: real time    240.1247
       DOS:  cpu time      0.0031: real time      0.0031
    CHARGE:  cpu time     30.3441: real time     30.3719
    MIXING:  cpu time      0.0460: real time      0.0461
    --------------------------------------------
      LOOP:  cpu time    327.3937: real time    327.5999

 eigenvalue-minimisations  :  2896
 total energy-change (2. order) :-0.5077890E-04  (-0.4145832E-05)
 number of electron     271.9999999 magnetization 
 augmentation part      -15.3874255 magnetization 

 Broyden mixing:
  rms(total) = 0.78900E-04    rms(broyden)= 0.29213E-02
  rms(prec ) = 0.11907E-03
  weight for this iteration     100.00
  WARNING: grid for Broyden might be to small

 eigenvalues of (default mixing * dielectric matrix)
  average eigenvalue GAMMA=   1.7751
  9.9867  3.1065  2.7205  2.2428  1.4624  1.0364  1.0364  0.8522  0.4282  0.7415
  0.6487  0.6153  0.6153  0.5666  0.5666

 Free energy of the ion-electron system (eV)
  ---------------------------------------------------
  alpha Z        PSCENC =        28.38685540
  Ewald energy   TEWEN  =     32528.12823971
  -Hartree energ DENC   =    -38500.26618925
  -exchange      EXHF   =         0.00000000
  -V(xc)+E(xc)   XCENC  =      -326.10251407
  PAW double counting   =     36543.98652840   -35875.56224020
  entropy T*S    EENTRO =        -0.16658768
  eigenvalues    EBANDS =     -1976.63715589
  atomic energy  EATOM  =      6955.43144537
  Solvation  Ediel_sol  =         0.00000000
  ---------------------------------------------------
  free energy    TOTEN  =      -622.80161822 eV

  energy without entropy =     -622.63503054  energy(sigma->0) =     -622.71832438


--------------------------------------------------------------------------------------------------------




--------------------------------------- Iteration      1(  17)  ---------------------------------------


    POTLOK:  cpu time      1.9284: real time      1.9412
    SETDIJ:  cpu time      1.3872: real time      1.3878
    EDDIAG:  cpu time     53.6606: real time     53.6916
     EDDAV:  cpu time    238.9886: real time    239.1312
       DOS:  cpu time      0.0042: real time      0.0042
    CHARGE:  cpu time     30.3093: real time     30.3391
    MIXING:  cpu time      0.0471: real time      0.0472
    --------------------------------------------
      LOOP:  cpu time    326.3254: real time    326.5422

 eigenvalue-minimisations  :  2880
 total energy-change (2. order) :-0.1463537E-04  (-0.9466031E-06)
 number of electron     271.9999999 magnetization 
 augmentation part      -15.3874343 magnetization 

 Broyden mixing:
  rms(total) = 0.54250E-04    rms(broyden)= 0.21730E-02
  rms(prec ) = 0.82276E-04
  weight for this iteration     100.00
  WARNING: grid for Broyden might be to small

 eigenvalues of (default mixing * dielectric matrix)
  average eigenvalue GAMMA=   1.7453
 10.0162  3.2344  2.7163  2.3998  1.5456  1.1700  0.9780  0.9780  0.8223  0.4282
  0.6814  0.6477  0.6282  0.5677  0.5677  0.5426

 Free energy of the ion-electron system (eV)
  ---------------------------------------------------
  alpha Z        PSCENC =        28.38685540
  Ewald energy   TEWEN  =     32528.12823971
  -Hartree energ DENC   =    -38500.23110098
  -exchange      EXHF   =         0.00000000
  -V(xc)+E(xc)   XCENC  =      -326.10285992
  PAW double counting   =     36543.80836589   -35875.38405651
  entropy T*S    EENTRO =        -0.16658522
  eigenvalues    EBANDS =     -1976.67193658
  atomic energy  EATOM  =      6955.43144537
  Solvation  Ediel_sol  =         0.00000000
  ---------------------------------------------------
  free energy    TOTEN  =      -622.80163285 eV

[...]
   -.275E+02 0.372E+01 -.196E+03   0.265E+02 -.428E+01 0.195E+03   0.144E+01 0.885E+00 -.280E+00   -.197E-04 -.818E-04 0.284E-04
   0.665E+01 -.157E+02 0.264E+03   -.724E+01 0.165E+02 -.267E+03   0.165E+01 -.854E+00 0.142E+01   0.962E-04 0.812E-04 -.922E-04
   -.254E+02 0.273E+01 0.225E+03   0.256E+02 -.304E+01 -.230E+03   -.154E+00 0.378E+00 0.459E+01   0.917E-05 0.225E-06 -.893E-04
   0.991E+01 -.134E+02 -.256E+03   -.102E+02 0.117E+02 0.262E+03   0.198E+00 0.238E+01 -.514E+01   0.260E-05 -.545E-05 0.806E-04
   -.256E+02 -.705E+01 0.197E+02   0.253E+02 0.834E+01 -.193E+02   -.443E-01 -.156E+01 -.289E+00   0.654E-05 0.183E-04 0.385E-04
   -.704E+01 -.946E+01 0.463E+02   0.569E+01 0.827E+01 -.473E+02   0.207E+01 0.191E+01 0.763E+00   -.835E-04 -.252E-04 -.161E-04
   0.300E+01 0.740E+01 0.125E+03   -.360E+01 -.654E+01 -.126E+03   0.913E+00 -.117E+01 0.125E+01   -.441E-04 -.763E-04 0.396E-04
   0.273E+02 0.104E+01 0.282E+03   -.296E+02 -.225E+01 -.283E+03   0.126E+01 0.525E+00 0.895E+00   -.336E-04 -.103E-04 -.357E-04
   -.200E+01 0.430E+01 -.425E+02   0.239E+01 -.628E+01 0.435E+02   0.107E-01 0.235E+01 -.179E+01   0.316E-04 0.335E-04 -.545E-04
   -.187E+02 0.156E+02 0.299E+03   0.202E+02 -.151E+02 -.302E+03   -.155E+01 -.921E+00 0.227E+01   -.345E-04 0.364E-04 -.119E-03
   -.717E+01 -.116E+02 0.252E+03   0.799E+01 0.112E+02 -.248E+03   -.482E+00 0.722E+00 -.356E+01   -.879E-04 0.434E-04 -.358E-04
   0.239E+01 0.575E+01 -.611E+02   -.235E+01 -.683E+01 0.607E+02   -.325E+00 0.162E+01 0.647E+00   0.113E-04 0.915E-04 0.172E-04
   -.340E+02 0.174E+02 0.785E+02   0.319E+02 -.156E+02 -.804E+02   0.343E+01 -.218E+01 0.860E+00   0.256E-05 -.270E-04 0.277E-05
   0.117E+02 0.312E+01 0.578E+01   -.992E+01 -.213E+01 -.738E+01   -.239E+01 -.118E+01 0.257E+01   0.138E-04 0.727E-04 -.230E-04
   0.283E+02 -.162E+02 -.190E+03   -.286E+02 0.154E+02 0.188E+03   0.165E+01 0.940E+00 0.222E+01   0.976E-05 -.398E-04 -.200E-04
   0.360E+02 0.482E+01 -.226E+03   -.353E+02 -.504E+01 0.225E+03   -.628E+00 0.100E+01 0.118E+01   -.687E-05 -.737E-05 0.946E-04
   -.851E+01 0.141E+02 -.258E+03   0.945E+01 -.142E+02 0.261E+03   -.921E+00 -.623E+00 -.281E+01   -.442E-04 0.157E-04 0.815E-04
   0.201E+02 0.229E+02 0.150E+03   -.194E+02 -.229E+02 -.151E+03   -.107E+01 -.767E+00 -.409E+00   0.219E-04 -.217E-05 -.597E-04
   0.238E+02 0.251E+02 0.895E+02   -.241E+02 -.257E+02 -.898E+02   0.885E+00 0.417E-01 -.176E-01   0.277E-04 0.706E-04 -.151E-03
   -.251E+02 -.562E+01 0.251E+03   0.241E+02 0.643E+01 -.253E+03   0.132E+01 -.771E+00 0.166E+01   0.814E-05 -.259E-04 -.503E-04
   0.226E+02 -.149E+02 -.117E+03   -.200E+02 0.166E+02 0.117E+03   -.315E+01 -.137E+01 0.948E+00   -.637E-04 0.125E-04 0.536E-04
   0.708E+00 0.339E+02 -.234E+03   0.528E-01 -.326E+02 0.232E+03   -.927E+00 -.226E+01 0.152E+01   0.717E-06 0.832E-04 0.188E-05
   0.342E+02 0.251E+02 0.270E+03   -.351E+02 -.245E+02 -.274E+03   0.611E+00 -.425E+00 0.395E+01   -.111E-05 0.123E-04 -.110E-03
   0.429E+01 -.200E+02 0.201E+02   -.397E+01 0.199E+02 -.194E+02   -.210E+00 -.676E+00 -.920E+00   0.533E-04 0.311E-04 -.587E-04
   0.126E+02 -.102E+01 -.118E+03   -.105E+02 -.743E+00 0.119E+03   -.259E+01 0.922E+00 -.125E+01   -.292E-04 -.138E-05 0.971E-04
   -.344E+02 0.169E+02 0.236E+03   0.344E+02 -.150E+02 -.233E+03   -.318E+00 -.221E+01 -.482E+01   0.109E-04 0.457E-04 -.198E-04
   -.231E+02 0.745E+01 -.950E+02   0.221E+02 -.654E+01 0.927E+02   0.917E+00 -.865E+00 0.385E+01   0.101E-04 -.493E-04 0.196E-04
   0.164E+02 0.146E+02 0.133E+03   -.164E+02 -.111E+02 -.132E+03   -.454E+00 -.419E+01 -.467E+00   -.714E-04 -.135E-04 -.600E-04
   -.207E+00 0.367E+02 -.266E+03   -.114E+00 -.367E+02 0.265E+03   0.745E+00 -.297E+00 0.123E+01   0.178E-04 0.192E-04 0.260E-05
   -.194E+01 0.155E+02 -.849E+02   -.219E+00 -.152E+02 0.853E+02   0.270E+01 -.110E+00 -.370E+00   -.170E-04 0.866E-05 0.797E-04
   -.147E+02 -.763E+01 -.271E+03   0.135E+02 0.762E+01 0.269E+03   0.197E+01 -.819E+00 0.212E+01   -.157E-04 -.221E-04 0.109E-04
   0.241E+02 0.993E+01 -.189E+03   -.220E+02 -.992E+01 0.187E+03   -.243E+01 -.370E+00 0.219E+01   0.133E-03 0.240E-04 -.571E-04
   -.257E+02 0.615E+01 0.187E+03   0.224E+02 -.522E+01 -.187E+03   0.390E+01 -.201E+00 0.617E+00   0.436E-04 -.425E-04 -.138E-04
   0.138E+02 -.135E+02 0.436E+02   -.141E+02 0.124E+02 -.458E+02   0.766E+00 0.922E+00 0.178E+01   -.846E-04 -.599E-04 -.131E-04
   -.303E+02 -.637E+00 -.156E+03   0.291E+02 -.239E+01 0.156E+03   0.758E+00 0.328E+01 0.566E-01   -.519E-04 0.349E-04 0.558E-04
   0.962E+00 0.137E+00 0.196E+03   -.676E+00 0.164E+01 -.192E+03   -.108E+01 -.711E+00 -.334E+01   -.343E-04 -.800E-04 -.164E-04
   -.143E+02 -.754E+01 0.243E+03   0.149E+02 0.856E+01 -.244E+03   -.145E+01 -.538E+00 0.122E+01   0.774E-04 -.606E-04 -.150E-04
   0.180E+01 0.904E+01 0.278E+03   -.219E+01 -.937E+01 -.279E+03   0.454E+00 0.926E+00 0.103E+01   -.561E-04 -.357E-04 -.510E-04
   0.239E+02 0.107E+02 -.744E+02   -.220E+02 -.995E+01 0.750E+02   -.253E+01 -.126E+01 -.117E+00   0.772E-04 -.171E-03 -.101E-04
   0.159E+02 -.584E+01 0.910E+02   -.145E+02 0.574E+01 -.916E+02   -.166E+01 0.532E-01 0.223E+00   -.139E-03 0.477E-04 -.441E-04
   -.997E+01 -.865E+01 -.147E+03   0.974E+01 0.978E+01 0.146E+03   0.862E+00 -.724E+00 0.229E+01   -.759E-05 -.156E-04 0.757E-04
   0.188E+02 -.171E+02 -.208E+03   -.173E+02 0.166E+02 0.207E+03   -.271E+01 0.157E+01 0.815E+00   -.581E-05 -.494E-04 0.851E-05
   -.865E+01 -.118E+02 0.227E+03   0.837E+01 0.111E+02 -.223E+03   -.819E-01 0.744E+00 -.294E+01   -.537E-04 0.388E-05 -.315E-04
   0.150E+02 0.248E+01 0.167E+03   -.152E+02 -.428E+00 -.165E+03   0.357E+00 -.230E+01 -.341E+01   0.136E-03 0.868E-04 -.132E-03
   0.113E+02 0.191E+02 0.460E+02   -.101E+02 -.187E+02 -.459E+02   -.208E+01 -.934E+00 -.319E+00   -.837E-05 0.596E-04 -.228E-05
   0.102E+02 -.126E+02 -.273E+03   -.996E+01 0.134E+02 0.272E+03   -.119E+01 -.137E+00 0.248E+01   0.361E-04 0.353E-04 -.167E-04
   -.216E+02 -.129E+02 -.183E+03   0.213E+02 0.128E+02 0.182E+03   0.298E-01 0.404E+00 0.150E+01   0.110E-03 0.131E-03 -.417E-05
   0.249E+02 -.282E+02 0.229E+03   -.244E+02 0.269E+02 -.227E+03   0.290E-01 0.133E+01 -.176E+01   -.382E-04 -.741E-04 -.312E-04
   0.984E+01 -.517E+01 -.229E+03   -.102E+02 0.495E+01 0.230E+03   0.264E+00 0.137E+01 -.181E+01   -.391E-04 -.175E-04 0.709E-04
   0.249E+01 -.808E+01 -.184E+03   -.467E+01 0.744E+01 0.182E+03   0.236E+01 -.458E-01 0.155E+01   0.320E-04 0.325E-04 0.125E-04
   -.666E+01 -.301E+01 0.184E+03   0.727E+01 0.428E+01 -.182E+03   -.115E+01 -.188E+01 -.251E+01   0.286E-04 -.837E-04 -.430E-04
   0.741E+01 -.960E+01 -.436E+02   -.802E+01 0.897E+01 0.439E+02   0.796E+00 0.236E+01 0.250E+00   0.164E-04 -.139E-03 -.388E-04
   -.976E+01 -.182E+01 -.112E+03   0.881E+01 0.106E+01 0.113E+03   0.176E+01 -.317E-01 -.306E+00   -.235E-04 -.465E-04 0.783E-04
   0.626E+01 -.222E+01 0.199E+03   -.637E+01 0.112E+01 -.197E+03   -.420E-01 0.237E+01 -.360E+01   -.163E-03 0.119E-03 -.635E-04
   -.126E+02 0.113E+02 0.101E+03   0.143E+02 -.115E+02 -.103E+03   -.245E+01 -.758E-01 0.238E+01   -.260E-04 0.179E-04 0.460E-04
   -.303E+02 0.207E+02 0.879E+02   0.303E+02 -.186E+02 -.892E+02   0.945E+00 -.340E+01 0.139E+01   -.168E-04 -.170E-04 0.279E-04
   0.165E+02 -.111E+02 0.269E+03   -.164E+02 0.116E+02 -.272E+03   -.681E-01 -.318E+00 0.328E+01   -.220E-04 0.868E-04 -.100E-03
   -.606E+01 0.506E+01 -.813E+02   0.575E+01 -.427E+01 0.797E+02   0.972E+00 -.188E+00 0.292E+01   0.571E-04 0.115E-03 -.671E-04
   -.225E+02 0.349E+01 -.235E+03   0.211E+02 -.272E+01 0.234E+03   0.158E+01 -.125E+01 0.152E+01   -.404E-05 -.215E-04 0.328E-04
   0.400E+01 -.142E+02 -.522E+02   -.522E+01 0.145E+02 0.547E+02   0.116E+01 -.491E+00 -.354E+01   0.263E-04 0.336E-04 -.587E-04
   0.822E+01 -.291E+02 -.255E+03   -.800E+01 0.293E+02 0.254E+03   -.462E+00 -.348E-01 0.110E+01   0.527E-04 -.542E-04 0.574E-04
   0.624E+00 -.367E+01 -.275E+03   0.258E+00 0.272E+01 0.273E+03   -.305E+00 0.357E+00 0.163E+01   -.251E-04 -.260E-05 0.584E-04
   -.337E+02 -.747E+01 -.188E+03   0.316E+02 0.624E+01 0.185E+03   0.244E+01 0.231E+00 0.214E+01   -.130E-03 -.141E-04 0.969E-04
 -----------------------------------------------------------------------------------------------
   -.110E+02 0.675E+01 -.255E+02   0.355E-14 0.293E-13 -.568E-13   0.110E+02 -.674E+01 0.255E+02   -.217E-03 0.227E-03 -.527E-03


 POSITION                                       TOTAL-FORCE (eV/Angst)
 -----------------------------------------------------------------------------------
     11.20340      5.90585     12.03835         0.580469     -0.361015     -0.398233
      2.40738      8.33020     11.82080        -0.574535     -0.099637     -0.271278
     13.89720     11.34070     11.57605         0.339729     -0.121760      0.028776
     12.30750     10.06780     12.72165        -0.087339     -0.496227     -1.360599
      9.67027      8.21243     14.56405        -0.782023     -0.182710     -0.007591
     11.61910     13.18800     16.01008         0.011768      1.546563     -0.096548
     11.98220      4.76424     11.31415        -0.118400      0.987161      0.810466
     13.98340      4.20120     12.24297        -0.447703      0.812362      1.084330
     14.35170     11.31610     14.93810         0.323019      0.397339     -0.984799
      0.82194      3.55705     10.63093         1.123632     -0.121182     -1.091332
     12.38930     14.17360     11.05113         0.076830      0.056845      0.838804
     12.10580      4.26751     15.89892        -0.103504      0.771816      0.089388
     10.01620      2.18717     12.94293        -0.405245     -0.360860      0.012879
      6.57437      6.67486     12.66551         0.846334      0.798784     -0.187790
      6.64828     10.28670     11.94571         0.404070     -0.372118      0.246415
      4.08118      6.05965     10.22447        -0.858492     -0.569582     -0.715963
      3.70904      4.76470     13.65938         0.376302      0.530446     -0.894868
      8.14813      0.28303     10.00000        -0.240921     -0.418543      0.038381
      8.51735      4.20458     10.71068         0.348430      0.332002      0.246781
     13.73850      2.34800     13.75731        -0.319843      0.634154      0.373635
      9.86311      7.83549     12.22166         1.451015     -0.461670     -1.045496
      5.50553     14.44080     12.75924        -0.727690     -0.246249      1.094108
      2.18767      8.46249     14.78202         1.555046      0.198455      0.576109
      8.31575      0.68457     15.00874         0.188210      0.836905     -0.356996
      8.08128      4.55127     15.68733        -0.099173     -0.759831      0.149210
      4.30280     12.80020     11.72099        -0.370072     -0.844937     -0.805157
      1.55490     14.36440     12.30576         0.655205     -0.456531     -0.282025
      9.87708     11.46330     10.55566         0.302145     -0.130887     -0.035674
      8.10378      2.90979     13.98671        -0.717118      0.162845      0.797831
      0.90969      3.03491     15.18051        -0.199328     -0.935968     -0.488780
      2.34031     13.16630     10.37601        -0.151366      0.191167      0.894875
     14.30380      6.50378     13.12249         0.107406     -0.818694     -0.306478
     10.64690     11.86600     14.42675        -0.533353     -0.813208     -0.147080
     10.53560      3.13546     10.97431        -0.421987     -0.209066     -1.434332
     12.39440     10.36210     14.12289        -0.039534     -0.021876      1.717007
      5.28565      5.02793     11.86825        -0.500670     -0.856913      1.045062
      4.58529      5.23846     15.72639         0.522387     -0.222613      0.497060
      7.40624     13.59240     13.70358         0.664560      0.212809     -0.055061
      5.83401      7.17820     15.76875         0.785038     -0.943385     -0.230087
      2.63563     13.96180     14.41368        -0.398260     -0.342021     -0.501224
     13.75760      8.09338     11.38778         0.788517      0.815538      0.467690
      5.18884      8.60248     12.77728         0.544981     -0.085827     -0.323496
      7.88131      6.57812     14.64499        -0.422027      0.458286      0.318017
      8.80465      9.56971     11.27455        -0.804514      1.064893      0.522762
     11.67020      8.68201     10.73079        -0.872926      0.364587      0.746558
      5.97188     11.79310     10.34531         0.030154      0.600785      0.577608
      3.53783     11.85560     13.73864        -0.830479     -0.508911      0.502047
      6.84852      3.27339     12.02339        -0.329095     -0.031445     -0.392648
     11.53400      2.40518     14.57337         0.672187      0.345491      1.035033
      4.58757      8.85946     15.07603        -1.355766      1.061373     -0.439838
      8.36424      6.49395     11.06928        -0.341626     -0.013213      0.659929
      2.24947      2.00916     11.66425         0.185654     -0.341433     -1.762434
     13.92950      0.25675     12.87489        -0.898387     -0.591536     -0.163722
      1.20383      5.19274     15.70445        -1.035442      0.507542      1.157026
      4.27421      1.07334     14.32775        -0.491474      0.198202      0.372983
      3.66611      8.16047     11.06303         0.516660      0.025175      0.510481
      8.91791     10.30990     15.24037        -0.018963      1.238473     -0.995596
     12.81860      6.40340     15.01785         0.322837     -0.660942     -0.234644
      0.48088     10.30710     11.62372        -0.754950     -0.706678     -0.640155
      1.59756     10.27590     13.60191         0.205614      1.855720      0.611733
      7.06279     11.35530     14.08806         0.901350     -0.748715      0.363939
      6.33412      1.15604     11.19069        -0.204052      1.417021     -1.676273
      9.14880      0.17251     12.12386        -0.909282     -0.252340      0.480275
     10.65250     13.05300     12.25042         0.915177     -1.497065      0.029273
      4.25923      2.05683     10.32367         0.043152      0.056570      0.240565
      2.67892      2.70965     13.70453         0.734562      0.600869      1.482229
     11.78740      8.46947     15.37189         0.279621     -0.626598      0.066099
      2.00696      6.39153     13.97489        -0.072366     -0.175620     -1.187120
      5.10806     11.12510     15.29937        -0.286438      0.100288     -0.435474
     10.45210      0.74455     15.90570         0.535991     -0.638140     -0.457176
     13.68410     13.65420     14.94062         0.386294     -1.134521     -0.279399
 -----------------------------------------------------------------------------------
    total drift:                                0.001509      0.006462     -0.000549


--------------------------------------------------------------------------------------------------------



  FREE ENERGIE OF THE ION-ELECTRON SYSTEM (eV)
  ---------------------------------------------------
  free  energy   TOTEN  =      -622.80163785 eV

  energy  without entropy=     -622.63505176  energy(sigma->0) =     -622.71834481



--------------------------------------------------------------------------------------------------------


    POTLOK:  cpu time      3.2899: real time      3.3121


--------------------------------------------------------------------------------------------------------


     LOOP+:  cpu time   6746.4560: real time   6751.0596
    4ORBIT:  cpu time      0.0000: real time      0.0000



 total charge

# of ion       s       p       d       tot
------------------------------------------
    1        0.533   0.016   0.000   0.549
    2        0.561   0.019   0.000   0.579
    3        0.545   0.015   0.000   0.559
    4        0.583   0.021   0.000   0.605
    5        0.766   0.907   0.000   1.673
    6        0.802   0.842   0.000   1.644
    7        0.788   0.898   0.000   1.686
    8        0.765   0.950   0.000   1.715
    9        0.807   0.813   0.000   1.620
   10        0.864   0.771   0.000   1.635
   11        0.889   0.674   0.000   1.562
   12        0.873   0.703   0.000   1.576
   13        0.774   0.956   0.000   1.730
   14        0.770   0.927   0.000   1.697
   15        0.768   0.909   0.000   1.677
   16        0.861   0.756   0.000   1.617
   17        0.769   0.917   0.000   1.686
   18        0.881   0.709   0.000   1.590
   19        0.792   0.873   0.000   1.665
   20        0.766   0.916   0.000   1.682
   21        0.781   0.901   0.000   1.683
   22        0.771   0.994   0.000   1.765
   23        0.793   0.893   0.000   1.686
   24        0.792   0.848   0.000   1.640
   25        0.852   0.756   0.000   1.608
   26        0.763   0.932   0.000   1.694
   27        0.771   0.914   0.000   1.684
   28        0.850   0.733   0.000   1.582
   29        0.766   0.912   0.000   1.678
   30        0.794   0.895   0.000   1.689
   31        0.884   0.688   0.000   1.571
   32        0.775   0.845   0.000   1.620
   33        0.765   0.898   0.000   1.664
   34        0.788   0.940   0.000   1.728
   35        0.759   0.981   0.000   1.740
   36        0.766   0.958   0.000   1.724
   37        0.831   0.782   0.000   1.614
   38        0.768   0.926   0.000   1.694
   39        0.799   0.877   0.000   1.676
   40        0.805   0.829   0.000   1.634
   41        0.794   0.827   0.000   1.621
   42        0.773   0.899   0.000   1.672
   43        0.765   0.898   0.000   1.663
   44        0.799   0.867   0.000   1.666
   45        0.845   0.739   0.000   1.584
   46        0.862   0.737   0.000   1.599
   47        0.764   0.897   0.000   1.661
   48        0.757   0.931   0.000   1.689
   49        0.756   0.945   0.000   1.701
   50        0.759   0.943   0.000   1.702
   51        0.795   0.847   0.000   1.642
   52        0.768   0.948   0.000   1.717
   53        0.766   0.934   0.000   1.700
   54        0.841   0.797   0.000   1.638
   55        0.813   0.847   0.000   1.660
   56        0.796   0.896   0.000   1.692
   57        0.811   0.818   0.000   1.629
   58        0.787   0.821   0.000   1.608
   59        0.789   0.837   0.000   1.627
   60        0.757   0.920   0.000   1.677
   61        0.765   0.908   0.000   1.673
   62        0.769   0.971   0.000   1.739
   63        0.779   0.905   0.000   1.684
   64        0.772   0.894   0.000   1.667
   65        0.866   0.700   0.000   1.566
   66        0.774   0.958   0.000   1.732
   67        0.792   0.874   0.000   1.666
   68        0.766   0.945   0.000   1.711
   69        0.806   0.871   0.000   1.677
   70        0.786   0.848   0.000   1.635
   71        0.793   0.812   0.000   1.606
--------------------------------------------------
tot         55.497  58.128   0.000 113.625


 total amount of memory used by VASP MPI-rank0   368719. kBytes
=======================================================================

   base                                    :      30000. kBytes
   nonl-proj                               :      70053. kBytes
   fftplans                                :     100033. kBytes
   grid                                    :      77177. kBytes
   one-center                              :         15. kBytes
   wavefun                                 :      91441. kBytes

  
  
 General timing and accounting informations for this job:
 ========================================================
  
                  Total CPU time used (sec):     6890.925
                            User time (sec):     6079.696
                          System time (sec):      811.228
                         Elapsed time (sec):     6895.609
  
                   Maximum memory used (kb):      620788.
                   Average memory used (kb):          N/A
  
                          Minor page faults:     12635524
                          Major page faults:         1185
                 Voluntary context switches:         2946
