 vasp.6.5.0 16Dec24 (build Jan 20 2025 08:32:48) complex                         
 executed on        HPECrayEX_GCC date 2025.07.22  06:21:44
 running  128 mpi-ranks, with    1 threads/rank, on    1 nodes
 distrk:  each k-point on  128 cores,    1 groups
 distr:  one band on NCORE=  16 cores,    8 groups


--------------------------------------------------------------------------------------------------------


 INCAR:
   SYSTEM = a-Si SPC
   NCORE = 16
   ISTART = 1
   ICHARG = 1
   ISPIN = 1
   ISYM = 1
   EDIFF = 1E-6
   NELM = 150
   EDIFFG = -0.01
   NSW = 0
   ISIF = 2
   IBRION = -1
   PREC = Accurate
   ENCUT = 1200
   KSPACING = 0.23
   KGAMMA = .TRUE.
   METAGGA = SCAN
   LASPH = .TRUE.
   LDIAG = .FALSE.
   LMIXTAU = .TRUE.
   ADDGRID = .TRUE.
   ALGO = Normal
   ISMEAR = 0
   SIGMA = 0.1
   LORBIT = 11
   NEDOS = 2000
   LWAVE = .FALSE.
   LCHARG = .FALSE.

 POTCAR:    PAW_PBE H 15Jun2001                   
 POTCAR:    PAW_PBE Si 05Jan2001                  
 POTCAR:    PAW_PBE H 15Jun2001                   
   SHA256 =  030f79b5d3ab3cf0e668861823c8fb652ff669f3e15e46930bd03bfd63a607b6 H/POTCAR              
   COPYR  = (c) Copyright 15Jun2001 Georg Kresse                                                    
   COPYR  = This file is part of the software VASP. Any use, copying, and all other rights are regul
   COPYR  = If you do not have a valid VASP license, you may not use, copy or distribute this file. 
   VRHFIN =H: ultrasoft test                                                                        
   LEXCH  = PE                                                                                      
   EATOM  =    12.4884 eV,    0.9179 Ry                                                             
                                                                                                    
   TITEL  = PAW_PBE H 15Jun2001                                                                     
   LULTRA =        F    use ultrasoft PP ?                                                          
   IUNSCR =        0    unscreen: 0-lin 1-nonlin 2-no                                               
   RPACOR =    0.000    partial core radius                                                         
   POMASS =    1.000; ZVAL   =    1.000    mass and valenz                                          
   RCORE  =    1.100    outmost cutoff radius                                                       
   RWIGS  =    0.700; RWIGS  =    0.370    wigner-seitz radius (au A)                               
   ENMAX  =  250.000; ENMIN  =  200.000 eV                                                          
   RCLOC  =    0.701    cutoff for local pot                                                        
   LCOR   =        T    correct aug charges                                                         
   LPAW   =        T    paw PP                                                                      
   EAUG   =  400.000                                                                                
   RMAX   =    1.123    core radius for proj-oper                                                   
   RAUG   =    1.200    factor for augmentation sphere                                              
   RDEP   =    1.112    radius for radial grids                                                     
   RDEPT  =    0.926    core radius for aug-charge                                                  
                                                                                                    
   Atomic configuration                                                                             
    2 entries                                                                                       
     n  l   j            E        occ.                                                              
     1  0  0.50        -6.4927   1.0000                                                             
     2  1  0.50        -3.4015   0.0000                                                             
   Description                                                                                      
     l       E           TYP  RCUT    TYP  RCUT                                                     
     0     -6.4927494     23  1.100                                                                 
     0      6.8029130     23  1.100                                                                 
     1     -4.0817478     23  1.100                                                                 
  local pseudopotential read in
  atomic valenz-charges read in
  non local Contribution for L=           0  read in
    real space projection operators read in
  non local Contribution for L=           0  read in
    real space projection operators read in
  non local Contribution for L=           1  read in
    real space projection operators read in
    PAW grid and wavefunctions read in

   number of l-projection  operators is LMAX  =           3
   number of lm-projection operators is LMMAX =           5

 POTCAR:    PAW_PBE Si 05Jan2001                  
   SHA256 =  79d9987ad8750f624c4d6acb2a16d13abf6a777132adc04dc6c8399be72b42bb Si/POTCAR             
   COPYR  = (c) Copyright 05Jan2001 Georg Kresse                                                    
   COPYR  = This file is part of the software VASP. Any use, copying, and all other rights are regul
   COPYR  = If you do not have a valid VASP license, you may not use, copy or distribute this file. 
   VRHFIN =Si: s2p2                                                                                 
   LEXCH  = PE                                                                                      
   EATOM  =   103.0669 eV,    7.5752 Ry                                                             
                                                                                                    
   TITEL  = PAW_PBE Si 05Jan2001                                                                    
   LULTRA =        F    use ultrasoft PP ?                                                          
   IUNSCR =        1    unscreen: 0-lin 1-nonlin 2-no                                               
   RPACOR =    1.500    partial core radius                                                         
   POMASS =   28.085; ZVAL   =    4.000    mass and valenz                                          
   RCORE  =    1.900    outmost cutoff radius                                                       
   RWIGS  =    2.480; RWIGS  =    1.312    wigner-seitz radius (au A)                               
   ENMAX  =  245.345; ENMIN  =  184.009 eV                                                          
   ICORE  =        2    local potential                                                             
   LCOR   =        T    correct aug charges                                                         
   LPAW   =        T    paw PP                                                                      
   EAUG   =  322.069                                                                                
   DEXC   =    0.000                                                                                
   RMAX   =    1.950    core radius for proj-oper                                                   
   RAUG   =    1.300    factor for augmentation sphere                                              
   RDEP   =    1.993    radius for radial grids                                                     
   RDEPT  =    1.837    core radius for aug-charge                                                  
                                                                                                    
   Atomic configuration                                                                             
    6 entries                                                                                       
     n  l   j            E        occ.                                                              
     1  0  0.50     -1785.8828   2.0000                                                             
     2  0  0.50      -139.4969   2.0000                                                             
     2  1  1.50       -95.5546   6.0000                                                             
     3  0  0.50       -10.8127   2.0000                                                             
     3  1  0.50        -4.0811   2.0000                                                             
     3  2  1.50        -4.0817   0.0000                                                             
   Description                                                                                      
     l       E           TYP  RCUT    TYP  RCUT                                                     
     0    -10.8127223     23  1.900                                                                 
     0     -7.6451159     23  1.900                                                                 
     1     -4.0811372     23  1.900                                                                 
     1      2.4879257     23  1.900                                                                 
     2     -4.0817478      7  1.900                                                                 
  local pseudopotential read in
  partial core-charges read in
  partial kinetic energy density read in
  atomic valenz-charges read in
  non local Contribution for L=           0  read in
    real space projection operators read in
  non local Contribution for L=           0  read in
    real space projection operators read in
  non local Contribution for L=           1  read in
    real space projection operators read in
  non local Contribution for L=           1  read in
    real space projection operators read in
    PAW grid and wavefunctions read in

   number of l-projection  operators is LMAX  =           4
   number of lm-projection operators is LMMAX =           8

 -----------------------------------------------------------------------------
|                                                                             |
|               ----> ADVICE to this user running VASP <----                  |
|                                                                             |
|     You have a (more or less) 'large supercell' and for larger cells it     |
|     might be more efficient to use real-space projection operators.         |
|     Therefore, try LREAL= Auto in the INCAR file.                           |
|     Mind: For very accurate calculation, you might also keep the            |
|     reciprocal projection scheme (i.e. LREAL=.FALSE.).                      |
|                                                                             |
 -----------------------------------------------------------------------------

 -----------------------------------------------------------------------------
|                                                                             |
|               ----> ADVICE to this user running VASP <----                  |
|                                                                             |
|     You enforced a specific xc type in the INCAR file but a different       |
|     type was found in the POTCAR file.                                      |
|     I HOPE YOU KNOW WHAT YOU ARE DOING!                                     |
|                                                                             |
 -----------------------------------------------------------------------------

  PAW_PBE H 15Jun2001                   :
 energy of atom  1       EATOM=  -12.4884
 kinetic energy error for atom=    0.0000 (will be added to EATOM!!)
  PAW_PBE Si 05Jan2001                  :
 energy of atom  2       EATOM= -103.0669
 kinetic energy error for atom=    0.0001 (will be added to EATOM!!)


 POSCAR:  H Si
  positions in cartesian coordinates
  No initial velocities read in


 exchange-correlation table for SCAN
   RHO(1)=    0.500       N(1)  =     2000
   RHO(2)=  100.500       N(2)  =     4000



--------------------------------------------------------------------------------------------------------


 ion  position               nearest neighbor table
   1  0.911  0.864  0.617-  37 1.43
   2  0.704  0.620  0.613-  64 1.50
   3  0.897  0.983  0.612-   5 0.77
   4  0.980  0.819  0.526-  46 1.54
   5  0.886  0.034  0.610-   3 0.77
   6  0.788  0.780  0.586-  77 1.48
   7  0.534  0.683  0.418-  15 1.59
   8  0.880  0.658  0.480-  52 2.21  46 2.21  41 2.28  28 2.30
   9  0.038  0.385  0.486-  39 2.16  53 2.24  71 2.29  29 2.49
  10  0.634  0.327  0.420-  70 2.24  19 2.32  76 2.33
  11  0.562  0.905  0.472-  79 2.27  12 2.27  63 2.29  22 2.43
  12  0.691  0.950  0.430-  11 2.27  27 2.31  65 2.35  26 2.35
  13  0.132  0.204  0.416-  39 2.27  48 2.36  67 2.38
  14  0.170  0.588  0.457-  40 2.29  49 2.30  53 2.32  75 2.39
  15  0.491  0.753  0.378-   7 1.59  79 2.33  47 2.45
  16  0.811  0.473  0.406-  70 2.20  50 2.23  52 2.32
  17  0.396  0.961  0.590-  62 2.35  57 2.43  63 2.43  72 2.68
  18  0.215  0.112  0.525-  20 2.26  72 2.34  67 2.35  43 2.41
  19  0.625  0.178  0.451-  34 2.29  10 2.32  65 2.33  54 2.45
  20  0.236  0.968  0.495-  18 2.26  74 2.26  57 2.34  25 2.42  33 2.96
  21  0.439  0.336  0.533-  55 2.26  59 2.27  32 2.30  51 2.32
  22  0.628  0.763  0.504-  28 2.23  68 2.38  77 2.39  11 2.43
  23  0.627  0.934  0.607-  62 2.29  58 2.32  77 2.35
  24  0.368  0.532  0.603-  73 2.32  55 2.39  80 2.41
  25  0.078  0.963  0.469-  61 2.36  20 2.42  35 2.50  48 2.54  33 2.54
  26  0.771  0.966  0.507-  54 2.25  77 2.31  35 2.33  12 2.35
  27  0.757  0.819  0.398-  12 2.31  28 2.41
  28  0.732  0.694  0.456-  22 2.23   8 2.30  50 2.35  27 2.41
  29  0.187  0.352  0.528-  67 2.33  66 2.35  55 2.36   9 2.49
  30  0.690  0.412  0.571-  51 2.23  64 2.28  56 2.32
  31  0.371  0.685  0.495-  68 2.26  47 2.27  40 2.35  36 2.36
  32  0.405  0.252  0.462-  34 2.21  67 2.29  21 2.30  38 2.43
  33  0.080  0.926  0.563-  43 2.38  37 2.43  57 2.53  25 2.54  20 2.96
  34  0.479  0.120  0.455-  32 2.21  63 2.28  19 2.29
  35  0.915  0.015  0.480-  26 2.33  78 2.34  69 2.35  25 2.50
  36  0.250  0.743  0.545-  75 2.17  57 2.28  31 2.36  80 2.38
  37  0.999  0.820  0.617-   1 1.43  60 2.38  33 2.43
  38  0.410  0.335  0.382-  45 2.32  32 2.43
  39  0.001  0.254  0.453-   9 2.16  42 2.23  13 2.27  69 2.40
  40  0.319  0.540  0.468-  55 2.28  14 2.29  45 2.30  31 2.35
  41  0.880  0.577  0.553-  64 2.22   8 2.28  71 2.28  60 2.34
  42  0.875  0.246  0.406-  39 2.23  70 2.26  78 2.27
  43  0.070  0.089  0.567-  69 2.28  33 2.38  18 2.41
  44  0.821  0.196  0.562-  54 2.25  56 2.25  69 2.34
  45  0.415  0.488  0.405-  40 2.30  38 2.32  76 2.33
  46  0.998  0.754  0.482-   4 1.54   8 2.21  61 2.27  75 2.31  60 3.13
  47  0.338  0.735  0.416-  31 2.27  74 2.39  49 2.40  15 2.45  79 2.99
  48  0.088  0.057  0.388-  13 2.36  25 2.54
  49  0.200  0.666  0.384-  14 2.30  47 2.40
  50  0.686  0.560  0.412-  16 2.23  28 2.35  76 2.42
  51  0.559  0.440  0.530-  30 2.23  21 2.32  73 2.35  76 2.41
  52  0.932  0.574  0.416-   8 2.21  16 2.32  53 2.35
  53  0.066  0.485  0.424-   9 2.24  14 2.32  52 2.35
  54  0.719  0.111  0.519-  44 2.25  26 2.25  19 2.45  58 2.48
  55  0.323  0.439  0.533-  21 2.26  40 2.28  29 2.36  24 2.39
  56  0.808  0.338  0.529-  70 2.23  44 2.25  30 2.32  71 2.33
  57  0.249  0.891  0.572-  36 2.28  20 2.34  17 2.43  33 2.53
  58  0.592  0.080  0.578-  23 2.32  63 2.41  54 2.48
  59  0.415  0.248  0.602-  21 2.27  72 2.32
  60  0.998  0.664  0.589-  41 2.34  37 2.38  75 2.46  46 3.13
  61  0.026  0.846  0.414-  46 2.27  25 2.36
  62  0.502  0.841  0.601-  23 2.29  17 2.35  68 2.36
  63  0.486  0.014  0.518-  34 2.28  11 2.29  58 2.41  17 2.43
  64  0.763  0.538  0.602-   2 1.50  41 2.22  30 2.28
  65  0.698  0.092  0.389-  78 2.30  19 2.33  12 2.35
  66  0.178  0.314  0.614-  29 2.35
  67  0.250  0.241  0.475-  32 2.29  29 2.33  18 2.35  13 2.38
  68  0.492  0.714  0.546-  31 2.26  73 2.35  62 2.36  22 2.38
  69  0.956  0.152  0.520-  43 2.28  44 2.34  35 2.35  39 2.40
  70  0.780  0.345  0.446-  16 2.20  56 2.23  10 2.24  42 2.26
  71  0.935  0.431  0.546-  41 2.28   9 2.29  56 2.33
  72  0.315  0.125  0.594-  59 2.32  18 2.34  17 2.68
  73  0.517  0.567  0.580-  24 2.32  51 2.35  68 2.35
  74  0.307  0.893  0.431-  20 2.26  79 2.31  47 2.39
  75  0.117  0.685  0.524-  36 2.17  46 2.31  14 2.39  60 2.46
  76  0.560  0.464  0.440-  45 2.33  10 2.33  51 2.41  50 2.42
  77  0.729  0.845  0.559-   6 1.48  26 2.31  23 2.35  22 2.39
  78  0.851  0.092  0.411-  42 2.27  65 2.30  35 2.34
  79  0.459  0.900  0.408-  11 2.27  74 2.31  15 2.33  47 2.99
  80  0.307  0.681  0.622-  36 2.38  24 2.41

  LATTYP: Found a simple tetragonal cell.
 ALAT       =    14.5733989906
 C/A-ratio  =     1.8147110168
  
  Lattice vectors:
  
 A1 = (  14.5733989906,   0.0000000000,   0.0000000000)
 A2 = (   0.0000000000,  14.5733989906,   0.0000000000)
 A3 = (   0.0000000000,   0.0000000000,  26.4465077000)


Analysis of symmetry for initial positions (statically):
=====================================================================
 Subroutine PRICEL returns:
 Original cell was already a primitive cell.
 

 Routine SETGRP: Setting up the symmetry group for a 
 simple tetragonal supercell.


 Subroutine GETGRP returns: Found  1 space group operations
 (whereof  1 operations were pure point group operations)
 out of a pool of 16 trial point group operations.


The static configuration has the point symmetry C_1 .


Analysis of symmetry for dynamics (positions and initial velocities):
=====================================================================
 Subroutine PRICEL returns:
 Original cell was already a primitive cell.
 

 Routine SETGRP: Setting up the symmetry group for a 
 simple tetragonal supercell.


 Subroutine GETGRP returns: Found  1 space group operations
 (whereof  1 operations were pure point group operations)
 out of a pool of 16 trial point group operations.


The dynamic configuration has the point symmetry C_1 .


 Subroutine INISYM returns: Found  1 space group operations
 (whereof  1 operations are pure point group operations),
 and found     1 'primitive' translations


----------------------------------------------------------------------------------------

                                     Primitive cell                                     

  volume of cell :    5616.8140

  direct lattice vectors                    reciprocal lattice vectors
    14.573398991  0.000000000  0.000000000     0.068618172  0.000000000  0.000000000
     0.000000000 14.573398991  0.000000000     0.000000000  0.068618172  0.000000000
     0.000000000  0.000000000 26.446507700     0.000000000  0.000000000  0.037812176

  length of vectors
    14.573398991 14.573398991 26.446507700     0.068618172  0.068618172  0.037812176

  position of ions in fractional coordinates (direct lattice)
     0.910810169  0.863957681  0.616956987
     0.704269471  0.619700319  0.612608965
     0.896798338  0.982701428  0.612357136
     0.979730261  0.819033364  0.526247846
     0.885922358  0.034067550  0.609651296
     0.788477692  0.779529882  0.585581199
     0.534061409  0.683078807  0.417626699
     0.879993748  0.658363228  0.479611442
     0.038162202  0.384781203  0.485592194
     0.633839779  0.326706900  0.420289810
     0.562094677  0.904703152  0.471665592
     0.691293775  0.949627469  0.430424608
     0.132387784  0.204147982  0.416143327
     0.170385783  0.588341814  0.457470523
     0.490705017  0.752761933  0.378121759
     0.810634500  0.472837531  0.405881291
     0.396302881  0.961018086  0.589518203
     0.215121400  0.111767337  0.525475343
     0.625341419  0.177881632  0.451376712
     0.235967601  0.968490605  0.495296689
     0.438727438  0.336455483  0.532989378
     0.627790401  0.763246790  0.504004077
     0.626751522  0.934490300  0.607246442
     0.368005433  0.531628895  0.602931694
     0.077520008  0.963110940  0.468583143
     0.771021229  0.966301685  0.507298274
     0.757427969  0.818573622  0.397913926
     0.732162758  0.693599345  0.455842708
     0.186643487  0.351559029  0.528012162
     0.689598906  0.411862737  0.571301431
     0.370948466  0.684765442  0.494792275
     0.405220498  0.251799186  0.461851441
     0.079682852  0.926166916  0.562569844
     0.479493494  0.120431754  0.454608519
     0.915284074  0.014811301  0.479765338
     0.249818179  0.742695648  0.544812490
     0.998612808  0.819664651  0.617375189
     0.410489688  0.334748263  0.382153546
     0.000988171  0.253903705  0.453367902
     0.318919423  0.540480639  0.467702119
     0.879918268  0.577093237  0.553166334
     0.874524880  0.245963210  0.405982401
     0.070443415  0.088676636  0.567369343
     0.821023291  0.196308356  0.561554965
     0.415323838  0.488181241  0.405142820
     0.997874381  0.754093126  0.481609059
     0.338055659  0.734845729  0.415623410
     0.088256693  0.056943270  0.387906820
     0.200361632  0.665580487  0.383671100
     0.685892152  0.560326387  0.412449455
     0.559198304  0.440342710  0.529812778
     0.932157283  0.574082272  0.416288148
     0.066030169  0.485465333  0.423548085
     0.719200785  0.110511625  0.518583318
     0.322588437  0.438714400  0.532996941
     0.808006424  0.338087910  0.528762355
     0.248578249  0.890821696  0.572218755
     0.591550400  0.080441769  0.578076617
     0.415420590  0.247670430  0.602321406
     0.997701360  0.664381728  0.589140838
     0.025892107  0.845815037  0.413802375
     0.501674318  0.840579470  0.601053564
     0.486146712  0.014305654  0.517781321
     0.763088968  0.537573973  0.602498745
     0.698203625  0.092281835  0.388901053
     0.178284421  0.314256132  0.614243963
     0.250164015  0.240525220  0.475277789
     0.492104142  0.713869153  0.545807706
     0.955906032  0.151994054  0.520395277
     0.779550468  0.344503022  0.445977890
     0.934915733  0.430935158  0.545676876
     0.314890850  0.125432646  0.594347574
     0.517277404  0.566910987  0.579542595
     0.306654611  0.893189023  0.431333990
     0.117446177  0.685035111  0.524357615
     0.560128766  0.463941185  0.439560786
     0.728519133  0.845485669  0.558940631
     0.851187839  0.091974426  0.410846484
     0.458973230  0.899865571  0.407523777
     0.306610009  0.681084077  0.621878241

  ion indices of the primitive-cell ions
   primitive index   ion index
                 1           1
                 2           2
                 3           3
                 4           4
                 5           5
                 6           6
                 7           7
                 8           8
                 9           9
                10          10
                11          11
                12          12
                13          13
                14          14
                15          15
                16          16
                17          17
                18          18
                19          19
                20          20
                21          21
                22          22
                23          23
                24          24
                25          25
                26          26
                27          27
                28          28
                29          29
                30          30
                31          31
                32          32
                33          33
                34          34
                35          35
                36          36
                37          37
                38          38
                39          39
                40          40
                41          41
                42          42
                43          43
                44          44
                45          45
                46          46
                47          47
                48          48
                49          49
                50          50
                51          51
                52          52
                53          53
                54          54
                55          55
                56          56
                57          57
                58          58
                59          59
                60          60
                61          61
                62          62
                63          63
                64          64
                65          65
                66          66
                67          67
                68          68
                69          69
                70          70
                71          71
                72          72
                73          73
                74          74
                75          75
                76          76
                77          77
                78          78
                79          79
                80          80

----------------------------------------------------------------------------------------


 -----------------------------------------------------------------------------
|                                                                             |
|           W    W    AA    RRRRR   N    N  II  N    N   GGGG   !!!           |
|           W    W   A  A   R    R  NN   N  II  NN   N  G    G  !!!           |
|           W    W  A    A  R    R  N N  N  II  N N  N  G       !!!           |
|           W WW W  AAAAAA  RRRRR   N  N N  II  N  N N  G  GGG   !            |
|           WW  WW  A    A  R   R   N   NN  II  N   NN  G    G                |
|           W    W  A    A  R    R  N    N  II  N    N   GGGG   !!!           |
|                                                                             |
|     The requested file  could not be found or opened for reading            |
|     k-point information. Automatic k-point generation is used as a          |
|     fallback, which may lead to unwanted results.                           |
|                                                                             |
 -----------------------------------------------------------------------------



Automatic generation of k-mesh.
 Grid dimensions derived from KSPACING:
 generate k-points for:    2    2    2

 Generating k-lattice:

  Cartesian coordinates                     Fractional coordinates (reciprocal lattice)
     0.034309086  0.000000000  0.000000000     0.500000000  0.000000000  0.000000000
     0.000000000  0.034309086  0.000000000     0.000000000  0.500000000  0.000000000
     0.000000000  0.000000000  0.018906088     0.000000000  0.000000000  0.500000000

  Length of vectors
     0.034309086  0.034309086  0.018906088

  Shift w.r.t. Gamma in fractional coordinates (k-lattice)
     0.000000000  0.000000000  0.000000000

 
 Subroutine IBZKPT returns following result:
 ===========================================
 
 Found      8 irreducible k-points:
 
 Following reciprocal coordinates:
            Coordinates               Weight
  0.000000  0.000000  0.000000      1.000000
  0.500000  0.000000  0.000000      1.000000
  0.000000  0.500000  0.000000      1.000000
  0.500000  0.500000  0.000000      1.000000
  0.000000  0.000000  0.500000      1.000000
  0.500000  0.000000  0.500000      1.000000
  0.000000  0.500000  0.500000      1.000000
  0.500000  0.500000  0.500000      1.000000
 
 Following cartesian coordinates:
            Coordinates               Weight
  0.000000  0.000000  0.000000      1.000000
  0.034309  0.000000  0.000000      1.000000
  0.000000  0.034309  0.000000      1.000000
  0.034309  0.034309  0.000000      1.000000
  0.000000  0.000000  0.018906      1.000000
  0.034309  0.000000  0.018906      1.000000
  0.000000  0.034309  0.018906      1.000000
  0.034309  0.034309  0.018906      1.000000
 


--------------------------------------------------------------------------------------------------------




 Dimension of arrays:
   k-points           NKPTS =      8   k-points in BZ     NKDIM =      8   number of bands    NBANDS=    192
   number of dos      NEDOS =   2000   number of ions     NIONS =     80
   non local maximal  LDIM  =      4   non local SUM 2l+1 LMDIM =      8
   total plane-waves  NPLWV = ******
   max r-space proj   IRMAX =      1   max aug-charges    IRDMAX= 403371
   dimension x,y,z NGX =   168 NGY =  168 NGZ =  300
   dimension x,y,z NGXF=   336 NGYF=  336 NGZF=  600
   support grid    NGXF=   672 NGYF=  672 NGZF= 1200
   ions per type =               7  73
   NGX,Y,Z   is equivalent  to a cutoff of  19.16, 19.16, 18.86 a.u.
   NGXF,Y,Z  is equivalent  to a cutoff of  38.33, 38.33, 37.72 a.u.

 SYSTEM =  a-Si SPC                                
 POSCAR =   H Si                                   

 Startparameter for this run:
   NWRITE =      2    write-flag & timer
   PREC   = accura    normal or accurate (medium, high low for compatibility)
   ISTART =      1    job   : 0-new  1-cont  2-samecut
   ICHARG =      1    charge: 1-file 2-atom 10-const
   ISPIN  =      1    spin polarized calculation?
   LNONCOLLINEAR =      F non collinear calculations
   LSORBIT =      F    spin-orbit coupling
   INIWAV =      1    electr: 0-lowe 1-rand  2-diag
   LASPH  =      T    aspherical Exc in radial PAW
 Electronic Relaxation 1
   ENCUT  = 1200.0 eV  88.20 Ry    9.39 a.u.  41.16 41.16 74.70*2*pi/ulx,y,z
   ENINI  = 1200.0     initial cutoff
   ENAUG  =  400.0 eV  augmentation charge cutoff
   NELM   =    150;   NELMIN=  2; NELMDL=  0     # of ELM steps 
   EDIFF  = 0.1E-05   stopping-criterion for ELM
   LREAL  =      F    real-space projection
   NLSPLINE    = F    spline interpolate recip. space projectors
   LCOMPAT=      F    compatible to vasp.4.4
   GGA_COMPAT  = T    GGA compatible to vasp.4.4-vasp.4.6
   LMAXPAW     = -100 max onsite density
   LMAXMIX     =    2 max onsite mixed and CHGCAR
   VOSKOWN=      0    Vosko Wilk Nusair interpolation
   ROPT   =    0.00000   0.00000
 Ionic relaxation
   EDIFFG = -.1E-01   stopping-criterion for IOM
   NSW    =      0    number of steps for IOM
   NBLOCK =      1;   KBLOCK =      1    inner block; outer block 
   IBRION =     -1    ionic relax: 0-MD 1-quasi-New 2-CG
   NFREE  =      0    steps in history (QN), initial steepest desc. (CG)
   ISIF   =      2    stress and relaxation
   IWAVPR =     10    prediction:  0-non 1-charg 2-wave 3-comb
   ISYM   =      1    0-nonsym 1-usesym 2-fastsym
   LCORR  =      T    Harris-Foulkes like correction to forces

   POTIM  = 0.5000    time-step for ionic-motion
   TEIN   =    0.0    initial temperature
   TEBEG  =    0.0;   TEEND  =   0.0 temperature during run
   SMASS  =  -3.00    Nose mass-parameter (am)
   estimated Nose-frequenzy (Omega)   =  0.10E-29 period in steps = 0.13E+47 mass=  -0.485E-26a.u.
   SCALEE = 1.0000    scale energy and forces
   NPACO  =    256;   APACO  = 10.0  distance and # of slots for P.C.
   PSTRESS=    0.0 pullay stress

  Mass of Ions in am
   POMASS =   1.00 28.09
  Ionic Valenz
   ZVAL   =   1.00  4.00
  Atomic Wigner-Seitz radii
   RWIGS  =  -1.00 -1.00
  virtual crystal weights 
   VCA    =   1.00  1.00
   NELECT =     299.0000    total number of electrons
   NUPDOWN=      -1.0000    fix difference up-down

 DOS related values:
   EMIN   =  10.00;   EMAX   =-10.00  energy-range for DOS
   EFERMI =   0.00;   METHOD = LEGACY      
   ISMEAR =     0;   SIGMA  =   0.10  broadening in eV -4-tet -1-fermi 0-gaus
   EFERMI_NEDOS =   21; number of points for ismear=-14 and -15

 Electronic relaxation 2 (details)
   IALGO  =     38    algorithm
   LDIAG  =      F    sub-space diagonalisation (order eigenvalues)
   LSUBROT=      F    optimize rotation matrix (better conditioning)
   TURBO    =      0    0=normal 1=particle mesh
   IRESTART =      0    0=no restart 2=restart with 2 vectors
   NREBOOT  =      0    no. of reboots
   NMIN     =      0    reboot dimension
   EREF     =   0.00    reference energy to select bands
   IMIX   =      4    mixing-type and parameters
     AMIX     =   0.40;   BMIX     =  1.00
     AMIX_MAG =   1.60;   BMIX_MAG =  1.00
     AMIN     =   0.10
     WC   =   100.;   INIMIX=   1;  MIXPRE=   1;  MAXMIX= -45

 Intra band minimization:
   WEIMIN = 0.0000     energy-eigenvalue tresh-hold
   EBREAK =  0.13E-08  absolut break condition
   DEPER  =   0.30     relativ break condition  

   TIME   =   0.40     timestep for ELM

  volume/ion in A,a.u.               =      70.21       473.80
  Fermi-wavevector in a.u.,A,eV,Ry     =   0.615841  1.163771  5.160146  0.379260
  Thomas-Fermi vector in A             =   1.673355

 Write flags
   LWAVE        =      F    write WAVECAR
   LDOWNSAMPLE  =      F    k-point downsampling of WAVECAR
   LCHARG       =      F    write CHGCAR
   LVTOT        =      F    write LOCPOT, total local potential
   LVHAR        =      F    write LOCPOT, Hartree potential only
   WRT_POTENTIAL= false  ! write potential to hdf5 file
   LELF         =      F    write electronic localiz. function (ELF)
   LORBIT       =     11    0 simple, 1 ext, 2 COOP (PROOUT), +10 PAW based schemes


 Python interface
   PLUGINS active      =      F    recompile with -DPLUGINS to activate

 Dipole corrections
   LMONO      =      F    monopole corrections only (constant potential shift)
   LDIPOL     =      F    correct potential (dipole corrections)
   IDIPOL     =      0    1-x, 2-y, 3-z, 4-all directions 
   EPSILON    =  1.0000000 bulk dielectric constant
   LVACPOTAV  =      F  vacuum potentials using an averaging scheme for the charge density
   VACPOTFLAT =  0.1000000 required flatness to determine vacuum potential

Coulomb truncation method
  LTRUNCATE          =      F  Coulomb kernel truncation to be used
  IDIMENSIONALITY    =      3  Dimensionality of cutoff (0 molecules / 2 surfaces)
  ISURFACE           =     -1  Direction of surface normal
  LCOARSEN           =      F  Coarsen the charge grid before padding, preferred


 Exchange correlation treatment:
   METAGGA = SCAN    functional components
   XC_C    = 1    coefficients multiplying the functional components
   LIBXC   =     F    Libxc                    
   VOSKOWN =     0    Vosko Wilk Nusair interpolation
   LHFCALC =     F    Hartree Fock is set to
   LHFONE  =     F    Hartree Fock one center treatment
   AEXX    =    0.0000 exact exchange contribution

 Parameters of functionals:
   SCAN:
     P1 =  0.000000E+00
     P2 =  0.000000E+00
     P3 =  0.000000E+00

 Accuracy and mixing parameters for tau-dependent meta-GGA functionals:
   LMAXTAU = 6
   LMIXTAU = T

 Van der Waals corrections
   IVDW    =     0    specifies the selected vdW correction

 Linear response parameters
   LEPSILON=     F    determine dielectric tensor
   LRPA    =     F    only Hartree local field effects (RPA)
   LNABLA  =     F    use nabla operator in PAW spheres
   LVEL    =     F    velocity operator in full k-point grid
   CSHIFT  =0.1000    complex shift for real part using Kramers Kronig
   OMEGAMAX=  -1.0    maximum frequency
   DEG_THRESHOLD= 0.2000000E-02 threshold for treating states as degnerate
   RTIME   =   -0.100 relaxation time in fs
  (WPLASMAI=    0.000 imaginary part of plasma frequency in eV, 0.658/RTIME)
   DFIELD  = 0.0000000 0.0000000 0.0000000 field for delta impulse in time

  Optional k-point grid parameters
   LKPOINTS_OPT  =     F    use optional k-point grid
   KPOINTS_OPT_MODE=     1    mode for optional k-point grid

 Orbital magnetization related:
   ORBITALMAG=     F  switch on orbital magnetization
   LCHIMAG   =     F  perturbation theory with respect to B field
   DQ        =  0.001000  dq finite difference perturbation B field
   LLRAUG    =     F  two centre corrections for induced B field
   LBONE     =     F  B-component reconstruction in AE one-centre
   LVGVCALC  =     T  calculate vGv susceptibility
   LVGVAPPL  =     F  apply vGv susceptibility instead of pGv for G=0

 Random number generation:
   RANDOM_GENERATOR = DEFAULT
   PCG_SEED         = not used


--------------------------------------------------------------------------------------------------------


 Static calculation
 charge density and potential will be updated during run
 non-spin polarized calculation
 Variant of blocked Davidson
 perform Loewdin sub-space diagonalisation
    ordering is kept fixed
    before iterative eigenvector-optimisation
 modified Broyden-mixing scheme, WC =      100.0
 initial mixing is a Kerker type mixing with AMIX =  0.4000 and BMIX =      1.0000
 Hartree-type preconditioning will be used
 using additional bands           42
 reciprocal scheme for non local part
 use partial core corrections
 calculate Harris-corrections to forces   (improved forces if not selfconsistent)
 use gradient corrections 
 use of overlap-Matrix (Vanderbilt PP)
 Gauss-broadening in eV      SIGMA  =   0.10


--------------------------------------------------------------------------------------------------------


  energy-cutoff  :     1200.00
  volume of cell :     5616.81
      direct lattice vectors                 reciprocal lattice vectors
    14.573398991  0.000000000  0.000000000     0.068618172  0.000000000  0.000000000
     0.000000000 14.573398991  0.000000000     0.000000000  0.068618172  0.000000000
     0.000000000  0.000000000 26.446507700     0.000000000  0.000000000  0.037812176

  length of vectors
    14.573398991 14.573398991 26.446507700     0.068618172  0.068618172  0.037812176



 old parameters found on file WAVECAR:
  energy-cutoff  :     1200.00
  volume of cell :     5616.81
      direct lattice vectors                 reciprocal lattice vectors
    14.573398991  0.000000000  0.000000000     0.068618172  0.000000000  0.000000000
     0.000000000 14.573398991  0.000000000     0.000000000  0.068618172  0.000000000
     0.000000000  0.000000000 26.446507700     0.000000000  0.000000000  0.037812176

  length of vectors


 k-points in units of 2pi/SCALE and weight: read from INCAR                         
   0.00000000  0.00000000  0.00000000       0.125
   0.03430909  0.00000000  0.00000000       0.125
   0.00000000  0.03430909  0.00000000       0.125
   0.03430909  0.03430909  0.00000000       0.125
   0.00000000  0.00000000  0.01890609       0.125
   0.03430909  0.00000000  0.01890609       0.125
   0.00000000  0.03430909  0.01890609       0.125
   0.03430909  0.03430909  0.01890609       0.125

 k-points in reciprocal lattice and weights: read from INCAR                         
   0.00000000  0.00000000  0.00000000       0.125
   0.50000000  0.00000000  0.00000000       0.125
   0.00000000  0.50000000  0.00000000       0.125
   0.50000000  0.50000000  0.00000000       0.125
   0.00000000  0.00000000  0.50000000       0.125
   0.50000000  0.00000000  0.50000000       0.125
   0.00000000  0.50000000  0.50000000       0.125
   0.50000000  0.50000000  0.50000000       0.125

 position of ions in fractional coordinates (direct lattice) 
   0.91081017  0.86395768  0.61695699
   0.70426947  0.61970032  0.61260896
   0.89679834  0.98270143  0.61235714
   0.97973026  0.81903336  0.52624785
   0.88592236  0.03406755  0.60965130
   0.78847769  0.77952988  0.58558120
   0.53406141  0.68307881  0.41762670
   0.87999375  0.65836323  0.47961144
   0.03816220  0.38478120  0.48559219
   0.63383978  0.32670690  0.42028981
   0.56209468  0.90470315  0.47166559
   0.69129377  0.94962747  0.43042461
   0.13238778  0.20414798  0.41614333
   0.17038578  0.58834181  0.45747052
   0.49070502  0.75276193  0.37812176
   0.81063450  0.47283753  0.40588129
   0.39630288  0.96101809  0.58951820
   0.21512140  0.11176734  0.52547534
   0.62534142  0.17788163  0.45137671
   0.23596760  0.96849060  0.49529669
   0.43872744  0.33645548  0.53298938
   0.62779040  0.76324679  0.50400408
   0.62675152  0.93449030  0.60724644
   0.36800543  0.53162889  0.60293169
   0.07752001  0.96311094  0.46858314
   0.77102123  0.96630168  0.50729827
   0.75742797  0.81857362  0.39791393
   0.73216276  0.69359935  0.45584271
   0.18664349  0.35155903  0.52801216
   0.68959891  0.41186274  0.57130143
   0.37094847  0.68476544  0.49479227
   0.40522050  0.25179919  0.46185144
   0.07968285  0.92616692  0.56256984
   0.47949349  0.12043175  0.45460852
   0.91528407  0.01481130  0.47976534
   0.24981818  0.74269565  0.54481249
   0.99861281  0.81966465  0.61737519
   0.41048969  0.33474826  0.38215355
   0.00098817  0.25390371  0.45336790
   0.31891942  0.54048064  0.46770212
   0.87991827  0.57709324  0.55316633
   0.87452488  0.24596321  0.40598240
   0.07044342  0.08867664  0.56736934
   0.82102329  0.19630836  0.56155496
   0.41532384  0.48818124  0.40514282
   0.99787438  0.75409313  0.48160906
   0.33805566  0.73484573  0.41562341
   0.08825669  0.05694327  0.38790682
   0.20036163  0.66558049  0.38367110
   0.68589215  0.56032639  0.41244946
   0.55919830  0.44034271  0.52981278
   0.93215728  0.57408227  0.41628815
   0.06603017  0.48546533  0.42354809
   0.71920079  0.11051162  0.51858332
   0.32258844  0.43871440  0.53299694
   0.80800642  0.33808791  0.52876236
   0.24857825  0.89082170  0.57221875
   0.59155040  0.08044177  0.57807662
   0.41542059  0.24767043  0.60232141
   0.99770136  0.66438173  0.58914084
   0.02589211  0.84581504  0.41380238
   0.50167432  0.84057947  0.60105356
   0.48614671  0.01430565  0.51778132
   0.76308897  0.53757397  0.60249875
   0.69820362  0.09228183  0.38890105
   0.17828442  0.31425613  0.61424396
   0.25016401  0.24052522  0.47527779
   0.49210414  0.71386915  0.54580771
   0.95590603  0.15199405  0.52039528
   0.77955047  0.34450302  0.44597789
   0.93491573  0.43093516  0.54567688
   0.31489085  0.12543265  0.59434757
   0.51727740  0.56691099  0.57954259
   0.30665461  0.89318902  0.43133399
   0.11744618  0.68503511  0.52435761
   0.56012877  0.46394119  0.43956079
   0.72851913  0.84548567  0.55894063
   0.85118784  0.09197443  0.41084648
   0.45897323  0.89986557  0.40752378
   0.30661001  0.68108408  0.62187824

 position of ions in cartesian coordinates  (Angst):
  13.27360000 12.59080000 16.31635770
  10.26360000  9.03114000 16.20136770
  13.06940000 14.32130000 16.19470770
  14.27800000 11.93610000 13.91741770
  12.91090000  0.49648000 16.12314770
  11.49080000 11.36040000 15.48657770
   7.78309000  9.95478000 11.04476770
  12.82450000  9.59459000 12.68404770
   0.55615300  5.60757000 12.84221770
   9.23720000  4.76123000 11.11519770
   8.19163000 13.18460000 12.47390770
  10.07450000 13.83930000 11.38322770
   1.92934000  2.97513000 11.00553770
   2.48310000  8.57414000 12.09849770
   7.15124000 10.97030000 10.00000000
  11.81370000  6.89085000 10.73414270
   5.77548000 14.00530000 15.59069770
   3.13505000  1.62883000 13.89698770
   9.11335000  2.59234000 11.93733770
   3.43885000 14.11420000 13.09886770
   6.39375000  4.90330000 14.09570770
   9.14904000 11.12310000 13.32914770
   9.13390000 13.61870000 16.05954770
   5.36309000  7.74764000 15.94543770
   1.12973000 14.03580000 12.39238770
  11.23640000 14.08230000 13.41626770
  11.03830000 11.92940000 10.52343370
  10.67010000 10.10810000 12.05544770
   2.72003000  5.12341000 13.96407770
  10.04980000  6.00224000 15.10892770
   5.40598000  9.97936000 13.08552770
   5.90544000  3.66957000 12.21435770
   1.16125000 13.49740000 14.87800770
   6.98785000  1.75510000 12.02280770
  13.33880000  0.21585100 12.68811770
   3.64070000 10.82360000 14.40838770
  14.55318289 11.94530000 16.32741770
   5.98223000  4.87842000 10.10662670
   0.01440101  3.70024000 11.98999770
   4.64774000  7.87664000 12.36908770
  12.82340000  8.41021000 14.62931770
  12.74480000  3.58452000 10.73681670
   1.02660000  1.29232000 15.00493770
  11.96510000  2.86088000 14.85116770
   6.05268000  7.11446000 10.71461270
  14.54242149 10.98970000 12.73687770
   4.92662000 10.70920000 10.99178770
   1.28620000  0.82985700 10.25878070
   2.91995000  9.69977000 10.14676070
   9.99578000  8.16586000 10.90784770
   8.14942000  6.41729000 14.01169770
  13.58470000  8.36633000 11.00936770
   0.96228400  7.07488000 11.20136770
  10.48120000  1.61053000 13.71471770
   4.70121000  6.39356000 14.09590770
  11.77540000  4.92709000 13.98391770
   3.62263000 12.98230000 15.13318770
   8.62090000  1.17231000 15.28810770
   6.05409000  3.60940000 15.92929770
  14.53990000  9.68230000 15.58071770
   0.37733600 12.32640000 10.94362770
   7.31110000 12.25010000 15.89576770
   7.08481000  0.20848200 13.69350770
  11.12080000  7.83428000 15.93398770
  10.17520000  1.34486000 10.28507470
   2.59821000  4.57978000 16.24460770
   3.64574000  3.50527000 12.56943770
   7.17163000 10.40350000 14.43470770
  13.93080000  2.21507000 13.76263770
  11.36070000  5.02058000 11.79455770
  13.62490000  6.28019000 14.43124770
   4.58903000  1.82798000 15.71841770
   7.53849000  8.26182000 15.32687770
   4.46900000 13.01680000 11.40727770
   1.71159000  9.98329000 13.86742770
   8.16298000  6.76120000 11.62484770
  10.61700000 12.32160000 14.78202770
  12.40470000  1.34038000 10.86545470
   6.68880000 13.11410000 10.77758070
   4.46835000  9.92571000 16.44650770



--------------------------------------------------------------------------------------------------------


 k-point     1 :   0.0000 0.0000 0.0000  plane waves:  530061
 k-point     2 :   0.5000 0.0000 0.0000  plane waves:  530258
 k-point     3 :   0.0000 0.5000 0.0000  plane waves:  530258
 k-point     4 :   0.5000 0.5000 0.0000  plane waves:  530340
 k-point     5 :   0.0000 0.0000 0.5000  plane waves:  530174
 k-point     6 :   0.5000 0.0000 0.5000  plane waves:  530236
 k-point     7 :   0.0000 0.5000 0.5000  plane waves:  530236
 k-point     8 :   0.5000 0.5000 0.5000  plane waves:  530216

 maximum and minimum number of plane-waves per node :     33206    33065

 maximum number of plane-waves:    530340
 maximum index in each direction: 
   IXMAX=   41   IYMAX=   41   IZMAX=   74
   IXMIN=  -41   IYMIN=  -41   IZMIN=  -75


 parallel 3D FFT for wavefunctions:
    minimum data exchange during FFTs selected (reduces bandwidth)
 parallel 3D FFT for charge:
    minimum data exchange during FFTs selected (reduces bandwidth)


 total amount of memory used by VASP MPI-rank0   389403. kBytes
=======================================================================

   base                                    :      30000. kBytes
   nonl-proj                               :      76474. kBytes
   fftplans                                :     102076. kBytes
   grid                                    :      78750. kBytes
   one-center                              :         15. kBytes
   wavefun                                 :     102088. kBytes

     INWAV:  cpu time     30.6381: real time     30.6560
 Broyden mixing: mesh for mixing (old mesh)
   NGX = 83   NGY = 83   NGZ =149
  (NGX  =336   NGY  =336   NGZ  =600)
  gives a total of ****** points

 initial charge density was supplied:
 number of electron     298.9999999 magnetization 
 keeping initial charge density in first step


--------------------------------------------------------------------------------------------------------


 Maximum index for augmentation-charges        10139 (set IRDMAX)


--------------------------------------------------------------------------------------------------------


 First call to EWALD:  gamma=   0.100
 Maximum number of real-space cells   3x   3x   2
 Maximum number of reciprocal cells   2x   2x   4

    FEWALD:  cpu time      0.0127: real time      0.0128


--------------------------------------- Ionic step        1  -------------------------------------------




--------------------------------------- Iteration      1(   1)  ---------------------------------------


    POTLOK:  cpu time      2.0248: real time      2.0254
    SETDIJ:  cpu time      1.4825: real time      1.4833
    EDDIAG:  cpu time     59.6136: real time     59.6430
     EDDAV:  cpu time    266.1172: real time    266.2906
       DOS:  cpu time      0.0084: real time      0.0089
    CHARGE:  cpu time     33.5863: real time     33.6141
    MIXING:  cpu time      0.0506: real time      0.0512
    --------------------------------------------
      LOOP:  cpu time    362.8835: real time    363.1167

 eigenvalue-minimisations  :  3072
 total energy-change (2. order) :-0.7416471E+03  (-0.8372497E+00)
 number of electron     298.9999999 magnetization 
 augmentation part      -16.7524166 magnetization 

 Broyden mixing:
  rms(total) = 0.10317E+01    rms(broyden)= 0.24802E+02
  rms(prec ) = 0.10626E+01
  weight for this iteration     100.00
  WARNING: grid for Broyden might be to small

 Free energy of the ion-electron system (eV)
  ---------------------------------------------------
  alpha Z        PSCENC =        33.61161472
  Ewald energy   TEWEN  =     39134.72046487
  -Hartree energ DENC   =    -45722.30016391
  -exchange      EXHF   =         0.00000000
  -V(xc)+E(xc)   XCENC  =      -343.42180268
  PAW double counting   =     27267.13194462   -26539.56062984
  entropy T*S    EENTRO =        -0.22765234
  eigenvalues    EBANDS =     -2182.89845833
  atomic energy  EATOM  =      7611.29754629
  Solvation  Ediel_sol  =         0.00000000
  ---------------------------------------------------
  free energy    TOTEN  =      -741.64713660 eV

  energy without entropy =     -741.41948426  energy(sigma->0) =     -741.53331043


--------------------------------------------------------------------------------------------------------




--------------------------------------- Iteration      1(   2)  ---------------------------------------


    POTLOK:  cpu time      1.9684: real time      1.9956
    SETDIJ:  cpu time      1.4794: real time      1.4800
    EDDIAG:  cpu time     59.5609: real time     59.5927
     EDDAV:  cpu time    269.2470: real time    269.4209
       DOS:  cpu time      0.0038: real time      0.0038
    CHARGE:  cpu time     33.3225: real time     33.3544
    MIXING:  cpu time      0.0427: real time      0.0428
    --------------------------------------------
      LOOP:  cpu time    365.6246: real time    365.8903

 eigenvalue-minimisations  :  3136
 total energy-change (2. order) : 0.5297794E+02  (-0.8108819E+00)
 number of electron     298.9999999 magnetization 
 augmentation part      -16.6971946 magnetization 

 Broyden mixing:
  rms(total) = 0.70038E+00    rms(broyden)= 0.14269E+02
  rms(prec ) = 0.71638E+00
  weight for this iteration     100.00
  WARNING: grid for Broyden might be to small

 eigenvalues of (default mixing * dielectric matrix)
  average eigenvalue GAMMA=   0.6349
  0.6349

 Free energy of the ion-electron system (eV)
  ---------------------------------------------------
  alpha Z        PSCENC =        33.61161472
  Ewald energy   TEWEN  =     39134.72046487
  -Hartree energ DENC   =    -45711.03838962
  -exchange      EXHF   =         0.00000000
  -V(xc)+E(xc)   XCENC  =      -335.96035610
  PAW double counting   =     32435.83235941   -31708.09157474
  entropy T*S    EENTRO =        -0.21282116
  eigenvalues    EBANDS =     -2148.82804066
  atomic energy  EATOM  =      7611.29754629
  Solvation  Ediel_sol  =         0.00000000
  ---------------------------------------------------
  free energy    TOTEN  =      -688.66919700 eV

  energy without entropy =     -688.45637584  energy(sigma->0) =     -688.56278642


--------------------------------------------------------------------------------------------------------




--------------------------------------- Iteration      1(   3)  ---------------------------------------


    POTLOK:  cpu time      1.9665: real time      1.9932
    SETDIJ:  cpu time      1.4737: real time      1.4745
    EDDIAG:  cpu time     59.6202: real time     59.6530
     EDDAV:  cpu time    266.4873: real time    266.6563
       DOS:  cpu time      0.0042: real time      0.0042
    CHARGE:  cpu time     33.3536: real time     33.3845
    MIXING:  cpu time      0.0398: real time      0.0398
    --------------------------------------------
      LOOP:  cpu time    362.9453: real time    363.2056

 eigenvalue-minimisations  :  3072
 total energy-change (2. order) :-0.2557995E+01  (-0.6658663E+00)
 number of electron     298.9999999 magnetization 
 augmentation part      -16.6464612 magnetization 

 Broyden mixing:
  rms(total) = 0.29900E+00    rms(broyden)= 0.20842E+02
  rms(prec ) = 0.37442E+00
  weight for this iteration     100.00
  WARNING: grid for Broyden might be to small

 eigenvalues of (default mixing * dielectric matrix)
  average eigenvalue GAMMA=   0.7888
  0.9486  0.6290

 Free energy of the ion-electron system (eV)
  ---------------------------------------------------
  alpha Z        PSCENC =        33.61161472
  Ewald energy   TEWEN  =     39134.72046487
  -Hartree energ DENC   =    -45710.90199429
  -exchange      EXHF   =         0.00000000
  -V(xc)+E(xc)   XCENC  =      -338.39506741
  PAW double counting   =     38526.07126583   -37798.46564028
  entropy T*S    EENTRO =        -0.21859516
  eigenvalues    EBANDS =     -2148.94678651
  atomic energy  EATOM  =      7611.29754629
  Solvation  Ediel_sol  =         0.00000000
  ---------------------------------------------------
  free energy    TOTEN  =      -691.22719196 eV

  energy without entropy =     -691.00859680  energy(sigma->0) =     -691.11789438


--------------------------------------------------------------------------------------------------------




--------------------------------------- Iteration      1(   4)  ---------------------------------------


    POTLOK:  cpu time      2.0034: real time      2.0050
    SETDIJ:  cpu time      1.4711: real time      1.4719
    EDDIAG:  cpu time     59.6325: real time     59.6628
     EDDAV:  cpu time    277.0617: real time    277.2426
       DOS:  cpu time      0.0029: real time      0.0029
    CHARGE:  cpu time     33.2933: real time     33.3247
    MIXING:  cpu time      0.0394: real time      0.0394
    --------------------------------------------
      LOOP:  cpu time    373.5044: real time    373.7493

 eigenvalue-minimisations  :  3296
 total energy-change (2. order) : 0.2876613E+00  (-0.9210349E-01)
 number of electron     298.9999999 magnetization 
 augmentation part      -16.6437619 magnetization 

 Broyden mixing:
  rms(total) = 0.12095E+00    rms(broyden)= 0.86317E+00
  rms(prec ) = 0.17359E+00
  weight for this iteration     100.00
  WARNING: grid for Broyden might be to small

 eigenvalues of (default mixing * dielectric matrix)
  average eigenvalue GAMMA=   1.1086
  2.0219  0.6803  0.6237

 Free energy of the ion-electron system (eV)
  ---------------------------------------------------
  alpha Z        PSCENC =        33.61161472
  Ewald energy   TEWEN  =     39134.72046487
  -Hartree energ DENC   =    -45710.97145776
  -exchange      EXHF   =         0.00000000
  -V(xc)+E(xc)   XCENC  =      -339.05860593
  PAW double counting   =     43150.79613510   -42423.25234476
  entropy T*S    EENTRO =        -0.21212444
  eigenvalues    EBANDS =     -2147.87075872
  atomic energy  EATOM  =      7611.29754629
  Solvation  Ediel_sol  =         0.00000000
  ---------------------------------------------------
  free energy    TOTEN  =      -690.93953064 eV

  energy without entropy =     -690.72740620  energy(sigma->0) =     -690.83346842


--------------------------------------------------------------------------------------------------------




--------------------------------------- Iteration      1(   5)  ---------------------------------------


    POTLOK:  cpu time      1.9946: real time      2.0315
    SETDIJ:  cpu time      1.4795: real time      1.4803
    EDDIAG:  cpu time     59.5860: real time     59.6162
     EDDAV:  cpu time    285.1644: real time    285.3473
       DOS:  cpu time      0.0032: real time      0.0032
    CHARGE:  cpu time     33.3491: real time     33.3782
    MIXING:  cpu time      0.0396: real time      0.0405
    --------------------------------------------
      LOOP:  cpu time    381.6163: real time    381.8971

 eigenvalue-minimisations  :  3464
 total energy-change (2. order) :-0.1282577E-01  (-0.3586377E-01)
 number of electron     298.9999999 magnetization 
 augmentation part      -16.6431840 magnetization 

 Broyden mixing:
  rms(total) = 0.60565E-01    rms(broyden)= 0.15240E+01
  rms(prec ) = 0.82830E-01
  weight for this iteration     100.00
  WARNING: grid for Broyden might be to small

 eigenvalues of (default mixing * dielectric matrix)
  average eigenvalue GAMMA=   1.0267
  2.3650  0.7495  0.6201  0.3722

 Free energy of the ion-electron system (eV)
  ---------------------------------------------------
  alpha Z        PSCENC =        33.61161472
  Ewald energy   TEWEN  =     39134.72046487
  -Hartree energ DENC   =    -45711.90163198
  -exchange      EXHF   =         0.00000000
  -V(xc)+E(xc)   XCENC  =      -339.89833619
  PAW double counting   =     43069.68831921   -42342.13469652
  entropy T*S    EENTRO =        -0.21420601
  eigenvalues    EBANDS =     -2146.12143079
  atomic energy  EATOM  =      7611.29754629
  Solvation  Ediel_sol  =         0.00000000
  ---------------------------------------------------
  free energy    TOTEN  =      -690.95235641 eV

  energy without entropy =     -690.73815040  energy(sigma->0) =     -690.84525340


--------------------------------------------------------------------------------------------------------




--------------------------------------- Iteration      1(   6)  ---------------------------------------


    POTLOK:  cpu time      1.9867: real time      2.0129
    SETDIJ:  cpu time      1.4721: real time      1.4726
    EDDIAG:  cpu time     59.6312: real time     59.6593
     EDDAV:  cpu time    274.0201: real time    274.2049
       DOS:  cpu time      0.0038: real time      0.0038
    CHARGE:  cpu time     33.3156: real time     33.3457
    MIXING:  cpu time      0.0443: real time      0.0443
    --------------------------------------------
      LOOP:  cpu time    370.4737: real time    370.7435

 eigenvalue-minimisations  :  3232
 total energy-change (2. order) : 0.8289818E-02  (-0.1009869E-01)
 number of electron     298.9999999 magnetization 
 augmentation part      -16.6433155 magnetization 

 Broyden mixing:
  rms(total) = 0.36081E-01    rms(broyden)= 0.16576E+00
  rms(prec ) = 0.44667E-01
  weight for this iteration     100.00
  WARNING: grid for Broyden might be to small

 eigenvalues of (default mixing * dielectric matrix)
  average eigenvalue GAMMA=   1.0032
  2.5475  0.9003  0.6190  0.6190  0.3301

 Free energy of the ion-electron system (eV)
  ---------------------------------------------------
  alpha Z        PSCENC =        33.61161472
  Ewald energy   TEWEN  =     39134.72046487
  -Hartree energ DENC   =    -45711.50910119
  -exchange      EXHF   =         0.00000000
  -V(xc)+E(xc)   XCENC  =      -340.10273659
  PAW double counting   =     42767.02135599   -42039.45096636
  entropy T*S    EENTRO =        -0.21795493
  eigenvalues    EBANDS =     -2146.31428938
  atomic energy  EATOM  =      7611.29754629
  Solvation  Ediel_sol  =         0.00000000
  ---------------------------------------------------
  free energy    TOTEN  =      -690.94406659 eV

  energy without entropy =     -690.72611166  energy(sigma->0) =     -690.83508913


--------------------------------------------------------------------------------------------------------




--------------------------------------- Iteration      1(   7)  ---------------------------------------


    POTLOK:  cpu time      1.9696: real time      1.9964
    SETDIJ:  cpu time      1.4751: real time      1.4763
    EDDIAG:  cpu time     59.5394: real time     59.5699
     EDDAV:  cpu time    288.9745: real time    289.1505
       DOS:  cpu time      0.0041: real time      0.0041
    CHARGE:  cpu time     33.3238: real time     33.3565
    MIXING:  cpu time      0.0408: real time      0.0408
    --------------------------------------------
      LOOP:  cpu time    385.3272: real time    385.5946

 eigenvalue-minimisations  :  3536
 total energy-change (2. order) : 0.3018244E-02  (-0.1140339E-02)
 number of electron     298.9999999 magnetization 
 augmentation part      -16.6427411 magnetization 

 Broyden mixing:
  rms(total) = 0.19238E-01    rms(broyden)= 0.15528E+00
  rms(prec ) = 0.21492E-01
  weight for this iteration     100.00
  WARNING: grid for Broyden might be to small

 eigenvalues of (default mixing * dielectric matrix)
  average eigenvalue GAMMA=   0.9763
  2.5748  1.0122  0.7481  0.6154  0.5287  0.3787

 Free energy of the ion-electron system (eV)
  ---------------------------------------------------
  alpha Z        PSCENC =        33.61161472
  Ewald energy   TEWEN  =     39134.72046487
  -Hartree energ DENC   =    -45711.19135276
  -exchange      EXHF   =         0.00000000
  -V(xc)+E(xc)   XCENC  =      -340.06655396
  PAW double counting   =     42745.77947936   -42018.20302811
  entropy T*S    EENTRO =        -0.21785010
  eigenvalues    EBANDS =     -2146.67136866
  atomic energy  EATOM  =      7611.29754629
  Solvation  Ediel_sol  =         0.00000000
  ---------------------------------------------------
  free energy    TOTEN  =      -690.94104835 eV

  energy without entropy =     -690.72319825  energy(sigma->0) =     -690.83212330


--------------------------------------------------------------------------------------------------------




--------------------------------------- Iteration      1(   8)  ---------------------------------------


    POTLOK:  cpu time      1.9749: real time      1.9992
    SETDIJ:  cpu time      1.4769: real time      1.4776
    EDDIAG:  cpu time     59.6364: real time     59.6702
     EDDAV:  cpu time    273.6380: real time    273.8260
       DOS:  cpu time      0.0059: real time      0.0059
    CHARGE:  cpu time     33.3459: real time     33.3770
    MIXING:  cpu time      0.0425: real time      0.0425
    --------------------------------------------
      LOOP:  cpu time    370.1204: real time    370.3985

 eigenvalue-minimisations  :  3224
 total energy-change (2. order) :-0.1385740E-02  (-0.8389806E-03)
 number of electron     298.9999999 magnetization 
 augmentation part      -16.6409397 magnetization 

 Broyden mixing:
  rms(total) = 0.10512E-01    rms(broyden)= 0.60218E-01
  rms(prec ) = 0.13411E-01
  weight for this iteration     100.00
  WARNING: grid for Broyden might be to small

 eigenvalues of (default mixing * dielectric matrix)
  average eigenvalue GAMMA=   0.9618
  2.5725  1.2679  0.7821  0.6338  0.5817  0.4233  0.4713

 Free energy of the ion-electron system (eV)
  ---------------------------------------------------
  alpha Z        PSCENC =        33.61161472
  Ewald energy   TEWEN  =     39134.72046487
  -Hartree energ DENC   =    -45710.82642656
  -exchange      EXHF   =         0.00000000
  -V(xc)+E(xc)   XCENC  =      -339.90958220
  PAW double counting   =     42756.15449622   -42028.56888092
  entropy T*S    EENTRO =        -0.21737879
  eigenvalues    EBANDS =     -2147.20428771
  atomic energy  EATOM  =      7611.29754629
  Solvation  Ediel_sol  =         0.00000000
  ---------------------------------------------------
  free energy    TOTEN  =      -690.94243409 eV

  energy without entropy =     -690.72505530  energy(sigma->0) =     -690.83374469


--------------------------------------------------------------------------------------------------------




--------------------------------------- Iteration      1(   9)  ---------------------------------------


    POTLOK:  cpu time      1.9693: real time      2.0004
    SETDIJ:  cpu time      1.5164: real time      1.5179
    EDDIAG:  cpu time     59.6647: real time     59.6968
     EDDAV:  cpu time    277.8766: real time    278.0664
       DOS:  cpu time      0.0051: real time      0.0052
    CHARGE:  cpu time     33.2873: real time     33.3175
    MIXING:  cpu time      0.0443: real time      0.0443
    --------------------------------------------
      LOOP:  cpu time    374.3639: real time    374.6485

 eigenvalue-minimisations  :  3312
 total energy-change (2. order) :-0.4275903E-03  (-0.3218912E-03)
 number of electron     298.9999999 magnetization 
 augmentation part      -16.6406780 magnetization 

 Broyden mixing:
  rms(total) = 0.55562E-02    rms(broyden)= 0.26772E-01
  rms(prec ) = 0.73499E-02
  weight for this iteration     100.00
  WARNING: grid for Broyden might be to small

 eigenvalues of (default mixing * dielectric matrix)
  average eigenvalue GAMMA=   1.0043
  2.5621  1.8281  0.8849  0.6585  0.6585  0.5871  0.4274  0.4274

 Free energy of the ion-electron system (eV)
  ---------------------------------------------------
  alpha Z        PSCENC =        33.61161472
  Ewald energy   TEWEN  =     39134.72046487
  -Hartree energ DENC   =    -45710.50423554
  -exchange      EXHF   =         0.00000000
  -V(xc)+E(xc)   XCENC  =      -339.86291655
  PAW double counting   =     42783.85840481   -42056.26756978
  entropy T*S    EENTRO =        -0.21781096
  eigenvalues    EBANDS =     -2147.57835953
  atomic energy  EATOM  =      7611.29754629
  Solvation  Ediel_sol  =         0.00000000
  ---------------------------------------------------
  free energy    TOTEN  =      -690.94286168 eV

  energy without entropy =     -690.72505072  energy(sigma->0) =     -690.83395620


--------------------------------------------------------------------------------------------------------




--------------------------------------- Iteration      1(  10)  ---------------------------------------


    POTLOK:  cpu time      1.9718: real time      1.9976
    SETDIJ:  cpu time      1.4697: real time      1.4705
    EDDIAG:  cpu time     59.5514: real time     59.5837
     EDDAV:  cpu time    273.2166: real time    273.3983
       DOS:  cpu time      0.0046: real time      0.0046
    CHARGE:  cpu time     33.2840: real time     33.3131
    MIXING:  cpu time      0.0432: real time      0.0432
    --------------------------------------------
      LOOP:  cpu time    369.5410: real time    369.8109

 eigenvalue-minimisations  :  3216
 total energy-change (2. order) : 0.6470553E-05  (-0.9645508E-04)
 number of electron     298.9999999 magnetization 
 augmentation part      -16.6405282 magnetization 

 Broyden mixing:
  rms(total) = 0.25388E-02    rms(broyden)= 0.22154E-01
  rms(prec ) = 0.32934E-02
  weight for this iteration     100.00
  WARNING: grid for Broyden might be to small

 eigenvalues of (default mixing * dielectric matrix)
  average eigenvalue GAMMA=   1.0875
  2.7156  2.4855  1.1091  0.8226  0.6198  0.6198  0.5644  0.4252  0.4252

 Free energy of the ion-electron system (eV)
  ---------------------------------------------------
  alpha Z        PSCENC =        33.61161472
  Ewald energy   TEWEN  =     39134.72046487
  -Hartree energ DENC   =    -45710.18666536
  -exchange      EXHF   =         0.00000000
  -V(xc)+E(xc)   XCENC  =      -339.86079578
  PAW double counting   =     42794.51431171   -42066.92042463
  entropy T*S    EENTRO =        -0.21783583
  eigenvalues    EBANDS =     -2147.90107120
  atomic energy  EATOM  =      7611.29754629
  Solvation  Ediel_sol  =         0.00000000
  ---------------------------------------------------
  free energy    TOTEN  =      -690.94285521 eV

  energy without entropy =     -690.72501937  energy(sigma->0) =     -690.83393729


--------------------------------------------------------------------------------------------------------




--------------------------------------- Iteration      1(  11)  ---------------------------------------


    POTLOK:  cpu time      1.9700: real time      1.9971
    SETDIJ:  cpu time      1.4731: real time      1.4739
    EDDIAG:  cpu time     59.5718: real time     59.6040
     EDDAV:  cpu time    272.5284: real time    272.7052
       DOS:  cpu time      0.0113: real time      0.0118
    CHARGE:  cpu time     33.2527: real time     33.3145
    MIXING:  cpu time      0.0611: real time      0.0613
    --------------------------------------------
      LOOP:  cpu time    368.8688: real time    369.1684

 eigenvalue-minimisations  :  3200
 total energy-change (2. order) :-0.5440382E-04  (-0.7538001E-04)
 number of electron     298.9999999 magnetization 
 augmentation part      -16.6406307 magnetization 

 Broyden mixing:
  rms(total) = 0.15063E-02    rms(broyden)= 0.14769E-01
  rms(prec ) = 0.20332E-02
  weight for this iteration     100.00
  WARNING: grid for Broyden might be to small

 eigenvalues of (default mixing * dielectric matrix)
  average eigenvalue GAMMA=   1.1271
  3.2021  2.5703  1.1883  0.8327  0.8327  0.6437  0.6257  0.5213  0.4270  0.4270

 Free energy of the ion-electron system (eV)
  ---------------------------------------------------
  alpha Z        PSCENC =        33.61161472
  Ewald energy   TEWEN  =     39134.72046487
  -Hartree energ DENC   =    -45709.91256020
  -exchange      EXHF   =         0.00000000
  -V(xc)+E(xc)   XCENC  =      -339.86779659
  PAW double counting   =     42792.14763336   -42064.55243742
  entropy T*S    EENTRO =        -0.21775015
  eigenvalues    EBANDS =     -2148.16962449
  atomic energy  EATOM  =      7611.29754629
  Solvation  Ediel_sol  =         0.00000000
  ---------------------------------------------------
  free energy    TOTEN  =      -690.94290961 eV

  energy without entropy =     -690.72515946  energy(sigma->0) =     -690.83403454


--------------------------------------------------------------------------------------------------------




--------------------------------------- Iteration      1(  12)  ---------------------------------------


    POTLOK:  cpu time      1.9819: real time      2.0156
    SETDIJ:  cpu time      1.4879: real time      1.4892
    EDDIAG:  cpu time     59.5033: real time     59.5359
     EDDAV:  cpu time    275.0520: real time    275.2347
       DOS:  cpu time      0.0030: real time      0.0030
    CHARGE:  cpu time     33.3509: real time     33.3826
    MIXING:  cpu time      0.0455: real time      0.0455
    --------------------------------------------
      LOOP:  cpu time    371.4240: real time    371.7059

 eigenvalue-minimisations  :  3256
 total energy-change (2. order) :-0.1315324E-03  (-0.3439334E-04)
 number of electron     298.9999999 magnetization 
 augmentation part      -16.6407836 magnetization 

 Broyden mixing:
  rms(total) = 0.74367E-03    rms(broyden)= 0.12026E-01
  rms(prec ) = 0.10703E-02
  weight for this iteration     100.00
  WARNING: grid for Broyden might be to small

 eigenvalues of (default mixing * dielectric matrix)
  average eigenvalue GAMMA=   1.3001
  4.4143  2.6115  1.9980  1.0981  0.7642  0.7642  0.4271  0.4271  0.5181  0.6608
  0.6176

 Free energy of the ion-electron system (eV)
  ---------------------------------------------------
  alpha Z        PSCENC =        33.61161472
  Ewald energy   TEWEN  =     39134.72046487
  -Hartree energ DENC   =    -45709.55909374
  -exchange      EXHF   =         0.00000000
  -V(xc)+E(xc)   XCENC  =      -339.87630761
  PAW double counting   =     42789.13371998   -42061.53751546
  entropy T*S    EENTRO =        -0.21777417
  eigenvalues    EBANDS =     -2148.51569602
  atomic energy  EATOM  =      7611.29754629
  Solvation  Ediel_sol  =         0.00000000
  ---------------------------------------------------
  free energy    TOTEN  =      -690.94304114 eV

  energy without entropy =     -690.72526698  energy(sigma->0) =     -690.83415406


--------------------------------------------------------------------------------------------------------




--------------------------------------- Iteration      1(  13)  ---------------------------------------


    POTLOK:  cpu time      1.9675: real time      1.9948
    SETDIJ:  cpu time      1.4707: real time      1.4713
    EDDIAG:  cpu time     59.5380: real time     59.5735
     EDDAV:  cpu time    273.2509: real time    273.4329
       DOS:  cpu time      0.0036: real time      0.0036
    CHARGE:  cpu time     33.3048: real time     33.3351
    MIXING:  cpu time      0.0466: real time      0.0466
    --------------------------------------------
      LOOP:  cpu time    369.5822: real time    369.8578

 eigenvalue-minimisations  :  3216
 total energy-change (2. order) :-0.1659696E-03  (-0.2619106E-04)
 number of electron     298.9999999 magnetization 
 augmentation part      -16.6408608 magnetization 

 Broyden mixing:
  rms(total) = 0.37099E-03    rms(broyden)= 0.10013E-01
  rms(prec ) = 0.60991E-03
  weight for this iteration     100.00
  WARNING: grid for Broyden might be to small

 eigenvalues of (default mixing * dielectric matrix)
  average eigenvalue GAMMA=   1.4574
  6.2841  2.6437  2.3768  1.1241  0.8573  0.8573  0.4274  0.4274  0.6992  0.5212
  0.6524  0.6175

 Free energy of the ion-electron system (eV)
  ---------------------------------------------------
  alpha Z        PSCENC =        33.61161472
  Ewald energy   TEWEN  =     39134.72046487
  -Hartree energ DENC   =    -45709.32009901
  -exchange      EXHF   =         0.00000000
  -V(xc)+E(xc)   XCENC  =      -339.88327542
  PAW double counting   =     42788.19002780   -42060.59374107
  entropy T*S    EENTRO =        -0.21775558
  eigenvalues    EBANDS =     -2148.74798971
  atomic energy  EATOM  =      7611.29754629
  Solvation  Ediel_sol  =         0.00000000
  ---------------------------------------------------
  free energy    TOTEN  =      -690.94320711 eV

  energy without entropy =     -690.72545153  energy(sigma->0) =     -690.83432932


--------------------------------------------------------------------------------------------------------




--------------------------------------- Iteration      1(  14)  ---------------------------------------


    POTLOK:  cpu time      2.0302: real time      2.0316
    SETDIJ:  cpu time      1.4816: real time      1.4826
    EDDIAG:  cpu time     59.4418: real time     59.4683
     EDDAV:  cpu time    271.4325: real time    271.6129
       DOS:  cpu time      0.0044: real time      0.0044
    CHARGE:  cpu time     33.3101: real time     33.3399
    MIXING:  cpu time      0.0472: real time      0.0472
    --------------------------------------------
      LOOP:  cpu time    367.7478: real time    367.9868

 eigenvalue-minimisations  :  3184
 total energy-change (2. order) :-0.1290471E-03  (-0.2697758E-04)
 number of electron     298.9999999 magnetization 
 augmentation part      -16.6409025 magnetization 

 Broyden mixing:
  rms(total) = 0.31226E-03    rms(broyden)= 0.80484E-02
  rms(prec ) = 0.50842E-03
  weight for this iteration     100.00
  WARNING: grid for Broyden might be to small

 eigenvalues of (default mixing * dielectric matrix)
  average eigenvalue GAMMA=   1.6011
  8.3088  2.6409  2.6409  1.2185  1.1617  0.7864  0.7864  0.4279  0.4279  0.6817
  0.6246  0.5796  0.5288

 Free energy of the ion-electron system (eV)
  ---------------------------------------------------
  alpha Z        PSCENC =        33.61161472
  Ewald energy   TEWEN  =     39134.72046487
  -Hartree energ DENC   =    -45709.09193291
  -exchange      EXHF   =         0.00000000
  -V(xc)+E(xc)   XCENC  =      -339.88786733
  PAW double counting   =     42787.95762625   -42060.36155935
  entropy T*S    EENTRO =        -0.21777437
  eigenvalues    EBANDS =     -2148.97145434
  atomic energy  EATOM  =      7611.29754629
  Solvation  Ediel_sol  =         0.00000000
  ---------------------------------------------------
  free energy    TOTEN  =      -690.94333616 eV

  energy without entropy =     -690.72556180  energy(sigma->0) =     -690.83444898


--------------------------------------------------------------------------------------------------------




--------------------------------------- Iteration      1(  15)  ---------------------------------------


    POTLOK:  cpu time      1.9689: real time      1.9953
    SETDIJ:  cpu time      1.4800: real time      1.4811
    EDDIAG:  cpu time     59.5138: real time     59.5444
     EDDAV:  cpu time    271.5836: real time    271.7631
       DOS:  cpu time      0.0036: real time      0.0036
    CHARGE:  cpu time     33.3299: real time     33.3599
    MIXING:  cpu time      0.0475: real time      0.0475
    --------------------------------------------
      LOOP:  cpu time    367.9273: real time    368.1949

 eigenvalue-minimisations  :  3184
 total energy-change (2. order) :-0.1418371E-03  (-0.2185681E-04)
 number of electron     298.9999999 magnetization 
 augmentation part      -16.6409640 magnetization 

 Broyden mixing:
  rms(total) = 0.16689E-03    rms(broyden)= 0.55766E-02
  rms(prec ) = 0.28372E-03
  weight for this iteration     100.00
  WARNING: grid for Broyden might be to small

 eigenvalues of (default mixing * dielectric matrix)
  average eigenvalue GAMMA=   1.6741
  9.4365  2.7623  2.7155  1.5890  1.0403  0.9778  0.8263  0.8263  0.4277  0.4277
  0.6691  0.6285  0.5299  0.5809

 Free energy of the ion-electron system (eV)
  ---------------------------------------------------
  alpha Z        PSCENC =        33.61161472
  Ewald energy   TEWEN  =     39134.72046487
  -Hartree energ DENC   =    -45708.86353860
  -exchange      EXHF   =         0.00000000
  -V(xc)+E(xc)   XCENC  =      -339.89217551
  PAW double counting   =     42788.09790838   -42060.50220956
  entropy T*S    EENTRO =        -0.21776544
  eigenvalues    EBANDS =     -2149.19532316
  atomic energy  EATOM  =      7611.29754629
  Solvation  Ediel_sol  =         0.00000000
  ---------------------------------------------------
  free energy    TOTEN  =      -690.94347800 eV

  energy without entropy =     -690.72571256  energy(sigma->0) =     -690.83459528


--------------------------------------------------------------------------------------------------------




--------------------------------------- Iteration      1(  16)  ---------------------------------------


    POTLOK:  cpu time      1.9988: real time      2.0002
    SETDIJ:  cpu time      1.4890: real time      1.4897
    EDDIAG:  cpu time     59.5342: real time     59.5631
     EDDAV:  cpu time    271.5471: real time    271.7363
       DOS:  cpu time      0.0042: real time      0.0042
    CHARGE:  cpu time     33.3257: real time     33.3578
    MIXING:  cpu time      0.0472: real time      0.0473
    --------------------------------------------
      LOOP:  cpu time    367.9462: real time    368.1985

 eigenvalue-minimisations  :  3184
 total energy-change (2. order) :-0.1167260E-03  (-0.1095747E-04)
 number of electron     298.9999999 magnetization 
 augmentation part      -16.6409941 magnetization 

 Broyden mixing:
  rms(total) = 0.17665E-03    rms(broyden)= 0.39527E-02
  rms(prec ) = 0.25903E-03
  weight for this iteration     100.00
  WARNING: grid for Broyden might be to small

 eigenvalues of (default mixing * dielectric matrix)
  average eigenvalue GAMMA=   1.6645
  9.7449  2.8732  2.7008  1.8125  1.1187  1.1187  0.8029  0.8029  0.7725  0.4276
  0.4276  0.5308  0.6262  0.6262  0.5826

 Free energy of the ion-electron system (eV)
  ---------------------------------------------------
  alpha Z        PSCENC =        33.61161472
  Ewald energy   TEWEN  =     39134.72046487
  -Hartree energ DENC   =    -45708.70265532
  -exchange      EXHF   =         0.00000000
  -V(xc)+E(xc)   XCENC  =      -339.89370951
  PAW double counting   =     42788.29311628   -42060.69764985
  entropy T*S    EENTRO =        -0.21777383
  eigenvalues    EBANDS =     -2149.35454838
  atomic energy  EATOM  =      7611.29754629
  Solvation  Ediel_sol  =         0.00000000
  ---------------------------------------------------
  free energy    TOTEN  =      -690.94359472 eV

  energy without entropy =     -690.72582090  energy(sigma->0) =     -690.83470781


--------------------------------------------------------------------------------------------------------




--------------------------------------- Iteration      1(  17)  ---------------------------------------


[...]
   -.284E+02 0.205E+02 -.483E+02   0.273E+02 -.187E+02 0.470E+02   0.179E+01 -.273E+01 0.613E+00   -.198E-04 0.271E-05 0.485E-05
   -.296E+02 0.122E+02 0.278E+03   0.305E+02 -.124E+02 -.282E+03   -.226E+00 -.894E-01 0.271E+01   -.419E-04 -.152E-04 -.254E-04
   -.263E+01 0.127E+02 0.110E+03   0.193E+01 -.112E+02 -.110E+03   0.562E+00 -.145E+01 -.148E+01   -.440E-04 0.258E-04 -.308E-04
   0.278E+02 -.193E+02 -.904E+02   -.266E+02 0.172E+02 0.926E+02   -.161E+01 0.203E+01 -.219E+01   0.448E-04 -.377E-04 0.247E-05
   0.782E+01 0.286E+02 -.225E+03   -.676E+01 -.276E+02 0.222E+03   -.459E-01 -.867E+00 0.311E+01   -.473E-04 -.207E-04 0.339E-04
   -.139E+02 0.432E+01 0.783E+01   0.120E+02 -.388E+01 -.947E+01   0.103E+01 -.298E+00 0.163E+01   0.139E-04 0.205E-04 0.871E-05
   0.818E+01 0.862E+01 0.116E+03   -.757E+01 -.936E+01 -.115E+03   -.970E+00 0.161E+01 -.151E+01   -.115E-04 -.406E-04 0.321E-04
   0.126E+02 0.139E+01 -.188E+03   -.132E+02 -.499E+00 0.188E+03   0.159E+01 -.922E+00 0.852E+00   0.101E-03 0.132E-03 -.437E-04
   0.337E+02 0.788E+01 0.152E+03   -.325E+02 -.646E+01 -.150E+03   -.110E+01 -.239E+01 -.250E+01   -.665E-04 -.179E-04 0.326E-05
   -.128E+02 0.316E+02 0.473E+02   0.114E+02 -.288E+02 -.462E+02   0.229E+01 -.291E+01 -.150E+01   0.283E-04 0.148E-04 -.112E-04
   0.829E+01 0.420E+01 -.123E+03   -.895E+01 -.447E+01 0.125E+03   0.209E+01 0.336E+00 -.696E+00   0.543E-04 0.380E-05 -.193E-05
   -.590E+01 0.755E+01 -.304E+03   0.497E+01 -.551E+01 0.304E+03   0.234E+01 -.236E+01 -.358E+00   0.113E-04 0.246E-04 0.238E-04
   0.222E+02 0.252E+02 0.301E+03   -.223E+02 -.264E+02 -.304E+03   0.736E+00 0.826E+00 0.279E+01   -.218E-04 -.461E-04 -.259E-04
   -.183E+02 -.513E+01 0.120E+03   0.178E+02 0.730E+01 -.121E+03   0.430E+00 -.356E+01 0.871E+00   0.836E-04 -.201E-04 -.306E-05
   0.913E+01 0.223E+02 0.929E+02   -.957E+01 -.225E+02 -.907E+02   0.852E+00 0.535E+00 -.187E+01   0.829E-05 -.942E-06 0.137E-04
   -.654E+00 0.228E+01 -.159E+03   0.982E-01 -.394E+01 0.159E+03   0.126E+01 0.121E+01 0.544E+00   -.157E-04 0.516E-05 0.127E-04
   -.120E+02 -.166E+02 0.276E+03   0.119E+02 0.153E+02 -.273E+03   0.209E+00 0.701E+00 -.351E+01   0.289E-04 -.938E-05 -.173E-04
   0.727E+01 -.321E+02 -.231E+03   -.858E+01 0.324E+02 0.230E+03   0.234E+01 -.461E-01 0.157E+01   0.663E-04 0.444E-04 0.242E-04
   -.258E+01 -.111E+02 -.239E+03   0.180E+01 0.111E+02 0.238E+03   0.137E+01 -.257E+00 0.162E+01   -.116E-04 -.117E-04 0.460E-04
   0.136E+02 -.129E+02 0.261E+03   -.134E+02 0.113E+02 -.261E+03   -.353E+00 0.157E+01 -.725E+00   0.254E-05 0.172E-05 -.551E-05
   0.343E+01 0.482E-01 0.684E+02   -.423E+01 0.229E+01 -.673E+02   0.121E+01 -.915E+00 -.603E+00   0.156E-04 -.400E-04 -.451E-04
   0.140E+02 -.899E+00 0.234E+03   -.136E+02 -.621E+00 -.233E+03   -.155E-01 0.213E+01 -.248E+01   0.599E-04 0.469E-04 -.352E-04
   -.177E+02 0.858E+01 0.295E+03   0.169E+02 -.110E+02 -.298E+03   0.391E+00 0.211E+01 0.296E+01   0.445E-04 0.160E-04 0.107E-04
   0.258E+02 -.463E+01 0.306E+03   -.266E+02 0.377E+01 -.309E+03   0.645E+00 0.166E+01 0.170E+01   0.362E-04 0.542E-05 -.362E-04
   0.203E+02 -.178E+02 0.232E+03   -.166E+02 0.156E+02 -.231E+03   -.394E+01 0.200E+01 -.991E+00   -.464E-04 0.329E-04 -.277E-04
   -.143E+02 0.557E+01 -.908E+02   0.143E+02 -.523E+01 0.923E+02   -.646E+00 0.288E-01 -.177E+01   -.604E-04 -.261E-04 0.134E-04
   -.180E+02 -.122E+02 0.245E+03   0.172E+02 0.121E+02 -.242E+03   0.122E+01 -.123E+01 -.365E+01   0.895E-05 0.583E-05 -.228E-04
   -.171E+02 0.167E+02 0.228E+03   0.173E+02 -.179E+02 -.227E+03   -.443E-01 0.190E+01 -.247E+01   0.428E-04 -.197E-04 -.131E-04
   0.934E+01 -.264E+02 -.803E+02   -.727E+01 0.266E+02 0.833E+02   -.333E+01 0.681E+00 -.209E+01   -.368E-04 -.142E-04 0.444E-04
   0.285E+02 -.109E+00 -.106E+03   -.267E+02 -.181E+00 0.105E+03   -.238E+01 0.325E+00 0.245E+01   0.168E-04 -.496E-04 0.286E-04
   -.561E+00 -.219E+01 -.116E+03   0.682E+00 0.177E+01 0.117E+03   -.123E+00 0.105E+01 0.103E+01   -.226E-04 -.290E-04 0.298E-04
   0.526E+01 -.393E+01 -.225E+03   -.460E+01 0.282E+01 0.222E+03   -.103E+01 0.156E+01 0.188E+01   0.608E-04 0.435E-04 0.283E-05
   -.498E+01 -.584E+02 -.242E+03   0.446E+01 0.593E+02 0.240E+03   0.318E+00 -.899E-01 0.167E+01   -.615E-04 0.448E-05 0.255E-04
   -.253E+02 -.812E+01 -.281E+03   0.263E+02 0.800E+01 0.283E+03   -.975E+00 -.784E+00 -.200E+00   -.108E-04 -.118E-04 0.151E-04
   -.871E+01 0.354E+02 -.261E+03   0.868E+01 -.361E+02 0.260E+03   0.107E+01 0.978E+00 0.116E+01   0.320E-04 -.117E-03 0.237E-04
   0.352E+01 0.993E+01 0.264E+03   -.370E+01 -.965E+01 -.264E+03   0.223E+00 -.330E+00 -.547E+00   0.345E-04 0.536E-04 -.162E-04
   0.478E+01 0.264E+02 -.280E+03   -.242E+01 -.228E+02 0.279E+03   -.280E+01 -.290E+01 0.178E+01   -.315E-04 0.109E-04 0.366E-05
   0.284E+02 -.173E+02 -.492E+02   -.261E+02 0.178E+02 0.487E+02   -.255E+01 -.672E+00 0.184E+01   -.484E-04 0.182E-04 -.268E-05
   -.463E+01 0.723E+01 -.285E+03   0.363E+01 -.612E+01 0.281E+03   -.206E+00 -.108E+01 0.354E+01   -.314E-04 0.116E-04 0.502E-04
   0.229E+02 -.531E+01 0.312E+03   -.225E+02 0.554E+01 -.312E+03   -.173E+00 -.112E+01 -.124E+00   -.308E-04 -.115E-04 -.777E-05
   0.273E+02 -.701E+01 -.293E+03   -.294E+02 0.882E+01 0.297E+03   0.240E+01 -.234E+01 -.400E+01   0.458E-04 -.386E-04 -.111E-05
   -.922E+00 -.225E+01 0.915E+02   0.758E+00 0.244E+01 -.898E+02   -.702E+00 -.440E+00 -.185E+01   0.249E-04 -.274E-04 0.200E-04
   -.128E+02 0.105E+02 -.130E+03   0.141E+02 -.112E+02 0.128E+03   0.174E+00 0.709E+00 0.220E+01   -.260E-04 0.171E-04 0.640E-05
   -.118E+02 -.238E+02 -.943E+02   0.108E+02 0.225E+02 0.944E+02   0.579E+00 0.165E+01 -.355E+00   0.718E-04 -.307E-04 0.373E-04
   0.416E+00 -.597E+01 0.126E+03   -.578E+00 0.616E+01 -.127E+03   0.209E-01 -.800E+00 0.508E+00   -.202E-04 0.114E-04 0.171E-05
   -.306E+02 0.827E+01 -.176E+03   0.303E+02 -.860E+01 0.174E+03   0.331E+00 -.112E+00 0.185E+01   0.299E-04 -.163E-04 0.195E-04
   0.765E+01 -.443E+01 -.265E+03   -.753E+01 0.636E+01 0.262E+03   0.520E+00 -.180E+01 0.349E+01   0.179E-04 0.192E-04 -.450E-05
   -.361E+02 0.404E+01 -.229E+03   0.351E+02 -.472E+01 0.228E+03   0.546E+00 0.518E+00 0.106E+01   -.384E-04 0.603E-05 0.179E-04
   0.286E+02 -.306E+02 0.203E+03   -.262E+02 0.293E+02 -.201E+03   -.184E+01 0.891E+00 -.264E+01   0.438E-04 0.437E-04 -.165E-04
   0.616E+01 0.312E+02 -.841E+02   -.530E+01 -.297E+02 0.828E+02   -.219E+01 -.299E+01 0.123E+01   0.924E-04 -.430E-04 -.652E-05
   0.684E+00 -.175E+02 0.152E+03   -.383E+00 0.168E+02 -.151E+03   0.179E+00 0.114E+01 -.623E+00   -.414E-04 0.617E-05 -.107E-05
   -.310E+02 0.182E+02 -.178E+03   0.295E+02 -.187E+02 0.179E+03   0.715E+00 0.436E+00 -.375E+00   -.544E-04 0.177E-04 0.147E-04
   -.273E+02 0.217E+02 0.253E+03   0.239E+02 -.193E+02 -.250E+03   0.347E+01 -.192E+01 -.280E+01   0.566E-04 -.475E-04 -.204E-04
   0.945E+01 -.446E+02 0.262E+03   -.968E+01 0.426E+02 -.260E+03   -.409E+00 0.242E+01 -.249E+01   -.221E-04 -.301E-04 -.908E-05
   0.191E+02 0.682E+01 -.312E+03   -.187E+02 -.452E+01 0.315E+03   0.487E-01 -.264E+01 -.248E+01   0.336E-04 0.127E-04 0.164E-04
 -----------------------------------------------------------------------------------------------
   -.808E+01 0.713E+01 -.127E+01   0.284E-13 0.586E-13 0.227E-12   0.807E+01 -.714E+01 0.126E+01   0.761E-04 0.344E-04 0.122E-03


 POSITION                                       TOTAL-FORCE (eV/Angst)
 -----------------------------------------------------------------------------------
     13.27360     12.59080     16.31636        -1.199215      0.061348      0.144141
     10.26360      9.03114     16.20137        -0.083087     -0.087729      0.343198
     13.06940     14.32130     16.19471        -0.242901      0.765070     -0.009077
     14.27800     11.93610     13.91742        -0.279445      0.082784     -0.279998
     12.91090      0.49648     16.12315         0.044066     -0.560792      0.118431
     11.49080     11.36040     15.48658         0.327358      0.116662     -0.026220
      7.78309      9.95478     11.04477        -0.143972      0.853123     -0.375883
     12.82450      9.59459     12.68405        -1.091279      0.095231     -0.239581
      0.55615      5.60757     12.84222         1.508704      1.187364      1.919946
      9.23720      4.76123     11.11520        -0.963331     -0.429230     -0.019949
      8.19163     13.18460     12.47391         0.190757     -0.913735      0.339646
     10.07450     13.83930     11.38323         0.051734      0.310446     -0.300045
      1.92934      2.97513     11.00554         0.606697     -0.694569      0.366792
      2.48310      8.57414     12.09850        -0.748755     -0.007908      0.392667
      7.15124     10.97030     10.00000        -0.601694     -1.084271      0.218816
     11.81370      6.89085     10.73414         0.484109      1.771766     -0.189396
      5.77548     14.00530     15.59070        -1.260481      0.579750     -0.607996
      3.13505      1.62883     13.89699        -0.220473      0.468398      0.468088
      9.11335      2.59234     11.93734        -0.112792     -0.045754      0.152995
      3.43885     14.11420     13.09887         0.013677     -0.436428     -0.590358
      6.39375      4.90330     14.09571         0.321663     -0.154298     -0.212836
      9.14904     11.12310     13.32915        -0.966655      1.069274      0.936574
      9.13390     13.61870     16.05955         0.067066     -0.840137     -0.188529
      5.36309      7.74764     15.94544        -0.591272      0.699942     -0.404636
      1.12973     14.03580     12.39239        -0.536132      0.001987     -0.621000
     11.23640     14.08230     13.41627         0.750572     -1.046574     -0.656352
     11.03830     11.92940     10.52343         0.529883     -0.313679     -0.163778
     10.67010     10.10810     12.05545        -0.108712      0.018281     -1.408024
      2.72003      5.12341     13.96408        -0.511912      0.052404     -0.116816
     10.04980      6.00224     15.10893         1.075074      0.294321     -0.045519
      5.40598      9.97936     13.08553        -0.923681      0.147807      0.068803
      5.90544      3.66957     12.21436        -0.453205      0.944935     -0.719880
      1.16125     13.49740     14.87801         1.142340     -0.061543      0.991551
      6.98785      1.75510     12.02281         0.149162     -0.978217     -0.373569
     13.33880      0.21585     12.68812         0.968880     -0.190478     -0.522296
      3.64070     10.82360     14.40839         1.539527      0.078819      0.804311
     14.55318     11.94530     16.32742         1.359817     -0.402414     -0.675515
      5.98223      4.87842     10.10663         0.639821     -0.179474      0.388318
      0.01440      3.70024     11.99000        -0.017359     -1.571076      0.206751
      4.64774      7.87664     12.36909         0.461628      0.415524      0.237379
     12.82340      8.41021     14.62932         0.808570     -0.411225      0.628769
     12.74480      3.58452     10.73682         0.146926     -0.552201     -0.490909
      1.02660      1.29232     15.00494         1.226541      0.235612      0.011132
     11.96510      2.86088     14.85117         0.682158     -0.205291      0.103148
      6.05268      7.11446     10.71461        -0.129218     -0.052045     -0.119383
     14.54242     10.98970     12.73688         0.440687      1.390279      0.565929
      4.92662     10.70920     10.99179         0.413918      0.791311     -1.065004
      1.28620      0.82986     10.25878        -0.356628     -0.043210      0.610603
      2.91995      9.69977     10.14676         0.001426      0.874772     -0.241154
      9.99578      8.16586     10.90785        -0.333129     -0.181331      0.451622
      8.14942      6.41729     14.01170        -0.673267      0.365814     -0.380761
     13.58470      8.36633     11.00937         0.371739     -1.563004     -0.891692
      0.96228      7.07488     11.20137         0.010371      0.974831     -0.553988
     10.48120      1.61053     13.71472        -1.430262      0.860496      0.757886
      4.70121      6.39356     14.09591        -0.680123      0.035683      1.144948
     11.77540      4.92709     13.98392        -0.018154      0.715119      1.728389
      3.62263     12.98230     15.13319        -0.411149      0.530966     -0.464013
      8.62090      1.17231     15.28811        -0.134574      0.527601     -0.476917
      6.05409      3.60940     15.92930        -0.090453     -1.010747      0.762659
     14.53990      9.68230     15.58072         1.076820      0.446004     -0.335012
      0.37734     12.32640     10.94363         0.080110     -0.059431     -0.583474
      7.31110     12.25010     15.89577        -0.594345      0.651508      0.291160
      7.08481      0.20848     13.69351        -0.364503     -0.258304      1.391418
     11.12080      7.83428     15.93399        -1.285234      0.056381     -0.088455
     10.17520      1.34486     10.28507         0.313767     -1.050022     -0.416218
      2.59821      4.57978     16.24461         0.479397     -0.671629     -0.220928
      3.64574      3.50527     12.56944        -0.942847     -0.298090     -0.239439
      7.17163     10.40350     14.43471         1.560216     -0.042058      0.555759
     13.93080      2.21507     13.76264        -0.314649      0.362404     -0.293619
     11.36070      5.02058     11.79456        -0.132602     -0.641937     -1.264049
     13.62490      6.28019     14.43125         0.022497     -0.417126     -0.061797
      4.58903      1.82798     15.71842         0.766335      0.085598     -0.180125
      7.53849      8.26182     15.32688        -0.614792     -0.164684      0.233630
      4.46900     13.01680     11.40728         0.646517     -0.418100     -0.378602
      1.71159      9.98329     13.86743        -1.430222     -1.646423     -0.072962
      8.16298      6.76120     11.62485         0.529083      0.509569      0.227944
     10.61700     12.32160     14.78203        -0.759069     -0.031396      0.191145
     12.40470      1.34038     10.86545         0.141348      0.462441     -0.234497
      6.68880     13.11410     10.77758        -0.678941      0.446031      0.027216
      4.46835      9.92571     16.44651         0.479556     -0.621096      0.018489
 -----------------------------------------------------------------------------------
    total drift:                               -0.004447     -0.005734     -0.003050


--------------------------------------------------------------------------------------------------------



  FREE ENERGIE OF THE ION-ELECTRON SYSTEM (eV)
  ---------------------------------------------------
  free  energy   TOTEN  =      -690.94370602 eV

  energy  without entropy=     -690.72592411  energy(sigma->0) =     -690.83481507



--------------------------------------------------------------------------------------------------------


    POTLOK:  cpu time      3.4499: real time      3.4552


--------------------------------------------------------------------------------------------------------


     LOOP+:  cpu time   8285.6509: real time   8291.8018
    4ORBIT:  cpu time      0.0000: real time      0.0000



 total charge

# of ion       s       p       d       tot
------------------------------------------
    1        0.596   0.020   0.000   0.616
    2        0.558   0.016   0.000   0.574
    3        0.596   0.031   0.000   0.626
    4        0.549   0.019   0.000   0.568
    5        0.596   0.030   0.000   0.626
    6        0.566   0.017   0.000   0.582
    7        0.521   0.013   0.000   0.534
    8        0.780   0.998   0.000   1.778
    9        0.767   0.980   0.000   1.747
   10        0.788   0.895   0.000   1.683
   11        0.771   0.955   0.000   1.726
   12        0.769   0.961   0.000   1.729
   13        0.802   0.862   0.000   1.664
   14        0.756   0.968   0.000   1.724
   15        0.810   0.817   0.000   1.627
   16        0.785   0.941   0.000   1.726
   17        0.773   0.824   0.000   1.597
   18        0.772   0.913   0.000   1.685
   19        0.764   0.925   0.000   1.688
   20        0.780   0.925   0.000   1.705
   21        0.765   0.990   0.000   1.754
   22        0.761   0.932   0.000   1.693
   23        0.791   0.877   0.000   1.668
   24        0.796   0.844   0.000   1.640
   25        0.763   0.860   0.000   1.623
   26        0.766   0.949   0.000   1.715
   27        0.866   0.728   0.000   1.594
   28        0.754   0.958   0.000   1.712
   29        0.759   0.936   0.000   1.695
   30        0.779   0.919   0.000   1.698
   31        0.765   0.956   0.000   1.721
   32        0.765   0.967   0.000   1.732
   33        0.794   0.803   0.000   1.597
   34        0.791   0.931   0.000   1.722
   35        0.782   0.881   0.000   1.663
   36        0.761   0.993   0.000   1.754
   37        0.794   0.874   0.000   1.668
   38        0.871   0.713   0.000   1.584
   39        0.768   1.017   0.000   1.785
   40        0.766   0.957   0.000   1.723
   41        0.767   0.973   0.000   1.740
   42        0.799   0.930   0.000   1.729
   43        0.802   0.847   0.000   1.649
   44        0.810   0.909   0.000   1.718
   45        0.792   0.888   0.000   1.680
   46        0.777   0.991   0.000   1.768
   47        0.774   0.894   0.000   1.669
   48        0.890   0.666   0.000   1.555
   49        0.879   0.716   0.000   1.595
   50        0.782   0.884   0.000   1.666
   51        0.761   0.933   0.000   1.695
   52        0.788   0.897   0.000   1.685
   53        0.799   0.888   0.000   1.687
   54        0.774   0.910   0.000   1.684
   55        0.774   0.941   0.000   1.715
   56        0.762   0.986   0.000   1.747
   57        0.777   0.907   0.000   1.684
   58        0.823   0.794   0.000   1.617
   59        0.837   0.779   0.000   1.615
   60        0.802   0.821   0.000   1.623
   61        0.867   0.736   0.000   1.603
   62        0.783   0.863   0.000   1.646
   63        0.778   0.889   0.000   1.667
   64        0.771   0.939   0.000   1.710
   65        0.823   0.848   0.000   1.671
   66        0.920   0.605   0.000   1.524
   67        0.760   0.937   0.000   1.697
   68        0.751   0.927   0.000   1.678
   69        0.773   0.926   0.000   1.699
   70        0.771   1.010   0.000   1.781
   71        0.796   0.888   0.000   1.685
   72        0.800   0.798   0.000   1.598
   73        0.806   0.853   0.000   1.658
   74        0.791   0.865   0.000   1.656
   75        0.760   0.951   0.000   1.711
   76        0.761   0.893   0.000   1.654
   77        0.743   0.969   0.000   1.712
   78        0.792   0.871   0.000   1.663
   79        0.804   0.858   0.000   1.662
   80        0.871   0.711   0.000   1.581
--------------------------------------------------
tot         61.645  65.078   0.000 126.724


 total amount of memory used by VASP MPI-rank0   389403. kBytes
=======================================================================

   base                                    :      30000. kBytes
   nonl-proj                               :      76474. kBytes
   fftplans                                :     102076. kBytes
   grid                                    :      78750. kBytes
   one-center                              :         15. kBytes
   wavefun                                 :     102088. kBytes

  
  
 General timing and accounting informations for this job:
 ========================================================
  
                  Total CPU time used (sec):     8440.069
                            User time (sec):     7454.374
                          System time (sec):      985.695
                         Elapsed time (sec):     8446.258
  
                   Maximum memory used (kb):      645804.
                   Average memory used (kb):          N/A
  
                          Minor page faults:     10189959
                          Major page faults:         1156
                 Voluntary context switches:         3005
