 vasp.6.5.0 16Dec24 (build Jan 20 2025 08:32:48) complex                         
 executed on        HPECrayEX_GCC date 2025.07.21  23:50:38
 running  128 mpi-ranks, with    1 threads/rank, on    1 nodes
 distrk:  each k-point on  128 cores,    1 groups
 distr:  one band on NCORE=  16 cores,    8 groups


--------------------------------------------------------------------------------------------------------


 INCAR:
   SYSTEM = a-Si SPC
   NCORE = 16
   ISTART = 1
   ICHARG = 1
   ISPIN = 1
   ISYM = 1
   EDIFF = 1E-6
   NELM = 150
   EDIFFG = -0.01
   NSW = 0
   ISIF = 2
   IBRION = -1
   PREC = Accurate
   ENCUT = 1200
   KSPACING = 0.23
   KGAMMA = .TRUE.
   METAGGA = SCAN
   LASPH = .TRUE.
   LDIAG = .FALSE.
   LMIXTAU = .TRUE.
   ADDGRID = .TRUE.
   ALGO = Normal
   ISMEAR = 0
   SIGMA = 0.1
   LORBIT = 11
   NEDOS = 2000
   LWAVE = .FALSE.
   LCHARG = .FALSE.

 POTCAR:    PAW_PBE H 15Jun2001                   
 POTCAR:    PAW_PBE Si 05Jan2001                  
 POTCAR:    PAW_PBE H 15Jun2001                   
   SHA256 =  030f79b5d3ab3cf0e668861823c8fb652ff669f3e15e46930bd03bfd63a607b6 H/POTCAR              
   COPYR  = (c) Copyright 15Jun2001 Georg Kresse                                                    
   COPYR  = This file is part of the software VASP. Any use, copying, and all other rights are regul
   COPYR  = If you do not have a valid VASP license, you may not use, copy or distribute this file. 
   VRHFIN =H: ultrasoft test                                                                        
   LEXCH  = PE                                                                                      
   EATOM  =    12.4884 eV,    0.9179 Ry                                                             
                                                                                                    
   TITEL  = PAW_PBE H 15Jun2001                                                                     
   LULTRA =        F    use ultrasoft PP ?                                                          
   IUNSCR =        0    unscreen: 0-lin 1-nonlin 2-no                                               
   RPACOR =    0.000    partial core radius                                                         
   POMASS =    1.000; ZVAL   =    1.000    mass and valenz                                          
   RCORE  =    1.100    outmost cutoff radius                                                       
   RWIGS  =    0.700; RWIGS  =    0.370    wigner-seitz radius (au A)                               
   ENMAX  =  250.000; ENMIN  =  200.000 eV                                                          
   RCLOC  =    0.701    cutoff for local pot                                                        
   LCOR   =        T    correct aug charges                                                         
   LPAW   =        T    paw PP                                                                      
   EAUG   =  400.000                                                                                
   RMAX   =    1.123    core radius for proj-oper                                                   
   RAUG   =    1.200    factor for augmentation sphere                                              
   RDEP   =    1.112    radius for radial grids                                                     
   RDEPT  =    0.926    core radius for aug-charge                                                  
                                                                                                    
   Atomic configuration                                                                             
    2 entries                                                                                       
     n  l   j            E        occ.                                                              
     1  0  0.50        -6.4927   1.0000                                                             
     2  1  0.50        -3.4015   0.0000                                                             
   Description                                                                                      
     l       E           TYP  RCUT    TYP  RCUT                                                     
     0     -6.4927494     23  1.100                                                                 
     0      6.8029130     23  1.100                                                                 
     1     -4.0817478     23  1.100                                                                 
  local pseudopotential read in
  atomic valenz-charges read in
  non local Contribution for L=           0  read in
    real space projection operators read in
  non local Contribution for L=           0  read in
    real space projection operators read in
  non local Contribution for L=           1  read in
    real space projection operators read in
    PAW grid and wavefunctions read in

   number of l-projection  operators is LMAX  =           3
   number of lm-projection operators is LMMAX =           5

 POTCAR:    PAW_PBE Si 05Jan2001                  
   SHA256 =  79d9987ad8750f624c4d6acb2a16d13abf6a777132adc04dc6c8399be72b42bb Si/POTCAR             
   COPYR  = (c) Copyright 05Jan2001 Georg Kresse                                                    
   COPYR  = This file is part of the software VASP. Any use, copying, and all other rights are regul
   COPYR  = If you do not have a valid VASP license, you may not use, copy or distribute this file. 
   VRHFIN =Si: s2p2                                                                                 
   LEXCH  = PE                                                                                      
   EATOM  =   103.0669 eV,    7.5752 Ry                                                             
                                                                                                    
   TITEL  = PAW_PBE Si 05Jan2001                                                                    
   LULTRA =        F    use ultrasoft PP ?                                                          
   IUNSCR =        1    unscreen: 0-lin 1-nonlin 2-no                                               
   RPACOR =    1.500    partial core radius                                                         
   POMASS =   28.085; ZVAL   =    4.000    mass and valenz                                          
   RCORE  =    1.900    outmost cutoff radius                                                       
   RWIGS  =    2.480; RWIGS  =    1.312    wigner-seitz radius (au A)                               
   ENMAX  =  245.345; ENMIN  =  184.009 eV                                                          
   ICORE  =        2    local potential                                                             
   LCOR   =        T    correct aug charges                                                         
   LPAW   =        T    paw PP                                                                      
   EAUG   =  322.069                                                                                
   DEXC   =    0.000                                                                                
   RMAX   =    1.950    core radius for proj-oper                                                   
   RAUG   =    1.300    factor for augmentation sphere                                              
   RDEP   =    1.993    radius for radial grids                                                     
   RDEPT  =    1.837    core radius for aug-charge                                                  
                                                                                                    
   Atomic configuration                                                                             
    6 entries                                                                                       
     n  l   j            E        occ.                                                              
     1  0  0.50     -1785.8828   2.0000                                                             
     2  0  0.50      -139.4969   2.0000                                                             
     2  1  1.50       -95.5546   6.0000                                                             
     3  0  0.50       -10.8127   2.0000                                                             
     3  1  0.50        -4.0811   2.0000                                                             
     3  2  1.50        -4.0817   0.0000                                                             
   Description                                                                                      
     l       E           TYP  RCUT    TYP  RCUT                                                     
     0    -10.8127223     23  1.900                                                                 
     0     -7.6451159     23  1.900                                                                 
     1     -4.0811372     23  1.900                                                                 
     1      2.4879257     23  1.900                                                                 
     2     -4.0817478      7  1.900                                                                 
  local pseudopotential read in
  partial core-charges read in
  partial kinetic energy density read in
  atomic valenz-charges read in
  non local Contribution for L=           0  read in
    real space projection operators read in
  non local Contribution for L=           0  read in
    real space projection operators read in
  non local Contribution for L=           1  read in
    real space projection operators read in
  non local Contribution for L=           1  read in
    real space projection operators read in
    PAW grid and wavefunctions read in

   number of l-projection  operators is LMAX  =           4
   number of lm-projection operators is LMMAX =           8

 -----------------------------------------------------------------------------
|                                                                             |
|               ----> ADVICE to this user running VASP <----                  |
|                                                                             |
|     You have a (more or less) 'large supercell' and for larger cells it     |
|     might be more efficient to use real-space projection operators.         |
|     Therefore, try LREAL= Auto in the INCAR file.                           |
|     Mind: For very accurate calculation, you might also keep the            |
|     reciprocal projection scheme (i.e. LREAL=.FALSE.).                      |
|                                                                             |
 -----------------------------------------------------------------------------

 -----------------------------------------------------------------------------
|                                                                             |
|               ----> ADVICE to this user running VASP <----                  |
|                                                                             |
|     You enforced a specific xc type in the INCAR file but a different       |
|     type was found in the POTCAR file.                                      |
|     I HOPE YOU KNOW WHAT YOU ARE DOING!                                     |
|                                                                             |
 -----------------------------------------------------------------------------

  PAW_PBE H 15Jun2001                   :
 energy of atom  1       EATOM=  -12.4884
 kinetic energy error for atom=    0.0000 (will be added to EATOM!!)
  PAW_PBE Si 05Jan2001                  :
 energy of atom  2       EATOM= -103.0669
 kinetic energy error for atom=    0.0001 (will be added to EATOM!!)


 POSCAR:  H Si
  positions in cartesian coordinates
  No initial velocities read in


 exchange-correlation table for SCAN
   RHO(1)=    0.500       N(1)  =     2000
   RHO(2)=  100.500       N(2)  =     4000



--------------------------------------------------------------------------------------------------------


 ion  position               nearest neighbor table
   1  0.866  0.764  0.650-
   2  0.976  0.912  0.535-  54 1.59
   3  0.287  0.910  0.375-  32 1.45
   4  0.445  0.298  0.514-  66 1.52
   5  0.532  0.625  0.590-  31 1.50
   6  0.207  0.733  0.363-  57 1.47
   7  0.948  0.337  0.583-  81 1.48
   8  0.052  0.381  0.516-  18 1.42
   9  0.795  0.996  0.352-  34 2.25  36 2.42  94 2.46
  10  0.276  0.917  0.628-  46 2.18  74 2.30 103 2.36
  11  0.321  0.586  0.625-  16 2.35  99 2.37  89 2.44
  12  0.550  0.161  0.566-  66 2.23  76 2.24  40 2.25  56 2.28
  13  0.987  0.284  0.441-  73 2.31  90 2.38  85 2.40  91 2.44
  14  0.567  0.598  0.398-  60 2.20  83 2.31  33 2.44
  15  0.188  0.152  0.610-  63 2.22  72 2.36  46 2.37
  16  0.456  0.502  0.641-  97 2.34  11 2.35
  17  0.012  0.790  0.418-  38 2.28  82 2.35  49 2.40  68 2.44
  18  0.006  0.458  0.535-   8 1.42  86 2.24  51 2.32  64 2.40
  19  0.881  0.033  0.471-  59 2.36  96 2.38  23 2.40  34 2.41
  20  0.660  0.673  0.643-  44 2.48
  21  0.814  0.639  0.532-  44 2.32 101 2.35  25 2.35  51 2.41
  22  0.461  0.286  0.388-  41 2.34  52 2.38  77 2.38
  23  0.033  0.054  0.503-  98 2.34  72 2.35  19 2.40  85 2.46
  24  0.406  0.076  0.359-  77 2.24  32 2.36
  25  0.947  0.707  0.562-  54 2.33  21 2.35  82 2.42  42 2.43
  26  0.285  0.021  0.501-  27 2.30  98 2.32  46 2.41  88 2.45
  27  0.340  0.162  0.477-  66 2.27  77 2.30  26 2.30  61 2.39
  28  0.218  0.409  0.451- 102 2.36  61 2.38  73 2.41  41 2.42
  29  0.579  0.744  0.512-  60 2.25  44 2.30  31 2.32  45 2.43
  30  0.505  0.839  0.352-  43 2.29  32 2.42
  31  0.482  0.634  0.545-   5 1.50  89 2.26  50 2.30  29 2.32
  32  0.382  0.925  0.388-   3 1.45  88 2.33  24 2.36  30 2.42
  33  0.432  0.544  0.440-  41 2.35  65 2.39  50 2.39  14 2.44
  34  0.923  0.037  0.391-   9 2.25  49 2.34  19 2.41  90 2.41
  35  0.696  0.329  0.582-  69 2.21  76 2.24  87 2.40
  36  0.688  0.122  0.360-  79 2.32  92 2.41   9 2.42
  37  0.523  0.945  0.580- 100 2.31  56 2.34  45 2.40 103 2.51
  38  0.857  0.805  0.429-  17 2.28  94 2.32 101 2.40  96 2.40
  39  0.143  0.334  0.349-  73 2.33  55 2.34  47 2.46
  40  0.694  0.104  0.564-  12 2.25 100 2.31  87 2.37  59 2.56
  41  0.366  0.407  0.413-  22 2.34  33 2.35  55 2.35  28 2.42
  42  0.013  0.619  0.626-  86 2.27  25 2.43
  43  0.632  0.834  0.399-  30 2.29  94 2.31  60 2.36  84 2.40
  44  0.698  0.727  0.564-  29 2.30  21 2.32  70 2.33  20 2.48
  45  0.531  0.903  0.500-  84 2.19  88 2.38  37 2.40  29 2.43
  46  0.291  0.037  0.584-  10 2.18  56 2.34  15 2.37  26 2.41
  47  0.178  0.192  0.392-  77 2.26  85 2.38  39 2.46
  48  0.303  0.766  0.503-  80 2.26  89 2.30  65 2.36  88 2.47
  49  0.054  0.945  0.397-  34 2.34  17 2.40  98 2.66
  50  0.497  0.491  0.511-  31 2.30  97 2.36  33 2.39  67 2.47
  51  0.855  0.487  0.558-  18 2.32  69 2.40  78 2.41  21 2.41
  52  0.576  0.269  0.446-  66 2.28  67 2.35  22 2.38  79 2.46
  53  0.980  0.104  0.649-  72 2.31  71 2.51  81 3.11
  54  0.926  0.864  0.577-   2 1.59  71 2.25  70 2.25  25 2.33
  55  0.276  0.423  0.346-  39 2.34  41 2.35
  56  0.442  0.075  0.604-  12 2.28  46 2.34  37 2.34
  57  0.207  0.640  0.383-   6 1.47  65 2.33  68 2.36
  58  0.982  0.538  0.411-  64 2.28  73 2.32  95 2.32  68 2.38
  59  0.770  0.147  0.487-  79 2.18  91 2.21  19 2.36  40 2.56
  60  0.634  0.699  0.444-  14 2.20  29 2.25  43 2.36 101 2.40
  61  0.231  0.277  0.499-  28 2.38  27 2.39  85 2.40  75 2.40
  62  0.090  0.372  0.654-  63 2.34  86 2.37
  63  0.224  0.293  0.633-  15 2.22  75 2.29  62 2.34
  64  0.049  0.573  0.480-  58 2.28  82 2.31 102 2.33  18 2.40  73 3.15
  65  0.304  0.647  0.448- 102 2.33  57 2.33  48 2.36  33 2.39
  66  0.482  0.204  0.501-   4 1.52  12 2.23  27 2.27  52 2.28
  67  0.628  0.411  0.475-  83 2.29  69 2.31  52 2.35  50 2.47
  68  0.049  0.660  0.368-  57 2.36  58 2.38  17 2.44
  69  0.759  0.380  0.517-  35 2.21  67 2.31  91 2.34  51 2.40
  70  0.773  0.869  0.564- 100 2.21  54 2.25  96 2.32  44 2.33
  71  0.019  0.943  0.624-  54 2.25  74 2.45  53 2.51  72 2.95
  72  0.044  0.120  0.577-  53 2.31  23 2.35  15 2.36  81 2.38  71 2.95
  73  0.072  0.406  0.411-  13 2.31  58 2.32  39 2.33  28 2.41  64 3.15
  74  0.147  0.840  0.604-  10 2.30  71 2.45  80 2.45
  75  0.284  0.355  0.567-  63 2.29  99 2.31  61 2.40  97 2.41
  76  0.550  0.299  0.600-  35 2.24  12 2.24  97 2.37
  77  0.333  0.186  0.398-  24 2.24  47 2.26  27 2.30  22 2.38
  78  0.851  0.457  0.639-  51 2.41
  79  0.658  0.122  0.439-  59 2.18  36 2.32  52 2.46  84 2.53
  80  0.160  0.817  0.520-  48 2.26  82 2.37  98 2.40  74 2.45
  81  0.933  0.240  0.570-   7 1.48  87 2.27  91 2.35  72 2.38  53 3.11
  82  0.034  0.729  0.492-  64 2.31  17 2.35  80 2.37  25 2.42
  83  0.672  0.481  0.407-  67 2.29  14 2.31  93 2.36  95 2.36
  84  0.645  0.952  0.457-  45 2.19  96 2.35  43 2.40  79 2.53
  85  0.110  0.185  0.466-  47 2.38  61 2.40  13 2.40  23 2.46
  86  0.086  0.492  0.599-  18 2.24  42 2.27  99 2.30  62 2.37
  87  0.796  0.205  0.603-  81 2.27  40 2.37  35 2.40
  88  0.381  0.900  0.467-  32 2.33  45 2.38  26 2.45  48 2.47
  89  0.360  0.712  0.572-  31 2.26  48 2.30 103 2.31  11 2.44
  90  0.932  0.201  0.376-  13 2.38  92 2.39  34 2.41
  91  0.864  0.264  0.497-  59 2.21  69 2.34  81 2.35  13 2.44
  92  0.785  0.256  0.352-  90 2.39  36 2.41  93 2.42
  93  0.662  0.367  0.349-  83 2.36  92 2.42
  94  0.774  0.830  0.362-  43 2.31  38 2.32   9 2.46
  95  0.824  0.539  0.400-  58 2.32 101 2.35  83 2.36
  96  0.787  0.902  0.486-  70 2.32  84 2.35  19 2.38  38 2.40
  97  0.441  0.408  0.575-  16 2.34  50 2.36  76 2.37  75 2.41
  98  0.148  0.956  0.476-  26 2.32  23 2.34  80 2.40  49 2.66
  99  0.232  0.505  0.570-  86 2.30  75 2.31  11 2.37 102 2.43
 100  0.676  0.963  0.599-  70 2.21  37 2.31  40 2.31
 101  0.793  0.659  0.452-  95 2.35  21 2.35  60 2.40  38 2.40
 102  0.206  0.551  0.490-  64 2.33  65 2.33  28 2.36  99 2.43
 103  0.413  0.833  0.617-  89 2.31  10 2.36  37 2.51

  LATTYP: Found a simple tetragonal cell.
 ALAT       =    14.5353600448
 C/A-ratio  =     1.9908520539
  
  Lattice vectors:
  
 A1 = (  14.5353600448,   0.0000000000,   0.0000000000)
 A2 = (   0.0000000000,  14.5353600448,   0.0000000000)
 A3 = (   0.0000000000,   0.0000000000,  28.9377514000)


Analysis of symmetry for initial positions (statically):
=====================================================================
 Subroutine PRICEL returns:
 Original cell was already a primitive cell.
 

 Routine SETGRP: Setting up the symmetry group for a 
 simple tetragonal supercell.


 Subroutine GETGRP returns: Found  1 space group operations
 (whereof  1 operations were pure point group operations)
 out of a pool of 16 trial point group operations.


The static configuration has the point symmetry C_1 .


Analysis of symmetry for dynamics (positions and initial velocities):
=====================================================================
 Subroutine PRICEL returns:
 Original cell was already a primitive cell.
 

 Routine SETGRP: Setting up the symmetry group for a 
 simple tetragonal supercell.


 Subroutine GETGRP returns: Found  1 space group operations
 (whereof  1 operations were pure point group operations)
 out of a pool of 16 trial point group operations.


The dynamic configuration has the point symmetry C_1 .


 Subroutine INISYM returns: Found  1 space group operations
 (whereof  1 operations are pure point group operations),
 and found     1 'primitive' translations


----------------------------------------------------------------------------------------

                                     Primitive cell                                     

  volume of cell :    6113.8724

  direct lattice vectors                    reciprocal lattice vectors
    14.535360045  0.000000000  0.000000000     0.068797745  0.000000000  0.000000000
     0.000000000 14.535360045  0.000000000     0.000000000  0.068797745  0.000000000
     0.000000000  0.000000000 28.937751400     0.000000000  0.000000000  0.034556935

  length of vectors
    14.535360045 14.535360045 28.937751400     0.068797745  0.068797745  0.034556935

  position of ions in fractional coordinates (direct lattice)
     0.865792107  0.764281034  0.649661791
     0.976432641  0.912299383  0.534512554
     0.286819177  0.910434964  0.375022587
     0.445230113  0.297852959  0.514183400
     0.532171200  0.624854835  0.589843736
     0.206704202  0.732957420  0.363058804
     0.948259964  0.336678967  0.582794812
     0.051689948  0.381081032  0.516282388
     0.795363855  0.996397747  0.351683041
     0.276124567  0.916798756  0.628464567
     0.321456090  0.586445054  0.624550303
     0.549760720  0.160802346  0.566473572
     0.987316445  0.284411256  0.441074402
     0.566794354  0.597997571  0.397880307
     0.188109547  0.151586200  0.610325977
     0.455688059  0.502015084  0.640626535
     0.011739854  0.790437936  0.417822768
     0.005762843  0.458310629  0.535332244
     0.881367917  0.033050437  0.471260231
     0.660426709  0.673097878  0.643150228
     0.813829170  0.638562098  0.531525107
     0.460672455  0.286271547  0.388485313
     0.032662555  0.053606034  0.503015635
     0.405638387  0.075844011  0.359196997
     0.946588179  0.707440336  0.562496760
     0.284905223  0.021434282  0.500894185
     0.339643462  0.162187245  0.476804200
     0.217948506  0.408719838  0.450859544
     0.578794056  0.744212731  0.512497367
     0.505019482  0.838878429  0.352038459
     0.482440750  0.634092996  0.544679204
     0.382353790  0.925295277  0.387878493
     0.431516659  0.544302995  0.440038040
     0.923052471  0.037279434  0.390621622
     0.696219424  0.329215787  0.582072227
     0.687897649  0.122378806  0.359997612
     0.522624137  0.945033350  0.579970820
     0.857268066  0.804692829  0.429178177
     0.142654189  0.333861699  0.348913371
     0.693728946  0.104077917  0.563591524
     0.365875354  0.406854043  0.412817887
     0.012697449  0.619269834  0.625748392
     0.632291183  0.834454734  0.398877620
     0.697863690  0.727267847  0.564240157
     0.530786990  0.902612660  0.500096956
     0.291003456  0.036987525  0.583815970
     0.177854556  0.192029643  0.391552241
     0.302969447  0.765959699  0.503121034
     0.054429130  0.944861356  0.397458366
     0.497179291  0.491478022  0.511117163
     0.854977101  0.486913979  0.557773518
     0.575695406  0.268816183  0.446324983
     0.980154599  0.103588077  0.649155877
     0.925714943  0.863893289  0.576838579
     0.276328208  0.423384077  0.345569352
     0.441727620  0.075289501  0.604052511
     0.206967009  0.640155453  0.383486998
     0.981881423  0.537725930  0.410782484
     0.770115082  0.147186585  0.486694395
     0.633684337  0.698764941  0.443634034
     0.230636874  0.276616471  0.499285214
     0.090008778  0.371775449  0.654430648
     0.223871991  0.292881634  0.632999473
     0.049120008  0.572732287  0.479854540
     0.303689072  0.646967806  0.447819916
     0.482472397  0.203758283  0.500574879
     0.628252755  0.410992227  0.474646465
     0.048631269  0.660160462  0.367739610
     0.759079924  0.379632839  0.517332919
     0.773087145  0.868509618  0.564189704
     0.019045555  0.942611670  0.624494321
     0.043731356  0.120242636  0.576647825
     0.071591622  0.405819325  0.411459109
     0.146784118  0.840481417  0.603925342
     0.284498629  0.355130522  0.567183026
     0.549906571  0.298960603  0.600471722
     0.332512575  0.186298103  0.398477105
     0.850945554  0.456932610  0.639483046
     0.657856425  0.121565616  0.438633991
     0.159987781  0.816876910  0.520318638
     0.933110701  0.239809677  0.569645553
     0.034137992  0.729331779  0.492126054
     0.672433980  0.480752453  0.407140874
     0.644687161  0.951534737  0.456942601
     0.109806018  0.185342502  0.466181398
     0.086196007  0.492048355  0.599136442
     0.795831680  0.204636830  0.602826431
     0.380730851  0.899626838  0.467378105
     0.359806017  0.712290577  0.572298835
     0.932422723  0.200544052  0.376164867
     0.864223518  0.264381480  0.497393567
     0.785388182  0.255776946  0.351968101
     0.661678828  0.367454950  0.348964308
     0.773520571  0.829728329  0.362022476
     0.823584690  0.538951218  0.399845560
     0.787355797  0.902248032  0.486152196
     0.440560810  0.408432951  0.575122827
     0.148369906  0.955813957  0.476142089
     0.232205462  0.504846112  0.569527714
     0.675865611  0.962514857  0.599031734
     0.793052251  0.659407814  0.451684418
     0.206459970  0.550997703  0.490012552
     0.413430419  0.832858626  0.616700349

  ion indices of the primitive-cell ions
   primitive index   ion index
                 1           1
                 2           2
                 3           3
                 4           4
                 5           5
                 6           6
                 7           7
                 8           8
                 9           9
                10          10
                11          11
                12          12
                13          13
                14          14
                15          15
                16          16
                17          17
                18          18
                19          19
                20          20
                21          21
                22          22
                23          23
                24          24
                25          25
                26          26
                27          27
                28          28
                29          29
                30          30
                31          31
                32          32
                33          33
                34          34
                35          35
                36          36
                37          37
                38          38
                39          39
                40          40
                41          41
                42          42
                43          43
                44          44
                45          45
                46          46
                47          47
                48          48
                49          49
                50          50
                51          51
                52          52
                53          53
                54          54
                55          55
                56          56
                57          57
                58          58
                59          59
                60          60
                61          61
                62          62
                63          63
                64          64
                65          65
                66          66
                67          67
                68          68
                69          69
                70          70
                71          71
                72          72
                73          73
                74          74
                75          75
                76          76
                77          77
                78          78
                79          79
                80          80
                81          81
                82          82
                83          83
                84          84
                85          85
                86          86
                87          87
                88          88
                89          89
                90          90
                91          91
                92          92
                93          93
                94          94
                95          95
                96          96
                97          97
                98          98
                99          99
               100         100
               101         101
               102         102
               103         103

----------------------------------------------------------------------------------------


 -----------------------------------------------------------------------------
|                                                                             |
|           W    W    AA    RRRRR   N    N  II  N    N   GGGG   !!!           |
|           W    W   A  A   R    R  NN   N  II  NN   N  G    G  !!!           |
|           W    W  A    A  R    R  N N  N  II  N N  N  G       !!!           |
|           W WW W  AAAAAA  RRRRR   N  N N  II  N  N N  G  GGG   !            |
|           WW  WW  A    A  R   R   N   NN  II  N   NN  G    G                |
|           W    W  A    A  R    R  N    N  II  N    N   GGGG   !!!           |
|                                                                             |
|     The requested file  could not be found or opened for reading            |
|     k-point information. Automatic k-point generation is used as a          |
|     fallback, which may lead to unwanted results.                           |
|                                                                             |
 -----------------------------------------------------------------------------



Automatic generation of k-mesh.
 Grid dimensions derived from KSPACING:
 generate k-points for:    2    2    1

 Generating k-lattice:

  Cartesian coordinates                     Fractional coordinates (reciprocal lattice)
     0.034398873  0.000000000  0.000000000     0.500000000  0.000000000  0.000000000
     0.000000000  0.034398873  0.000000000     0.000000000  0.500000000  0.000000000
     0.000000000  0.000000000  0.034556935     0.000000000  0.000000000  1.000000000

  Length of vectors
     0.034398873  0.034398873  0.034556935

  Shift w.r.t. Gamma in fractional coordinates (k-lattice)
     0.000000000  0.000000000  0.000000000

 
 Subroutine IBZKPT returns following result:
 ===========================================
 
 Found      4 irreducible k-points:
 
 Following reciprocal coordinates:
            Coordinates               Weight
  0.000000  0.000000  0.000000      1.000000
  0.500000  0.000000  0.000000      1.000000
  0.000000  0.500000  0.000000      1.000000
  0.500000  0.500000  0.000000      1.000000
 
 Following cartesian coordinates:
            Coordinates               Weight
  0.000000  0.000000  0.000000      1.000000
  0.034399  0.000000  0.000000      1.000000
  0.000000  0.034399  0.000000      1.000000
  0.034399  0.034399  0.000000      1.000000
 


--------------------------------------------------------------------------------------------------------




 Dimension of arrays:
   k-points           NKPTS =      4   k-points in BZ     NKDIM =      4   number of bands    NBANDS=    248
   number of dos      NEDOS =   2000   number of ions     NIONS =    103
   non local maximal  LDIM  =      4   non local SUM 2l+1 LMDIM =      8
   total plane-waves  NPLWV = ******
   max r-space proj   IRMAX =      1   max aug-charges    IRDMAX= 415040
   dimension x,y,z NGX =   168 NGY =  168 NGZ =  336
   dimension x,y,z NGXF=   336 NGYF=  336 NGZF=  672
   support grid    NGXF=   672 NGYF=  672 NGZF= 1344
   ions per type =               8  95
   NGX,Y,Z   is equivalent  to a cutoff of  19.21, 19.21, 19.30 a.u.
   NGXF,Y,Z  is equivalent  to a cutoff of  38.43, 38.43, 38.61 a.u.

 SYSTEM =  a-Si SPC                                
 POSCAR =   H Si                                   

 Startparameter for this run:
   NWRITE =      2    write-flag & timer
   PREC   = accura    normal or accurate (medium, high low for compatibility)
   ISTART =      1    job   : 0-new  1-cont  2-samecut
   ICHARG =      1    charge: 1-file 2-atom 10-const
   ISPIN  =      1    spin polarized calculation?
   LNONCOLLINEAR =      F non collinear calculations
   LSORBIT =      F    spin-orbit coupling
   INIWAV =      1    electr: 0-lowe 1-rand  2-diag
   LASPH  =      T    aspherical Exc in radial PAW
 Electronic Relaxation 1
   ENCUT  = 1200.0 eV  88.20 Ry    9.39 a.u.  41.06 41.06 81.74*2*pi/ulx,y,z
   ENINI  = 1200.0     initial cutoff
   ENAUG  =  400.0 eV  augmentation charge cutoff
   NELM   =    150;   NELMIN=  2; NELMDL=  0     # of ELM steps 
   EDIFF  = 0.1E-05   stopping-criterion for ELM
   LREAL  =      F    real-space projection
   NLSPLINE    = F    spline interpolate recip. space projectors
   LCOMPAT=      F    compatible to vasp.4.4
   GGA_COMPAT  = T    GGA compatible to vasp.4.4-vasp.4.6
   LMAXPAW     = -100 max onsite density
   LMAXMIX     =    2 max onsite mixed and CHGCAR
   VOSKOWN=      0    Vosko Wilk Nusair interpolation
   ROPT   =    0.00000   0.00000
 Ionic relaxation
   EDIFFG = -.1E-01   stopping-criterion for IOM
   NSW    =      0    number of steps for IOM
   NBLOCK =      1;   KBLOCK =      1    inner block; outer block 
   IBRION =     -1    ionic relax: 0-MD 1-quasi-New 2-CG
   NFREE  =      0    steps in history (QN), initial steepest desc. (CG)
   ISIF   =      2    stress and relaxation
   IWAVPR =     10    prediction:  0-non 1-charg 2-wave 3-comb
   ISYM   =      1    0-nonsym 1-usesym 2-fastsym
   LCORR  =      T    Harris-Foulkes like correction to forces

   POTIM  = 0.5000    time-step for ionic-motion
   TEIN   =    0.0    initial temperature
   TEBEG  =    0.0;   TEEND  =   0.0 temperature during run
   SMASS  =  -3.00    Nose mass-parameter (am)
   estimated Nose-frequenzy (Omega)   =  0.10E-29 period in steps = 0.13E+47 mass=  -0.483E-26a.u.
   SCALEE = 1.0000    scale energy and forces
   NPACO  =    256;   APACO  = 10.0  distance and # of slots for P.C.
   PSTRESS=    0.0 pullay stress

  Mass of Ions in am
   POMASS =   1.00 28.09
  Ionic Valenz
   ZVAL   =   1.00  4.00
  Atomic Wigner-Seitz radii
   RWIGS  =  -1.00 -1.00
  virtual crystal weights 
   VCA    =   1.00  1.00
   NELECT =     388.0000    total number of electrons
   NUPDOWN=      -1.0000    fix difference up-down

 DOS related values:
   EMIN   =  10.00;   EMAX   =-10.00  energy-range for DOS
   EFERMI =   0.00;   METHOD = LEGACY      
   ISMEAR =     0;   SIGMA  =   0.10  broadening in eV -4-tet -1-fermi 0-gaus
   EFERMI_NEDOS =   21; number of points for ismear=-14 and -15

 Electronic relaxation 2 (details)
   IALGO  =     38    algorithm
   LDIAG  =      F    sub-space diagonalisation (order eigenvalues)
   LSUBROT=      F    optimize rotation matrix (better conditioning)
   TURBO    =      0    0=normal 1=particle mesh
   IRESTART =      0    0=no restart 2=restart with 2 vectors
   NREBOOT  =      0    no. of reboots
   NMIN     =      0    reboot dimension
   EREF     =   0.00    reference energy to select bands
   IMIX   =      4    mixing-type and parameters
     AMIX     =   0.40;   BMIX     =  1.00
     AMIX_MAG =   1.60;   BMIX_MAG =  1.00
     AMIN     =   0.10
     WC   =   100.;   INIMIX=   1;  MIXPRE=   1;  MAXMIX= -45

 Intra band minimization:
   WEIMIN = 0.0000     energy-eigenvalue tresh-hold
   EBREAK =  0.10E-08  absolut break condition
   DEPER  =   0.30     relativ break condition  

   TIME   =   0.40     timestep for ELM

  volume/ion in A,a.u.               =      59.36       400.57
  Fermi-wavevector in a.u.,A,eV,Ry     =   0.653000  1.233991  5.801649  0.426409
  Thomas-Fermi vector in A             =   1.723100

 Write flags
   LWAVE        =      F    write WAVECAR
   LDOWNSAMPLE  =      F    k-point downsampling of WAVECAR
   LCHARG       =      F    write CHGCAR
   LVTOT        =      F    write LOCPOT, total local potential
   LVHAR        =      F    write LOCPOT, Hartree potential only
   WRT_POTENTIAL= false  ! write potential to hdf5 file
   LELF         =      F    write electronic localiz. function (ELF)
   LORBIT       =     11    0 simple, 1 ext, 2 COOP (PROOUT), +10 PAW based schemes


 Python interface
   PLUGINS active      =      F    recompile with -DPLUGINS to activate

 Dipole corrections
   LMONO      =      F    monopole corrections only (constant potential shift)
   LDIPOL     =      F    correct potential (dipole corrections)
   IDIPOL     =      0    1-x, 2-y, 3-z, 4-all directions 
   EPSILON    =  1.0000000 bulk dielectric constant
   LVACPOTAV  =      F  vacuum potentials using an averaging scheme for the charge density
   VACPOTFLAT =  0.1000000 required flatness to determine vacuum potential

Coulomb truncation method
  LTRUNCATE          =      F  Coulomb kernel truncation to be used
  IDIMENSIONALITY    =      3  Dimensionality of cutoff (0 molecules / 2 surfaces)
  ISURFACE           =     -1  Direction of surface normal
  LCOARSEN           =      F  Coarsen the charge grid before padding, preferred


 Exchange correlation treatment:
   METAGGA = SCAN    functional components
   XC_C    = 1    coefficients multiplying the functional components
   LIBXC   =     F    Libxc                    
   VOSKOWN =     0    Vosko Wilk Nusair interpolation
   LHFCALC =     F    Hartree Fock is set to
   LHFONE  =     F    Hartree Fock one center treatment
   AEXX    =    0.0000 exact exchange contribution

 Parameters of functionals:
   SCAN:
     P1 =  0.000000E+00
     P2 =  0.000000E+00
     P3 =  0.000000E+00

 Accuracy and mixing parameters for tau-dependent meta-GGA functionals:
   LMAXTAU = 6
   LMIXTAU = T

 Van der Waals corrections
   IVDW    =     0    specifies the selected vdW correction

 Linear response parameters
   LEPSILON=     F    determine dielectric tensor
   LRPA    =     F    only Hartree local field effects (RPA)
   LNABLA  =     F    use nabla operator in PAW spheres
   LVEL    =     F    velocity operator in full k-point grid
   CSHIFT  =0.1000    complex shift for real part using Kramers Kronig
   OMEGAMAX=  -1.0    maximum frequency
   DEG_THRESHOLD= 0.2000000E-02 threshold for treating states as degnerate
   RTIME   =   -0.100 relaxation time in fs
  (WPLASMAI=    0.000 imaginary part of plasma frequency in eV, 0.658/RTIME)
   DFIELD  = 0.0000000 0.0000000 0.0000000 field for delta impulse in time

  Optional k-point grid parameters
   LKPOINTS_OPT  =     F    use optional k-point grid
   KPOINTS_OPT_MODE=     1    mode for optional k-point grid

 Orbital magnetization related:
   ORBITALMAG=     F  switch on orbital magnetization
   LCHIMAG   =     F  perturbation theory with respect to B field
   DQ        =  0.001000  dq finite difference perturbation B field
   LLRAUG    =     F  two centre corrections for induced B field
   LBONE     =     F  B-component reconstruction in AE one-centre
   LVGVCALC  =     T  calculate vGv susceptibility
   LVGVAPPL  =     F  apply vGv susceptibility instead of pGv for G=0

 Random number generation:
   RANDOM_GENERATOR = DEFAULT
   PCG_SEED         = not used


--------------------------------------------------------------------------------------------------------


 Static calculation
 charge density and potential will be updated during run
 non-spin polarized calculation
 Variant of blocked Davidson
 perform Loewdin sub-space diagonalisation
    ordering is kept fixed
    before iterative eigenvector-optimisation
 modified Broyden-mixing scheme, WC =      100.0
 initial mixing is a Kerker type mixing with AMIX =  0.4000 and BMIX =      1.0000
 Hartree-type preconditioning will be used
 using additional bands           54
 reciprocal scheme for non local part
 use partial core corrections
 calculate Harris-corrections to forces   (improved forces if not selfconsistent)
 use gradient corrections 
 use of overlap-Matrix (Vanderbilt PP)
 Gauss-broadening in eV      SIGMA  =   0.10


--------------------------------------------------------------------------------------------------------


  energy-cutoff  :     1200.00
  volume of cell :     6113.87
      direct lattice vectors                 reciprocal lattice vectors
    14.535360045  0.000000000  0.000000000     0.068797745  0.000000000  0.000000000
     0.000000000 14.535360045  0.000000000     0.000000000  0.068797745  0.000000000
     0.000000000  0.000000000 28.937751400     0.000000000  0.000000000  0.034556935

  length of vectors
    14.535360045 14.535360045 28.937751400     0.068797745  0.068797745  0.034556935



 old parameters found on file WAVECAR:
  energy-cutoff  :     1200.00
  volume of cell :     6113.87
      direct lattice vectors                 reciprocal lattice vectors
    14.535360045  0.000000000  0.000000000     0.068797745  0.000000000  0.000000000
     0.000000000 14.535360045  0.000000000     0.000000000  0.068797745  0.000000000
     0.000000000  0.000000000 28.937751400     0.000000000  0.000000000  0.034556935

  length of vectors


 k-points in units of 2pi/SCALE and weight: read from INCAR                         
   0.00000000  0.00000000  0.00000000       0.250
   0.03439887  0.00000000  0.00000000       0.250
   0.00000000  0.03439887  0.00000000       0.250
   0.03439887  0.03439887  0.00000000       0.250

 k-points in reciprocal lattice and weights: read from INCAR                         
   0.00000000  0.00000000  0.00000000       0.250
   0.50000000  0.00000000  0.00000000       0.250
   0.00000000  0.50000000  0.00000000       0.250
   0.50000000  0.50000000  0.00000000       0.250

 position of ions in fractional coordinates (direct lattice) 
   0.86579211  0.76428103  0.64966179
   0.97643264  0.91229938  0.53451255
   0.28681918  0.91043496  0.37502259
   0.44523011  0.29785296  0.51418340
   0.53217120  0.62485483  0.58984374
   0.20670420  0.73295742  0.36305880
   0.94825996  0.33667897  0.58279481
   0.05168995  0.38108103  0.51628239
   0.79536386  0.99639775  0.35168304
   0.27612457  0.91679876  0.62846457
   0.32145609  0.58644505  0.62455030
   0.54976072  0.16080235  0.56647357
   0.98731644  0.28441126  0.44107440
   0.56679435  0.59799757  0.39788031
   0.18810955  0.15158620  0.61032598
   0.45568806  0.50201508  0.64062653
   0.01173985  0.79043794  0.41782277
   0.00576284  0.45831063  0.53533224
   0.88136792  0.03305044  0.47126023
   0.66042671  0.67309788  0.64315023
   0.81382917  0.63856210  0.53152511
   0.46067246  0.28627155  0.38848531
   0.03266256  0.05360603  0.50301564
   0.40563839  0.07584401  0.35919700
   0.94658818  0.70744034  0.56249676
   0.28490522  0.02143428  0.50089418
   0.33964346  0.16218724  0.47680420
   0.21794851  0.40871984  0.45085954
   0.57879406  0.74421273  0.51249737
   0.50501948  0.83887843  0.35203846
   0.48244075  0.63409300  0.54467920
   0.38235379  0.92529528  0.38787849
   0.43151666  0.54430299  0.44003804
   0.92305247  0.03727943  0.39062162
   0.69621942  0.32921579  0.58207223
   0.68789765  0.12237881  0.35999761
   0.52262414  0.94503335  0.57997082
   0.85726807  0.80469283  0.42917818
   0.14265419  0.33386170  0.34891337
   0.69372895  0.10407792  0.56359152
   0.36587535  0.40685404  0.41281789
   0.01269745  0.61926983  0.62574839
   0.63229118  0.83445473  0.39887762
   0.69786369  0.72726785  0.56424016
   0.53078699  0.90261266  0.50009696
   0.29100346  0.03698753  0.58381597
   0.17785456  0.19202964  0.39155224
   0.30296945  0.76595970  0.50312103
   0.05442913  0.94486136  0.39745837
   0.49717929  0.49147802  0.51111716
   0.85497710  0.48691398  0.55777352
   0.57569541  0.26881618  0.44632498
   0.98015460  0.10358808  0.64915588
   0.92571494  0.86389329  0.57683858
   0.27632821  0.42338408  0.34556935
   0.44172762  0.07528950  0.60405251
   0.20696701  0.64015545  0.38348700
   0.98188142  0.53772593  0.41078248
   0.77011508  0.14718658  0.48669439
   0.63368434  0.69876494  0.44363403
   0.23063687  0.27661647  0.49928521
   0.09000878  0.37177545  0.65443065
   0.22387199  0.29288163  0.63299947
   0.04912001  0.57273229  0.47985454
   0.30368907  0.64696781  0.44781992
   0.48247240  0.20375828  0.50057488
   0.62825276  0.41099223  0.47464646
   0.04863127  0.66016046  0.36773961
   0.75907992  0.37963284  0.51733292
   0.77308715  0.86850962  0.56418970
   0.01904556  0.94261167  0.62449432
   0.04373136  0.12024264  0.57664782
   0.07159162  0.40581932  0.41145911
   0.14678412  0.84048142  0.60392534
   0.28449863  0.35513052  0.56718303
   0.54990657  0.29896060  0.60047172
   0.33251258  0.18629810  0.39847710
   0.85094555  0.45693261  0.63948305
   0.65785643  0.12156562  0.43863399
   0.15998778  0.81687691  0.52031864
   0.93311070  0.23980968  0.56964555
   0.03413799  0.72933178  0.49212605
   0.67243398  0.48075245  0.40714087
   0.64468716  0.95153474  0.45694260
   0.10980602  0.18534250  0.46618140
   0.08619601  0.49204836  0.59913644
   0.79583168  0.20463683  0.60282643
   0.38073085  0.89962684  0.46737810
   0.35980602  0.71229058  0.57229883
   0.93242272  0.20054405  0.37616487
   0.86422352  0.26438148  0.49739357
   0.78538818  0.25577695  0.35196810
   0.66167883  0.36745495  0.34896431
   0.77352057  0.82972833  0.36202248
   0.82358469  0.53895122  0.39984556
   0.78735580  0.90224803  0.48615220
   0.44056081  0.40843295  0.57512283
   0.14836991  0.95581396  0.47614209
   0.23220546  0.50484611  0.56952771
   0.67586561  0.96251486  0.59903173
   0.79305225  0.65940781  0.45168442
   0.20645997  0.55099770  0.49001255
   0.41343042  0.83285863  0.61670035

 position of ions in cartesian coordinates  (Angst):
  12.58460000 11.10910000 18.79975140
  14.19280000 13.26060000 15.46759140
   4.16902000 13.23350000 10.85231040
   6.47158000  4.32940000 14.87931140
   7.73530000  9.08249000 17.06875140
   3.00452000 10.65380000 10.50610540
  13.78330000  4.89375000 16.86477140
   0.75133200  5.53915000 14.94005140
  11.56090000 14.48300000 10.17691640
   4.01357000 13.32600000 18.18635140
   4.67248000  8.52419000 18.07308140
   7.99097000  2.33732000 16.39247140
  14.35100000  4.13402000 12.76370140
   8.23856000  8.69211000 11.51376140
   2.73424000  2.20336000 17.66146140
   6.62359000  7.29697000 18.53829140
   0.17064300 11.48930000 12.09085140
   0.08376500  6.66171000 15.49131140
  12.81100000  0.48040000 13.63721140
   9.59954000  9.78372000 18.61132140
  11.82930000  9.28173000 15.38114140
   6.69604000  4.16106000 11.24189140
   0.47476200  0.77918300 14.55614140
   5.89610000  1.10242000 10.39435340
  13.75900000 10.28290000 16.27739140
   4.14120000  0.31155500 14.49475140
   4.93684000  2.35745000 13.79764140
   3.16796000  5.94089000 13.04686140
   8.41298000 10.81740000 14.83052140
   7.34064000 12.19340000 10.18720140
   7.01245000  9.21677000 15.76179140
   5.55765000 13.44950000 11.22433140
   6.27225000  7.91164000 12.73371140
  13.41690000  0.54187000 11.30371140
  10.11980000  4.78527000 16.84386140
   9.99884000  1.77882000 10.41752140
   7.59653000 13.73640000 16.78305140
  12.46070000 11.69650000 12.41945140
   2.07353000  4.85280000 10.09676840
  10.08360000  1.51281000 16.30907140
   5.31813000  5.91377000 11.94602140
   0.18456200  9.00131000 18.10775140
   9.19058000 12.12910000 11.54262140
  10.14370000 10.57110000 16.32784140
   7.71518000 13.11980000 14.47168140
   4.22984000  0.53762700 16.89432140
   2.58518000  2.79122000 11.33064140
   4.40377000 11.13350000 14.55919140
   0.79114700 13.73390000 11.50155140
   7.22668000  7.14381000 14.79058140
  12.42740000  7.07747000 16.14071140
   8.36794000  3.90734000 12.91564140
  14.24690000  1.50569000 18.78511140
  13.45560000 12.55700000 16.69241140
   4.01653000  6.15404000 10.00000000
   6.42067000  1.09436000 17.47992140
   3.00834000  9.30489000 11.09725140
  14.27200000  7.81604000 11.88712140
  11.19390000  2.13941000 14.08384140
   9.21083000 10.15680000 12.83777140
   3.35239000  4.02072000 14.44819140
   1.30831000  5.40389000 18.93775140
   3.25406000  4.25714000 18.31758140
   0.71397700  8.32487000 13.88591140
   4.41423000  9.40391000 12.95890140
   7.01291000  2.96170000 14.48551140
   9.13188000  5.97392000 13.73520140
   0.70687300  9.59567000 10.64155740
  11.03350000  5.51810000 14.97045140
  11.23710000 12.62410000 16.32638140
   0.27683400 13.70120000 18.07146140
   0.63565100  1.74777000 16.68689140
   1.04061000  5.89873000 11.90670140
   2.13356000 12.21670000 17.47624140
   4.13529000  5.16195000 16.41300140
   7.99309000  4.34550000 17.37630140
   4.83319000  2.70791000 11.53103140
  12.36880000  6.64168000 18.50520140
   9.56218000  1.76700000 12.69308140
   2.32548000 11.87360000 15.05685140
  13.56310000  3.48572000 16.48426140
   0.49620800 10.60110000 14.24102140
   9.77407000  6.98791000 11.78174140
   9.37076000 13.83090000 13.22289140
   1.59607000  2.69402000 13.49024140
   1.25289000  7.15210000 17.33766140
  11.56770000  2.97447000 17.44444140
   5.53406000 13.07640000 13.52487140
   5.22991000 10.35340000 16.56104140
  13.55310000  2.91498000 10.88536540
  12.56180000  3.84288000 14.39345140
  11.41590000  3.71781000 10.18516540
   9.61774000  5.34109000 10.09824240
  11.24340000 12.06040000 10.47611640
  11.97110000  7.83385000 11.57063140
  11.44450000 13.11450000 14.06815140
   6.40371000  5.93672000 16.64276140
   2.15661000 13.89310000 13.77848140
   3.37519000  7.33812000 16.48085140
   9.82395000 13.99050000 17.33463140
  11.52730000  9.58473000 13.07073140
   3.00097000  8.00895000 14.17986140
   6.00936000 12.10590000 17.84592140



--------------------------------------------------------------------------------------------------------


 k-point     1 :   0.0000 0.0000 0.0000  plane waves:  576803
 k-point     2 :   0.5000 0.0000 0.0000  plane waves:  577042
 k-point     3 :   0.0000 0.5000 0.0000  plane waves:  577042
 k-point     4 :   0.5000 0.5000 0.0000  plane waves:  577124

 maximum and minimum number of plane-waves per node :     36146    35965

 maximum number of plane-waves:    577124
 maximum index in each direction: 
   IXMAX=   41   IYMAX=   41   IZMAX=   81
   IXMIN=  -41   IYMIN=  -41   IZMIN=  -81


 parallel 3D FFT for wavefunctions:
    minimum data exchange during FFTs selected (reduces bandwidth)
 parallel 3D FFT for charge:
    minimum data exchange during FFTs selected (reduces bandwidth)


 total amount of memory used by VASP MPI-rank0   382070. kBytes
=======================================================================

   base                                    :      30000. kBytes
   nonl-proj                               :      77915. kBytes
   fftplans                                :     114273. kBytes
   grid                                    :      88184. kBytes
   one-center                              :         21. kBytes
   wavefun                                 :      71677. kBytes

     INWAV:  cpu time     20.6678: real time     20.6837
 Broyden mixing: mesh for mixing (old mesh)
   NGX = 83   NGY = 83   NGZ =163
  (NGX  =336   NGY  =336   NGZ  =672)
  gives a total of ****** points

 initial charge density was supplied:
 number of electron     387.9999999 magnetization 
 keeping initial charge density in first step


--------------------------------------------------------------------------------------------------------


 Maximum index for augmentation-charges        11553 (set IRDMAX)


--------------------------------------------------------------------------------------------------------


 First call to EWALD:  gamma=   0.097
 Maximum number of real-space cells   3x   3x   2
 Maximum number of reciprocal cells   2x   2x   4

    FEWALD:  cpu time      0.0153: real time      0.0153


--------------------------------------- Ionic step        1  -------------------------------------------




--------------------------------------- Iteration      1(   1)  ---------------------------------------


    POTLOK:  cpu time      2.2973: real time      2.2988
    SETDIJ:  cpu time      1.7363: real time      1.7375
    EDDIAG:  cpu time     41.7970: real time     41.8247
     EDDAV:  cpu time    195.7751: real time    195.8823
       DOS:  cpu time      0.0083: real time      0.0085
    CHARGE:  cpu time     24.2797: real time     24.3020
    MIXING:  cpu time      0.0500: real time      0.0501
    --------------------------------------------
      LOOP:  cpu time    265.9438: real time    266.1040

 eigenvalue-minimisations  :  1984
 total energy-change (2. order) :-0.9713316E+03  (-0.1082003E+01)
 number of electron     387.9999999 magnetization 
 augmentation part      -21.6788016 magnetization 

 Broyden mixing:
  rms(total) = 0.11858E+01    rms(broyden)= 0.11858E+01
  rms(prec ) = 0.11875E+01
  weight for this iteration     100.00

 Free energy of the ion-electron system (eV)
  ---------------------------------------------------
  alpha Z        PSCENC =        51.97485236
  Ewald energy   TEWEN  =     62996.97321365
  -Hartree energ DENC   =    -71779.16501953
  -exchange      EXHF   =         0.00000000
  -V(xc)+E(xc)   XCENC  =      -450.55908148
  PAW double counting   =     34886.71492006   -33939.49807874
  entropy T*S    EENTRO =        -0.28452392
  eigenvalues    EBANDS =     -2628.74415161
  atomic energy  EATOM  =      9891.25629545
  Solvation  Ediel_sol  =         0.00000000
  ---------------------------------------------------
  free energy    TOTEN  =      -971.33157376 eV

  energy without entropy =     -971.04704983  energy(sigma->0) =     -971.18931179


--------------------------------------------------------------------------------------------------------




--------------------------------------- Iteration      1(   2)  ---------------------------------------


    POTLOK:  cpu time      2.2491: real time      2.2674
    SETDIJ:  cpu time      1.7165: real time      1.7177
    EDDIAG:  cpu time     41.7625: real time     41.7872
     EDDAV:  cpu time    196.6863: real time    196.7943
       DOS:  cpu time      0.0038: real time      0.0038
    CHARGE:  cpu time     24.1722: real time     24.1940
    MIXING:  cpu time      0.0435: real time      0.0435
    --------------------------------------------
      LOOP:  cpu time    266.6338: real time    266.8079

 eigenvalue-minimisations  :  2016
 total energy-change (2. order) : 0.6905117E+02  (-0.1039205E+01)
 number of electron     387.9999999 magnetization 
 augmentation part      -21.6091009 magnetization 

 Broyden mixing:
  rms(total) = 0.80164E+00    rms(broyden)= 0.80164E+00
  rms(prec ) = 0.80439E+00
  weight for this iteration     100.00

 eigenvalues of (default mixing * dielectric matrix)
  average eigenvalue GAMMA=   2.6382
  2.6382

 Free energy of the ion-electron system (eV)
  ---------------------------------------------------
  alpha Z        PSCENC =        51.97485236
  Ewald energy   TEWEN  =     62996.97321365
  -Hartree energ DENC   =    -71765.35056731
  -exchange      EXHF   =         0.00000000
  -V(xc)+E(xc)   XCENC  =      -440.18305840
  PAW double counting   =     41632.10980153   -40684.65607924
  entropy T*S    EENTRO =        -0.27345782
  eigenvalues    EBANDS =     -2584.13140888
  atomic energy  EATOM  =      9891.25629545
  Solvation  Ediel_sol  =         0.00000000
  ---------------------------------------------------
  free energy    TOTEN  =      -902.28040865 eV

  energy without entropy =     -902.00695083  energy(sigma->0) =     -902.14367974


--------------------------------------------------------------------------------------------------------




--------------------------------------- Iteration      1(   3)  ---------------------------------------


    POTLOK:  cpu time      2.2460: real time      2.2736
    SETDIJ:  cpu time      1.7206: real time      1.7214
    EDDIAG:  cpu time     41.7829: real time     41.8096
     EDDAV:  cpu time    197.9200: real time    198.0331
       DOS:  cpu time      0.0045: real time      0.0045
    CHARGE:  cpu time     24.1589: real time     24.1822
    MIXING:  cpu time      0.0423: real time      0.0424
    --------------------------------------------
      LOOP:  cpu time    267.8753: real time    268.0667

 eigenvalue-minimisations  :  2040
 total energy-change (2. order) :-0.3299947E+01  (-0.9810548E+00)
 number of electron     387.9999999 magnetization 
 augmentation part      -21.5125696 magnetization 

 Broyden mixing:
  rms(total) = 0.28792E+00    rms(broyden)= 0.28792E+00
  rms(prec ) = 0.52379E+00
  weight for this iteration     100.00

 eigenvalues of (default mixing * dielectric matrix)
  average eigenvalue GAMMA=   1.6658
  0.6797  2.6518

 Free energy of the ion-electron system (eV)
  ---------------------------------------------------
  alpha Z        PSCENC =        51.97485236
  Ewald energy   TEWEN  =     62996.97321365
  -Hartree energ DENC   =    -71763.21814465
  -exchange      EXHF   =         0.00000000
  -V(xc)+E(xc)   XCENC  =      -443.39284310
  PAW double counting   =     54642.43903823   -53695.25721624
  entropy T*S    EENTRO =        -0.26633393
  eigenvalues    EBANDS =     -2586.08921791
  atomic energy  EATOM  =      9891.25629545
  Solvation  Ediel_sol  =         0.00000000
  ---------------------------------------------------
  free energy    TOTEN  =      -905.58035613 eV

  energy without entropy =     -905.31402220  energy(sigma->0) =     -905.44718917


--------------------------------------------------------------------------------------------------------




--------------------------------------- Iteration      1(   4)  ---------------------------------------


    POTLOK:  cpu time      2.2732: real time      2.2748
    SETDIJ:  cpu time      1.7252: real time      1.7264
    EDDIAG:  cpu time     41.7610: real time     41.7892
     EDDAV:  cpu time    216.9589: real time    217.0801
       DOS:  cpu time      0.0040: real time      0.0040
    CHARGE:  cpu time     24.1441: real time     24.1666
    MIXING:  cpu time      0.0421: real time      0.0421
    --------------------------------------------
      LOOP:  cpu time    286.9085: real time    287.0833

 eigenvalue-minimisations  :  2376
 total energy-change (2. order) : 0.5639555E-01  (-0.4474267E+00)
 number of electron     387.9999999 magnetization 
 augmentation part      -21.5438871 magnetization 

 Broyden mixing:
  rms(total) = 0.20992E+00    rms(broyden)= 0.20992E+00
  rms(prec ) = 0.38608E+00
  weight for this iteration     100.00

 eigenvalues of (default mixing * dielectric matrix)
  average eigenvalue GAMMA=   1.2778
  2.5808  0.9820  0.2705

 Free energy of the ion-electron system (eV)
  ---------------------------------------------------
  alpha Z        PSCENC =        51.97485236
  Ewald energy   TEWEN  =     62996.97321365
  -Hartree energ DENC   =    -71765.14639384
  -exchange      EXHF   =         0.00000000
  -V(xc)+E(xc)   XCENC  =      -445.87797996
  PAW double counting   =     55485.42863844   -54538.23409805
  entropy T*S    EENTRO =        -0.25881994
  eigenvalues    EBANDS =     -2581.63966871
  atomic energy  EATOM  =      9891.25629545
  Solvation  Ediel_sol  =         0.00000000
  ---------------------------------------------------
  free energy    TOTEN  =      -905.52396058 eV

  energy without entropy =     -905.26514064  energy(sigma->0) =     -905.39455061


--------------------------------------------------------------------------------------------------------




--------------------------------------- Iteration      1(   5)  ---------------------------------------


    POTLOK:  cpu time      2.2414: real time      2.2668
    SETDIJ:  cpu time      1.7214: real time      1.7225
    EDDIAG:  cpu time     41.7728: real time     41.8006
     EDDAV:  cpu time    209.2034: real time    209.3173
       DOS:  cpu time      0.0068: real time      0.0070
    CHARGE:  cpu time     24.1588: real time     24.1806
    MIXING:  cpu time      0.0581: real time      0.0587
    --------------------------------------------
      LOOP:  cpu time    279.1631: real time    279.3539

 eigenvalue-minimisations  :  2240
 total energy-change (2. order) : 0.8813081E-01  (-0.1234931E+00)
 number of electron     387.9999999 magnetization 
 augmentation part      -21.5361919 magnetization 

 Broyden mixing:
  rms(total) = 0.71673E-01    rms(broyden)= 0.71672E-01
  rms(prec ) = 0.86829E-01
  weight for this iteration     100.00

 eigenvalues of (default mixing * dielectric matrix)
  average eigenvalue GAMMA=   1.1137
  2.5456  1.1132  0.5262  0.2697

 Free energy of the ion-electron system (eV)
  ---------------------------------------------------
  alpha Z        PSCENC =        51.97485236
  Ewald energy   TEWEN  =     62996.97321365
  -Hartree energ DENC   =    -71769.64691917
  -exchange      EXHF   =         0.00000000
  -V(xc)+E(xc)   XCENC  =      -446.63446062
  PAW double counting   =     55195.66091297   -54248.43469880
  entropy T*S    EENTRO =        -0.26838779
  eigenvalues    EBANDS =     -2576.31663782
  atomic energy  EATOM  =      9891.25629545
  Solvation  Ediel_sol  =         0.00000000
  ---------------------------------------------------
  free energy    TOTEN  =      -905.43582977 eV

  energy without entropy =     -905.16744197  energy(sigma->0) =     -905.30163587


--------------------------------------------------------------------------------------------------------




--------------------------------------- Iteration      1(   6)  ---------------------------------------


    POTLOK:  cpu time      2.2622: real time      2.2829
    SETDIJ:  cpu time      1.7332: real time      1.7359
    EDDIAG:  cpu time     41.7959: real time     41.8209
     EDDAV:  cpu time    205.0606: real time    205.1750
       DOS:  cpu time      0.0023: real time      0.0023
    CHARGE:  cpu time     24.1529: real time     24.1747
    MIXING:  cpu time      0.0437: real time      0.0437
    --------------------------------------------
      LOOP:  cpu time    275.0504: real time    275.2351

 eigenvalue-minimisations  :  2168
 total energy-change (2. order) :-0.1251719E-01  (-0.1809958E-01)
 number of electron     387.9999999 magnetization 
 augmentation part      -21.5353822 magnetization 

 Broyden mixing:
  rms(total) = 0.40537E-01    rms(broyden)= 0.40537E-01
  rms(prec ) = 0.45250E-01
  weight for this iteration     100.00

 eigenvalues of (default mixing * dielectric matrix)
  average eigenvalue GAMMA=   1.0701
  2.5118  1.3440  0.2703  0.6122  0.6122

 Free energy of the ion-electron system (eV)
  ---------------------------------------------------
  alpha Z        PSCENC =        51.97485236
  Ewald energy   TEWEN  =     62996.97321365
  -Hartree energ DENC   =    -71768.18445199
  -exchange      EXHF   =         0.00000000
  -V(xc)+E(xc)   XCENC  =      -446.93418509
  PAW double counting   =     55106.79853444   -54159.55971744
  entropy T*S    EENTRO =        -0.27574562
  eigenvalues    EBANDS =     -2577.49714272
  atomic energy  EATOM  =      9891.25629545
  Solvation  Ediel_sol  =         0.00000000
  ---------------------------------------------------
  free energy    TOTEN  =      -905.44834696 eV

  energy without entropy =     -905.17260133  energy(sigma->0) =     -905.31047414


--------------------------------------------------------------------------------------------------------




--------------------------------------- Iteration      1(   7)  ---------------------------------------


    POTLOK:  cpu time      2.2464: real time      2.2722
    SETDIJ:  cpu time      1.7093: real time      1.7101
    EDDIAG:  cpu time     41.8079: real time     41.8328
     EDDAV:  cpu time    217.8937: real time    218.0192
       DOS:  cpu time      0.0022: real time      0.0022
    CHARGE:  cpu time     24.1685: real time     24.1924
    MIXING:  cpu time      0.0430: real time      0.0442
    --------------------------------------------
      LOOP:  cpu time    287.8709: real time    288.0730

 eigenvalue-minimisations  :  2392
 total energy-change (2. order) :-0.2020968E-02  (-0.2733349E-02)
 number of electron     387.9999999 magnetization 
 augmentation part      -21.5347277 magnetization 

 Broyden mixing:
  rms(total) = 0.30293E-01    rms(broyden)= 0.30293E-01
  rms(prec ) = 0.32754E-01
  weight for this iteration     100.00

 eigenvalues of (default mixing * dielectric matrix)
  average eigenvalue GAMMA=   1.1220
  2.4534  1.8906  0.8160  0.8160  0.2698  0.4863

 Free energy of the ion-electron system (eV)
  ---------------------------------------------------
  alpha Z        PSCENC =        51.97485236
  Ewald energy   TEWEN  =     62996.97321365
  -Hartree energ DENC   =    -71765.89683337
  -exchange      EXHF   =         0.00000000
  -V(xc)+E(xc)   XCENC  =      -446.87240525
  PAW double counting   =     55065.81343626   -54118.56142598
  entropy T*S    EENTRO =        -0.27599181
  eigenvalues    EBANDS =     -2579.86150924
  atomic energy  EATOM  =      9891.25629545
  Solvation  Ediel_sol  =         0.00000000
  ---------------------------------------------------
  free energy    TOTEN  =      -905.45036792 eV

  energy without entropy =     -905.17437611  energy(sigma->0) =     -905.31237202


--------------------------------------------------------------------------------------------------------




--------------------------------------- Iteration      1(   8)  ---------------------------------------


    POTLOK:  cpu time      2.2969: real time      2.2987
    SETDIJ:  cpu time      1.7191: real time      1.7202
    EDDIAG:  cpu time     41.7610: real time     41.7874
     EDDAV:  cpu time    205.9420: real time    206.0577
       DOS:  cpu time      0.0024: real time      0.0024
    CHARGE:  cpu time     24.1749: real time     24.1978
    MIXING:  cpu time      0.0443: real time      0.0443
    --------------------------------------------
      LOOP:  cpu time    275.9406: real time    276.1085

 eigenvalue-minimisations  :  2184
 total energy-change (2. order) :-0.1510135E-02  (-0.1030371E-02)
 number of electron     387.9999999 magnetization 
 augmentation part      -21.5331283 magnetization 

 Broyden mixing:
  rms(total) = 0.17175E-01    rms(broyden)= 0.17175E-01
  rms(prec ) = 0.19207E-01
  weight for this iteration     100.00

 eigenvalues of (default mixing * dielectric matrix)
  average eigenvalue GAMMA=   1.1625
  2.4986  2.4986  0.8935  0.8935  0.2697  0.6256  0.4578

 Free energy of the ion-electron system (eV)
  ---------------------------------------------------
  alpha Z        PSCENC =        51.97485236
  Ewald energy   TEWEN  =     62996.97321365
  -Hartree energ DENC   =    -71765.11578985
  -exchange      EXHF   =         0.00000000
  -V(xc)+E(xc)   XCENC  =      -446.63294800
  PAW double counting   =     55061.21932355   -54113.95327583
  entropy T*S    EENTRO =        -0.27691216
  eigenvalues    EBANDS =     -2580.89663723
  atomic energy  EATOM  =      9891.25629545
  Solvation  Ediel_sol  =         0.00000000
  ---------------------------------------------------
  free energy    TOTEN  =      -905.45187806 eV

  energy without entropy =     -905.17496590  energy(sigma->0) =     -905.31342198


--------------------------------------------------------------------------------------------------------




--------------------------------------- Iteration      1(   9)  ---------------------------------------


    POTLOK:  cpu time      2.2507: real time      2.2782
    SETDIJ:  cpu time      1.7087: real time      1.7096
    EDDIAG:  cpu time     41.7854: real time     41.8117
     EDDAV:  cpu time    199.5217: real time    199.6360
       DOS:  cpu time      0.0043: real time      0.0043
    CHARGE:  cpu time     24.1677: real time     24.1922
    MIXING:  cpu time      0.0452: real time      0.0452
    --------------------------------------------
      LOOP:  cpu time    269.4837: real time    269.6772

 eigenvalue-minimisations  :  2064
 total energy-change (2. order) :-0.9703438E-03  (-0.5508131E-03)
 number of electron     387.9999999 magnetization 
 augmentation part      -21.5311913 magnetization 

 Broyden mixing:
  rms(total) = 0.70066E-02    rms(broyden)= 0.70066E-02
  rms(prec ) = 0.84297E-02
  weight for this iteration     100.00

 eigenvalues of (default mixing * dielectric matrix)
  average eigenvalue GAMMA=   1.1449
  2.5599  2.5599  1.0633  0.8575  0.8575  0.2697  0.5511  0.4408

 Free energy of the ion-electron system (eV)
  ---------------------------------------------------
  alpha Z        PSCENC =        51.97485236
  Ewald energy   TEWEN  =     62996.97321365
  -Hartree energ DENC   =    -71764.63486263
  -exchange      EXHF   =         0.00000000
  -V(xc)+E(xc)   XCENC  =      -446.46708556
  PAW double counting   =     55085.19171773   -54137.91399697
  entropy T*S    EENTRO =        -0.27727545
  eigenvalues    EBANDS =     -2581.55570699
  atomic energy  EATOM  =      9891.25629545
  Solvation  Ediel_sol  =         0.00000000
  ---------------------------------------------------
  free energy    TOTEN  =      -905.45284840 eV

  energy without entropy =     -905.17557296  energy(sigma->0) =     -905.31421068


--------------------------------------------------------------------------------------------------------




--------------------------------------- Iteration      1(  10)  ---------------------------------------


    POTLOK:  cpu time      2.2662: real time      2.2690
    SETDIJ:  cpu time      1.7123: real time      1.7134
    EDDIAG:  cpu time     41.7595: real time     41.7875
     EDDAV:  cpu time    201.4605: real time    201.5754
       DOS:  cpu time      0.0053: real time      0.0053
    CHARGE:  cpu time     24.1635: real time     24.1868
    MIXING:  cpu time      0.0468: real time      0.0468
    --------------------------------------------
      LOOP:  cpu time    271.4140: real time    271.5841

 eigenvalue-minimisations  :  2096
 total energy-change (2. order) :-0.1342121E-03  (-0.1675413E-03)
 number of electron     387.9999999 magnetization 
 augmentation part      -21.5314569 magnetization 

 Broyden mixing:
  rms(total) = 0.33972E-02    rms(broyden)= 0.33972E-02
  rms(prec ) = 0.40384E-02
  weight for this iteration     100.00

 eigenvalues of (default mixing * dielectric matrix)
  average eigenvalue GAMMA=   1.1183
  2.5963  2.5963  1.2357  0.2697  0.9094  0.7431  0.7431  0.5357  0.4358

 Free energy of the ion-electron system (eV)
  ---------------------------------------------------
  alpha Z        PSCENC =        51.97485236
  Ewald energy   TEWEN  =     62996.97321365
  -Hartree energ DENC   =    -71764.77478998
  -exchange      EXHF   =         0.00000000
  -V(xc)+E(xc)   XCENC  =      -446.47241126
  PAW double counting   =     55107.07310731   -54159.79053978
  entropy T*S    EENTRO =        -0.27729924
  eigenvalues    EBANDS =     -2581.41541114
  atomic energy  EATOM  =      9891.25629545
  Solvation  Ediel_sol  =         0.00000000
  ---------------------------------------------------
  free energy    TOTEN  =      -905.45298262 eV

  energy without entropy =     -905.17568337  energy(sigma->0) =     -905.31433299


--------------------------------------------------------------------------------------------------------




--------------------------------------- Iteration      1(  11)  ---------------------------------------


    POTLOK:  cpu time      2.2456: real time      2.2703
    SETDIJ:  cpu time      1.7142: real time      1.7154
    EDDIAG:  cpu time     41.8045: real time     41.8318
     EDDAV:  cpu time    206.9558: real time    207.0728
       DOS:  cpu time      0.0021: real time      0.0021
    CHARGE:  cpu time     24.1399: real time     24.1639
    MIXING:  cpu time      0.0494: real time      0.0495
    --------------------------------------------
      LOOP:  cpu time    276.9115: real time    277.1057

 eigenvalue-minimisations  :  2192
 total energy-change (2. order) : 0.3503512E-05  (-0.5055468E-04)
 number of electron     387.9999999 magnetization 
 augmentation part      -21.5314363 magnetization 

 Broyden mixing:
  rms(total) = 0.18702E-02    rms(broyden)= 0.18702E-02
  rms(prec ) = 0.21885E-02
  weight for this iteration     100.00

 eigenvalues of (default mixing * dielectric matrix)
  average eigenvalue GAMMA=   1.1366
  2.6665  2.6665  1.5817  0.9669  0.8514  0.8514  0.2697  0.5363  0.5363  0.4396

 Free energy of the ion-electron system (eV)
  ---------------------------------------------------
  alpha Z        PSCENC =        51.97485236
  Ewald energy   TEWEN  =     62996.97321365
  -Hartree energ DENC   =    -71764.64218609
  -exchange      EXHF   =         0.00000000
  -V(xc)+E(xc)   XCENC  =      -446.48057260
  PAW double counting   =     55103.56498490   -54156.28019255
  entropy T*S    EENTRO =        -0.27705431
  eigenvalues    EBANDS =     -2581.54231993
  atomic energy  EATOM  =      9891.25629545
  Solvation  Ediel_sol  =         0.00000000
  ---------------------------------------------------
  free energy    TOTEN  =      -905.45297911 eV

  energy without entropy =     -905.17592480  energy(sigma->0) =     -905.31445196


--------------------------------------------------------------------------------------------------------




--------------------------------------- Iteration      1(  12)  ---------------------------------------


    POTLOK:  cpu time      2.2697: real time      2.2710
    SETDIJ:  cpu time      1.7207: real time      1.7220
    EDDIAG:  cpu time     41.8328: real time     41.8604
     EDDAV:  cpu time    203.3458: real time    203.4580
       DOS:  cpu time      0.0034: real time      0.0034
    CHARGE:  cpu time     24.2176: real time     24.2415
    MIXING:  cpu time      0.0479: real time      0.0480
    --------------------------------------------
      LOOP:  cpu time    273.4379: real time    273.6043

 eigenvalue-minimisations  :  2136
 total energy-change (2. order) :-0.6808274E-04  (-0.1957195E-04)
 number of electron     387.9999999 magnetization 
 augmentation part      -21.5315713 magnetization 

 Broyden mixing:
  rms(total) = 0.11123E-02    rms(broyden)= 0.11123E-02
  rms(prec ) = 0.13612E-02
  weight for this iteration     100.00

 eigenvalues of (default mixing * dielectric matrix)
  average eigenvalue GAMMA=   1.1608
  2.7505  2.7505  1.9883  1.0741  0.8995  0.8995  0.2697  0.6078  0.6078  0.4418
  0.4791

 Free energy of the ion-electron system (eV)
  ---------------------------------------------------
  alpha Z        PSCENC =        51.97485236
  Ewald energy   TEWEN  =     62996.97321365
  -Hartree energ DENC   =    -71764.38898083
  -exchange      EXHF   =         0.00000000
  -V(xc)+E(xc)   XCENC  =      -446.48419869
  PAW double counting   =     55097.93650022   -54150.64984845
  entropy T*S    EENTRO =        -0.27707333
  eigenvalues    EBANDS =     -2581.79380757
  atomic energy  EATOM  =      9891.25629545
  Solvation  Ediel_sol  =         0.00000000
  ---------------------------------------------------
  free energy    TOTEN  =      -905.45304720 eV

  energy without entropy =     -905.17597386  energy(sigma->0) =     -905.31451053


--------------------------------------------------------------------------------------------------------




--------------------------------------- Iteration      1(  13)  ---------------------------------------


    POTLOK:  cpu time      2.2444: real time      2.2741
    SETDIJ:  cpu time      1.7245: real time      1.7255
    EDDIAG:  cpu time     41.8318: real time     41.8568
     EDDAV:  cpu time    201.9679: real time    202.0792
       DOS:  cpu time      0.0021: real time      0.0021
    CHARGE:  cpu time     24.2076: real time     24.2288
    MIXING:  cpu time      0.0483: real time      0.0483
    --------------------------------------------
      LOOP:  cpu time    272.0264: real time    272.2147

 eigenvalue-minimisations  :  2112
 total energy-change (2. order) :-0.8342748E-04  (-0.1443019E-04)
 number of electron     387.9999999 magnetization 
 augmentation part      -21.5316346 magnetization 

 Broyden mixing:
  rms(total) = 0.68624E-03    rms(broyden)= 0.68624E-03
  rms(prec ) = 0.97571E-03
  weight for this iteration     100.00

 eigenvalues of (default mixing * dielectric matrix)
  average eigenvalue GAMMA=   1.1593
  2.8540  2.8540  2.0817  1.1716  0.9081  0.9081  0.8416  0.2697  0.5560  0.5560
  0.4551  0.4551

 Free energy of the ion-electron system (eV)
  ---------------------------------------------------
  alpha Z        PSCENC =        51.97485236
  Ewald energy   TEWEN  =     62996.97321365
  -Hartree energ DENC   =    -71764.14458017
  -exchange      EXHF   =         0.00000000
  -V(xc)+E(xc)   XCENC  =      -446.49572343
  PAW double counting   =     55093.76985066   -54146.48237069
  entropy T*S    EENTRO =        -0.27703136
  eigenvalues    EBANDS =     -2582.02763711
  atomic energy  EATOM  =      9891.25629545
  Solvation  Ediel_sol  =         0.00000000
  ---------------------------------------------------
  free energy    TOTEN  =      -905.45313062 eV

  energy without entropy =     -905.17609927  energy(sigma->0) =     -905.31461494


--------------------------------------------------------------------------------------------------------




--------------------------------------- Iteration      1(  14)  ---------------------------------------


    POTLOK:  cpu time      2.2643: real time      2.2658
    SETDIJ:  cpu time      1.7220: real time      1.7232
    EDDIAG:  cpu time     41.7920: real time     41.8212
     EDDAV:  cpu time    198.0254: real time    198.1423
       DOS:  cpu time      0.0021: real time      0.0021
    CHARGE:  cpu time     24.2324: real time     24.2532
    MIXING:  cpu time      0.0491: real time      0.0492
    --------------------------------------------
      LOOP:  cpu time    268.0872: real time    268.2569

 eigenvalue-minimisations  :  2040
 total energy-change (2. order) :-0.8831290E-04  (-0.1081425E-04)
 number of electron     387.9999999 magnetization 
 augmentation part      -21.5317035 magnetization 

 Broyden mixing:
  rms(total) = 0.36962E-03    rms(broyden)= 0.36962E-03
  rms(prec ) = 0.54454E-03
  weight for this iteration     100.00

 eigenvalues of (default mixing * dielectric matrix)
  average eigenvalue GAMMA=   1.1569
  2.9127  2.9127  2.1448  1.3836  0.9288  0.9288  0.9081  0.2697  0.6205  0.6205
  0.5182  0.4455  0.4455

 Free energy of the ion-electron system (eV)
  ---------------------------------------------------
  alpha Z        PSCENC =        51.97485236
  Ewald energy   TEWEN  =     62996.97321365
  -Hartree energ DENC   =    -71763.92216586
  -exchange      EXHF   =         0.00000000
  -V(xc)+E(xc)   XCENC  =      -446.49807453
  PAW double counting   =     55093.41331887   -54146.12549699
  entropy T*S    EENTRO =        -0.27707890
  eigenvalues    EBANDS =     -2582.24808300
  atomic energy  EATOM  =      9891.25629545
  Solvation  Ediel_sol  =         0.00000000
  ---------------------------------------------------
  free energy    TOTEN  =      -905.45321894 eV

  energy without entropy =     -905.17614003  energy(sigma->0) =     -905.31467948


--------------------------------------------------------------------------------------------------------




--------------------------------------- Iteration      1(  15)  ---------------------------------------


    POTLOK:  cpu time      2.2408: real time      2.2689
    SETDIJ:  cpu time      1.7101: real time      1.7113
    EDDIAG:  cpu time     41.8353: real time     41.8622
     EDDAV:  cpu time    197.0053: real time    197.1194
       DOS:  cpu time      0.0116: real time      0.0118
    CHARGE:  cpu time     24.2296: real time     24.2524
    MIXING:  cpu time      0.0643: real time      0.0651
    --------------------------------------------
      LOOP:  cpu time    267.0971: real time    267.2913

 eigenvalue-minimisations  :  2024
 total energy-change (2. order) :-0.9301207E-04  (-0.8381643E-05)
 number of electron     387.9999999 magnetization 
 augmentation part      -21.5317431 magnetization 

 Broyden mixing:
  rms(total) = 0.29998E-03    rms(broyden)= 0.29997E-03
  rms(prec ) = 0.43549E-03
  weight for this iteration     100.00

 eigenvalues of (default mixing * dielectric matrix)
  average eigenvalue GAMMA=   1.1731
[...]
   -.418E+01 0.529E+01 -.206E+03   0.397E+01 -.519E+01 0.206E+03   0.375E+00 0.819E-01 -.120E+01   -.241E-04 0.263E-04 0.272E-04
   0.214E+02 -.145E+02 0.244E+03   -.228E+02 0.137E+02 -.245E+03   0.124E+01 0.688E+00 0.292E+00   0.107E-04 0.461E-04 -.820E-04
   0.521E+01 0.333E+02 -.298E+03   -.421E+01 -.329E+02 0.298E+03   -.176E+01 -.399E+00 0.533E-02   -.577E-06 -.364E-04 0.348E-04
   -.181E+02 0.199E+02 -.187E+03   0.166E+02 -.177E+02 0.190E+03   0.196E+01 -.217E+01 -.245E+01   0.479E-04 0.669E-04 0.241E-05
   0.523E+01 -.119E+02 -.327E+03   -.533E+01 0.101E+02 0.325E+03   -.535E+00 0.285E+01 0.273E+01   -.425E-05 0.717E-04 0.570E-05
   -.345E+00 0.151E+02 0.280E+03   0.641E+00 -.182E+02 -.279E+03   0.376E+00 0.285E+01 -.932E+00   0.231E-04 0.417E-04 -.834E-04
   0.290E+02 -.637E+01 -.374E+03   -.296E+02 0.536E+01 0.379E+03   0.527E+00 0.135E+01 -.412E+01   -.138E-05 0.115E-05 -.164E-04
   0.365E+02 0.738E+01 0.163E+03   -.329E+02 -.615E+01 -.164E+03   -.460E+01 -.157E+01 -.775E+00   -.239E-04 0.331E-04 -.637E-04
   -.185E+01 0.356E+01 -.663E+02   0.223E+01 -.419E+01 0.641E+02   -.145E+01 0.909E+00 0.218E+01   0.166E-04 -.540E-04 -.152E-04
   -.134E+02 0.752E+01 -.208E+03   0.110E+02 -.582E+01 0.208E+03   0.256E+01 -.209E+01 0.516E-01   -.103E-04 0.324E-04 0.224E-04
   -.727E+01 -.110E+02 0.138E+02   0.747E+01 0.102E+02 -.136E+02   0.109E+00 0.803E+00 0.627E+00   -.112E-04 -.612E-04 -.422E-04
   -.113E+02 -.488E+01 0.252E+03   0.933E+01 0.411E+01 -.252E+03   0.246E+01 0.414E+00 -.103E+01   -.257E-04 0.109E-04 -.535E-04
   0.212E+02 -.239E+02 0.120E+03   -.216E+02 0.199E+02 -.119E+03   0.136E+01 0.488E+01 -.225E+01   -.199E-04 -.168E-04 -.663E-04
   0.130E-02 0.206E+02 0.767E+02   -.148E+01 -.196E+02 -.773E+02   0.468E+00 -.669E+00 0.728E+00   0.130E-04 0.537E-04 -.392E-04
   -.355E+01 -.143E+02 -.289E+03   0.354E+01 0.142E+02 0.288E+03   0.897E+00 -.280E+00 0.203E+01   -.297E-05 0.188E-04 0.147E-04
   0.877E+01 0.159E+02 -.336E+03   -.920E+01 -.155E+02 0.333E+03   -.433E+00 -.464E+00 0.303E+01   -.109E-04 0.490E-04 0.166E-04
   0.293E+01 0.994E+01 0.989E+02   -.266E+01 -.911E+01 -.992E+02   -.320E+00 -.604E+00 0.180E+01   0.306E-04 -.182E-04 -.648E-04
   0.169E+02 -.468E+01 -.216E+03   -.137E+02 0.496E+01 0.215E+03   -.340E+01 -.750E+00 0.172E+01   0.375E-05 -.848E-04 0.139E-04
   -.162E+02 -.110E+02 0.333E+03   0.174E+02 0.109E+02 -.331E+03   -.115E+01 0.139E+00 -.116E+01   -.187E-04 0.638E-04 -.836E-04
   -.549E+01 -.196E+02 0.221E+02   0.411E+01 0.183E+02 -.202E+02   0.215E+01 0.264E+01 -.223E+01   -.199E-04 0.463E-04 -.154E-04
   -.142E+02 -.316E+02 0.357E+03   0.126E+02 0.315E+02 -.354E+03   0.649E+00 -.925E-01 -.251E+01   -.162E-04 0.277E-04 -.613E-04
   0.124E+02 -.146E+02 0.371E+03   -.140E+02 0.168E+02 -.374E+03   0.169E+01 -.276E+01 0.236E+01   -.120E-04 0.219E-04 -.284E-04
   -.918E+01 0.325E+02 0.383E+03   0.906E+01 -.340E+02 -.381E+03   0.278E+00 0.257E+01 -.266E+01   -.307E-04 -.368E-04 -.366E-04
   -.156E+01 0.176E+02 0.291E+03   0.123E+01 -.148E+02 -.290E+03   0.117E+00 -.217E+01 0.179E+00   -.212E-05 -.516E-05 -.657E-04
   -.479E+01 0.465E+01 0.200E+02   0.434E+01 -.405E+01 -.193E+02   0.882E+00 -.795E-01 -.131E+01   -.239E-04 -.368E-04 -.415E-04
   -.121E+02 0.714E+01 -.217E+03   0.124E+02 -.605E+01 0.219E+03   -.571E+00 -.179E+01 -.172E+01   0.800E-05 0.458E-04 0.256E-04
   -.110E+02 0.122E+02 0.941E+02   0.112E+02 -.125E+02 -.915E+02   -.131E+01 0.226E-01 -.288E+01   0.335E-04 -.131E-04 -.136E-04
   -.102E+02 -.250E+02 -.196E+03   0.916E+01 0.235E+02 0.198E+03   0.934E+00 0.204E+01 -.167E+01   0.470E-04 0.810E-05 0.293E-04
   -.648E+01 0.203E+01 -.331E+03   0.692E+01 -.206E+01 0.330E+03   -.696E+00 0.717E+00 0.178E+01   -.762E-07 0.884E-05 -.118E-04
   -.226E+01 0.201E+02 0.128E+03   0.201E+01 -.197E+02 -.129E+03   0.240E+00 -.187E+00 0.647E+00   -.147E-04 -.303E-04 -.637E-04
   -.145E+02 -.214E+02 0.952E+01   0.139E+02 0.206E+02 -.114E+02   0.918E+00 0.173E+00 0.197E+01   0.196E-04 -.156E-04 -.334E-04
   -.286E+02 0.932E+01 -.341E+03   0.273E+02 -.936E+01 0.339E+03   0.158E+01 0.103E+01 0.168E+01   -.245E-05 -.682E-04 0.186E-04
 -----------------------------------------------------------------------------------------------
   -.861E+01 0.974E+01 0.261E+01   -.284E-13 -.480E-13 0.341E-12   0.860E+01 -.974E+01 -.259E+01   -.134E-03 0.137E-03 -.279E-02


 POSITION                                       TOTAL-FORCE (eV/Angst)
 -----------------------------------------------------------------------------------
     12.58460     11.10910     18.79975        -0.276865     -0.200253     -0.466961
     14.19280     13.26060     15.46759        -0.538693     -0.375120      0.373007
      4.16902     13.23350     10.85231        -0.622116     -0.263625     -0.507471
      6.47158      4.32940     14.87931        -0.033735     -0.100137      0.074048
      7.73530      9.08249     17.06875         0.423678     -0.288413      0.833782
      3.00452     10.65380     10.50611         0.796374      0.545963     -0.439181
     13.78330      4.89375     16.86477         0.430425      0.201201      0.490573
      0.75133      5.53915     14.94005         0.285711     -1.429280     -0.633613
     11.56090     14.48300     10.17692        -1.123323     -1.479350      0.533406
      4.01357     13.32600     18.18635         0.881860     -1.959308      0.522069
      4.67248      8.52419     18.07308        -0.089156      0.210621     -1.382180
      7.99097      2.33732     16.39247        -0.255290     -0.019386      0.656452
     14.35100      4.13402     12.76370        -0.233421     -0.821577      0.071404
      8.23856      8.69211     11.51376        -1.542849     -0.822363     -0.521586
      2.73424      2.20336     17.66146        -0.721270     -0.698420     -0.555181
      6.62359      7.29697     18.53829         0.258152      0.626342      0.322787
      0.17064     11.48930     12.09085         0.272046      0.040764     -0.317180
      0.08376      6.66171     15.49131        -0.730562      1.951196     -0.389399
     12.81100      0.48040     13.63721        -0.100435     -0.062111     -0.042201
      9.59954      9.78372     18.61132         0.525201      0.318514     -1.057473
     11.82930      9.28173     15.38114         0.494983     -0.473793      0.441015
      6.69604      4.16106     11.24189         0.148389      0.489206      0.222273
      0.47476      0.77918     14.55614         0.409613      0.279250     -0.328851
      5.89610      1.10242     10.39435         0.895696     -0.809221     -0.868098
     13.75900     10.28290     16.27739         0.476495      0.165788     -0.019417
      4.14120      0.31156     14.49475         0.618258     -0.635984     -0.123556
      4.93684      2.35745     13.79764        -0.664373     -0.082072      0.125014
      3.16796      5.94089     13.04686         0.019963     -0.024291     -0.067724
      8.41298     10.81740     14.83052        -0.635951      0.812560      0.152504
      7.34064     12.19340     10.18720        -0.755488     -0.245307     -0.242840
      7.01245      9.21677     15.76179         1.103678      0.085865      0.055463
      5.55765     13.44950     11.22433         1.130164     -0.249076      0.457412
      6.27225      7.91164     12.73371         0.163823     -0.065900     -0.331045
     13.41690      0.54187     11.30371         0.133671      0.903298      0.317439
     10.11980      4.78527     16.84386         0.861089     -0.489486      1.604154
      9.99884      1.77882     10.41752         1.048559     -0.035581     -0.609929
      7.59653     13.73640     16.78305        -1.002522     -0.661222      0.482762
     12.46070     11.69650     12.41945        -0.822140     -0.567361      0.177123
      2.07353      4.85280     10.09677        -0.159641     -1.150786      0.802798
     10.08360      1.51281     16.30907         1.565916     -0.204993     -0.305851
      5.31813      5.91377     11.94602         0.304901      0.416399     -0.427073
      0.18456      9.00131     18.10775        -1.042853      1.108043     -0.218901
      9.19058     12.12910     11.54262        -0.128858      0.860120      0.247405
     10.14370     10.57110     16.32784         0.080441     -0.204966      1.259252
      7.71518     13.11980     14.47168        -1.486334     -1.157516      1.407223
      4.22984      0.53763     16.89432         0.104786      1.542682     -0.977257
      2.58518      2.79122     11.33064        -0.860368      0.882244     -0.619932
      4.40377     11.13350     14.55919         0.564882      0.569042     -1.126808
      0.79115     13.73390     11.50155         1.200454     -0.547569      1.113005
      7.22668      7.14381     14.79058        -0.051889     -0.399293     -0.673894
     12.42740      7.07747     16.14071        -0.977377     -0.024027     -0.256161
      8.36794      3.90734     12.91564        -0.041384     -0.908572     -0.632331
     14.24690      1.50569     18.78511         0.298387     -1.226047      0.422765
     13.45560     12.55700     16.69241         0.258066     -0.454450     -0.153853
      4.01653      6.15404     10.00000        -0.156715      1.223341      0.516295
      6.42067      1.09436     17.47992         0.120762     -0.552359      0.066776
      3.00834      9.30489     11.09725        -0.651898     -0.399596     -0.310004
     14.27200      7.81604     11.88712         0.062839     -0.207039     -0.886788
     11.19390      2.13941     14.08384         0.781843     -1.469471      1.417789
      9.21083     10.15680     12.83777         1.185307      0.669433     -0.025646
      3.35239      4.02072     14.44819         0.224737     -0.239074     -0.299962
      1.30831      5.40389     18.93775        -0.237501     -0.243021     -0.345427
      3.25406      4.25714     18.31758        -0.505378      0.726921      0.593174
      0.71398      8.32487     13.88591         0.231309      0.124275      0.944951
      4.41423      9.40391     12.95890         0.117721     -0.512390      0.468773
      7.01291      2.96170     14.48551        -0.652972      1.079073     -0.081690
      9.13188      5.97392     13.73520        -0.193500      0.190804      0.530347
      0.70687      9.59567     10.64156        -0.074589     -0.275488      0.493098
     11.03350      5.51810     14.97045         0.806855      0.993724     -0.539086
     11.23710     12.62410     16.32638        -0.067714     -0.568894     -0.341865
      0.27683     13.70120     18.07146         0.570208      0.805344      0.483005
      0.63565      1.74777     16.68689         0.158315      0.222187     -0.311389
      1.04061      5.89873     11.90670        -0.029986     -0.095670     -0.518611
      2.13356     12.21670     17.47624        -0.822631      0.221001     -0.136127
      4.13529      5.16195     16.41300         0.460537     -0.010012     -0.264673
      7.99309      4.34550     17.37630        -0.547292      1.231396      0.319689
      4.83319      2.70791     11.53103         0.743273     -0.119480      0.082133
     12.36880      6.64168     18.50520         0.022288      0.483970     -0.506592
      9.56218      1.76700     12.69308        -1.202654     -0.389949     -1.281453
      2.32548     11.87360     15.05685        -1.134394      0.329701      0.061361
     13.56310      3.48572     16.48426         0.280833     -0.454522     -0.645752
      0.49621     10.60110     14.24102         0.357790      0.000924      0.916884
      9.77407      6.98791     11.78174         0.646166     -0.344683     -0.815327
      9.37076     13.83090     13.22289         0.992035      1.004996     -1.159229
      1.59607      2.69402     13.49024        -0.970330      0.286923      0.114705
      1.25289      7.15210     17.33766         0.935661     -0.379611      1.064198
     11.56770      2.97447     17.44444        -0.911569      0.018136      0.352162
      5.53406     13.07640     13.52487        -0.050831      0.215815      1.564154
      5.22991     10.35340     16.56104        -0.395604     -0.515313      1.057661
     13.55310      2.91498     10.88537        -0.164747      0.015033      0.204918
     12.56180      3.84288     14.39345         0.847832      1.403590     -0.360631
     11.41590      3.71781     10.18517        -1.063990     -0.289469      0.678047
      9.61774      5.34109     10.09824         0.303838     -0.794720      0.003887
     11.24340     12.06040     10.47612         0.114041      1.435282     -0.571734
     11.97110      7.83385     11.57063        -0.221782      0.540745      0.650595
     11.44450     13.11450     14.06815         0.474797      0.556446     -0.757948
      6.40371      5.93672     16.64276        -0.208137     -0.787855     -0.247004
      2.15661     13.89310     13.77848        -1.195661     -0.133398     -0.278071
      3.37519      7.33812     16.48085        -0.051872      0.663395     -0.280483
      9.82395     13.99050     17.33463        -0.320646      0.743223      0.457263
     11.52730      9.58473     13.07073        -0.023170      0.258634     -0.605016
      3.00097      8.00895     14.17986         0.382788     -0.650382      0.189096
      6.00936     12.10590     17.84592         0.175024      1.115838     -0.529639
 -----------------------------------------------------------------------------------
    total drift:                               -0.008029      0.008578      0.012523


--------------------------------------------------------------------------------------------------------



  FREE ENERGIE OF THE ION-ELECTRON SYSTEM (eV)
  ---------------------------------------------------
  free  energy   TOTEN  =      -905.45363566 eV

  energy  without entropy=     -905.17653225  energy(sigma->0) =     -905.31508395



--------------------------------------------------------------------------------------------------------


    POTLOK:  cpu time      3.9527: real time      3.9554


--------------------------------------------------------------------------------------------------------


     LOOP+:  cpu time   6666.2343: real time   6670.7740
    4ORBIT:  cpu time      0.0000: real time      0.0000



 total charge

# of ion       s       p       d       tot
------------------------------------------
    1        0.396   0.001   0.000   0.397
    2        0.536   0.014   0.000   0.549
    3        0.572   0.018   0.000   0.589
    4        0.562   0.017   0.000   0.579
    5        0.567   0.017   0.000   0.584
    6        0.575   0.017   0.000   0.592
    7        0.570   0.020   0.000   0.590
    8        0.598   0.021   0.000   0.619
    9        0.793   0.838   0.000   1.631
   10        0.784   0.916   0.000   1.699
   11        0.809   0.823   0.000   1.633
   12        0.761   1.015   0.000   1.776
   13        0.761   0.912   0.000   1.673
   14        0.799   0.889   0.000   1.688
   15        0.780   0.873   0.000   1.652
   16        0.881   0.719   0.000   1.600
   17        0.755   0.918   0.000   1.673
   18        0.761   1.000   0.000   1.761
   19        0.764   0.897   0.000   1.661
   20        0.935   0.550   0.000   1.486
   21        0.764   0.924   0.000   1.688
   22        0.796   0.832   0.000   1.628
   23        0.764   0.894   0.000   1.658
   24        0.868   0.756   0.000   1.624
   25        0.764   0.899   0.000   1.664
   26        0.758   0.928   0.000   1.686
   27        0.762   0.965   0.000   1.728
   28        0.775   0.877   0.000   1.652
   29        0.757   0.984   0.000   1.741
   30        0.863   0.731   0.000   1.594
   31        0.769   0.973   0.000   1.742
   32        0.750   0.975   0.000   1.725
   33        0.758   0.899   0.000   1.657
   34        0.759   0.928   0.000   1.687
   35        0.791   0.889   0.000   1.681
   36        0.804   0.815   0.000   1.619
   37        0.759   0.903   0.000   1.663
   38        0.764   0.923   0.000   1.687
   39        0.813   0.823   0.000   1.636
   40        0.762   0.919   0.000   1.681
   41        0.767   0.907   0.000   1.674
   42        0.844   0.734   0.000   1.577
   43        0.764   0.942   0.000   1.707
   44        0.760   0.950   0.000   1.710
   45        0.759   0.942   0.000   1.701
   46        0.762   0.933   0.000   1.695
   47        0.798   0.837   0.000   1.635
   48        0.754   0.945   0.000   1.699
   49        0.813   0.781   0.000   1.594
   50        0.754   0.917   0.000   1.671
   51        0.762   0.912   0.000   1.674
   52        0.769   0.911   0.000   1.680
   53        0.897   0.669   0.000   1.566
   54        0.756   0.969   0.000   1.726
   55        0.862   0.723   0.000   1.585
   56        0.807   0.876   0.000   1.684
   57        0.771   0.884   0.000   1.655
   58        0.754   0.944   0.000   1.698
   59        0.769   0.976   0.000   1.745
   60        0.765   0.987   0.000   1.752
   61        0.765   0.890   0.000   1.655
   62        0.861   0.733   0.000   1.594
   63        0.787   0.913   0.000   1.700
   64        0.763   0.957   0.000   1.720
   65        0.754   0.938   0.000   1.692
   66        0.771   0.996   0.000   1.768
   67        0.766   0.914   0.000   1.680
   68        0.827   0.797   0.000   1.625
   69        0.763   0.972   0.000   1.736
   70        0.759   0.999   0.000   1.758
   71        0.807   0.809   0.000   1.617
   72        0.752   0.934   0.000   1.686
   73        0.763   0.920   0.000   1.683
   74        0.791   0.819   0.000   1.611
   75        0.766   0.921   0.000   1.687
   76        0.803   0.905   0.000   1.708
   77        0.761   0.979   0.000   1.740
   78        0.915   0.601   0.000   1.516
   79        0.762   0.918   0.000   1.680
   80        0.756   0.930   0.000   1.686
   81        0.761   0.967   0.000   1.729
   82        0.762   0.928   0.000   1.691
   83        0.761   0.932   0.000   1.693
   84        0.762   0.938   0.000   1.700
   85        0.767   0.877   0.000   1.644
   86        0.764   1.005   0.000   1.769
   87        0.798   0.856   0.000   1.654
   88        0.759   0.898   0.000   1.657
   89        0.761   0.937   0.000   1.697
   90        0.799   0.809   0.000   1.608
   91        0.767   0.949   0.000   1.716
   92        0.789   0.818   0.000   1.607
   93        0.863   0.705   0.000   1.568
   94        0.806   0.842   0.000   1.648
   95        0.787   0.866   0.000   1.653
   96        0.768   0.922   0.000   1.690
   97        0.767   0.901   0.000   1.669
   98        0.766   0.884   0.000   1.650
   99        0.764   0.935   0.000   1.700
  100        0.795   0.917   0.000   1.712
  101        0.761   0.925   0.000   1.686
  102        0.768   0.927   0.000   1.695
  103        0.797   0.827   0.000   1.624
--------------------------------------------------
tot         78.833  84.467   0.000 163.300


 total amount of memory used by VASP MPI-rank0   382070. kBytes
=======================================================================

   base                                    :      30000. kBytes
   nonl-proj                               :      77915. kBytes
   fftplans                                :     114273. kBytes
   grid                                    :      88184. kBytes
   one-center                              :         21. kBytes
   wavefun                                 :      71677. kBytes

  
  
 General timing and accounting informations for this job:
 ========================================================
  
                  Total CPU time used (sec):     6821.701
                            User time (sec):     6071.126
                          System time (sec):      750.575
                         Elapsed time (sec):     6826.341
  
                   Maximum memory used (kb):      661172.
                   Average memory used (kb):          N/A
  
                          Minor page faults:     10945064
                          Major page faults:         1162
                 Voluntary context switches:         2844
