 vasp.6.5.0 16Dec24 (build Jan 20 2025 08:32:48) complex                         
 executed on        HPECrayEX_GCC date 2025.07.22  10:47:42
 running  128 mpi-ranks, with    1 threads/rank, on    1 nodes
 distrk:  each k-point on  128 cores,    1 groups
 distr:  one band on NCORE=  16 cores,    8 groups


--------------------------------------------------------------------------------------------------------


 INCAR:
   SYSTEM = a-Si SPC
   NCORE = 16
   ISTART = 1
   ICHARG = 1
   ISPIN = 1
   ISYM = 1
   EDIFF = 1E-6
   NELM = 150
   EDIFFG = -0.01
   NSW = 0
   ISIF = 2
   IBRION = -1
   PREC = Accurate
   ENCUT = 1200
   KSPACING = 0.23
   KGAMMA = .TRUE.
   METAGGA = SCAN
   LASPH = .TRUE.
   LDIAG = .FALSE.
   LMIXTAU = .TRUE.
   ADDGRID = .TRUE.
   ALGO = Normal
   ISMEAR = 0
   SIGMA = 0.1
   LORBIT = 11
   NEDOS = 2000
   LWAVE = .FALSE.
   LCHARG = .FALSE.

 POTCAR:    PAW_PBE H 15Jun2001                   
 POTCAR:    PAW_PBE Si 05Jan2001                  
 POTCAR:    PAW_PBE H 15Jun2001                   
   SHA256 =  030f79b5d3ab3cf0e668861823c8fb652ff669f3e15e46930bd03bfd63a607b6 H/POTCAR              
   COPYR  = (c) Copyright 15Jun2001 Georg Kresse                                                    
   COPYR  = This file is part of the software VASP. Any use, copying, and all other rights are regul
   COPYR  = If you do not have a valid VASP license, you may not use, copy or distribute this file. 
   VRHFIN =H: ultrasoft test                                                                        
   LEXCH  = PE                                                                                      
   EATOM  =    12.4884 eV,    0.9179 Ry                                                             
                                                                                                    
   TITEL  = PAW_PBE H 15Jun2001                                                                     
   LULTRA =        F    use ultrasoft PP ?                                                          
   IUNSCR =        0    unscreen: 0-lin 1-nonlin 2-no                                               
   RPACOR =    0.000    partial core radius                                                         
   POMASS =    1.000; ZVAL   =    1.000    mass and valenz                                          
   RCORE  =    1.100    outmost cutoff radius                                                       
   RWIGS  =    0.700; RWIGS  =    0.370    wigner-seitz radius (au A)                               
   ENMAX  =  250.000; ENMIN  =  200.000 eV                                                          
   RCLOC  =    0.701    cutoff for local pot                                                        
   LCOR   =        T    correct aug charges                                                         
   LPAW   =        T    paw PP                                                                      
   EAUG   =  400.000                                                                                
   RMAX   =    1.123    core radius for proj-oper                                                   
   RAUG   =    1.200    factor for augmentation sphere                                              
   RDEP   =    1.112    radius for radial grids                                                     
   RDEPT  =    0.926    core radius for aug-charge                                                  
                                                                                                    
   Atomic configuration                                                                             
    2 entries                                                                                       
     n  l   j            E        occ.                                                              
     1  0  0.50        -6.4927   1.0000                                                             
     2  1  0.50        -3.4015   0.0000                                                             
   Description                                                                                      
     l       E           TYP  RCUT    TYP  RCUT                                                     
     0     -6.4927494     23  1.100                                                                 
     0      6.8029130     23  1.100                                                                 
     1     -4.0817478     23  1.100                                                                 
  local pseudopotential read in
  atomic valenz-charges read in
  non local Contribution for L=           0  read in
    real space projection operators read in
  non local Contribution for L=           0  read in
    real space projection operators read in
  non local Contribution for L=           1  read in
    real space projection operators read in
    PAW grid and wavefunctions read in

   number of l-projection  operators is LMAX  =           3
   number of lm-projection operators is LMMAX =           5

 POTCAR:    PAW_PBE Si 05Jan2001                  
   SHA256 =  79d9987ad8750f624c4d6acb2a16d13abf6a777132adc04dc6c8399be72b42bb Si/POTCAR             
   COPYR  = (c) Copyright 05Jan2001 Georg Kresse                                                    
   COPYR  = This file is part of the software VASP. Any use, copying, and all other rights are regul
   COPYR  = If you do not have a valid VASP license, you may not use, copy or distribute this file. 
   VRHFIN =Si: s2p2                                                                                 
   LEXCH  = PE                                                                                      
   EATOM  =   103.0669 eV,    7.5752 Ry                                                             
                                                                                                    
   TITEL  = PAW_PBE Si 05Jan2001                                                                    
   LULTRA =        F    use ultrasoft PP ?                                                          
   IUNSCR =        1    unscreen: 0-lin 1-nonlin 2-no                                               
   RPACOR =    1.500    partial core radius                                                         
   POMASS =   28.085; ZVAL   =    4.000    mass and valenz                                          
   RCORE  =    1.900    outmost cutoff radius                                                       
   RWIGS  =    2.480; RWIGS  =    1.312    wigner-seitz radius (au A)                               
   ENMAX  =  245.345; ENMIN  =  184.009 eV                                                          
   ICORE  =        2    local potential                                                             
   LCOR   =        T    correct aug charges                                                         
   LPAW   =        T    paw PP                                                                      
   EAUG   =  322.069                                                                                
   DEXC   =    0.000                                                                                
   RMAX   =    1.950    core radius for proj-oper                                                   
   RAUG   =    1.300    factor for augmentation sphere                                              
   RDEP   =    1.993    radius for radial grids                                                     
   RDEPT  =    1.837    core radius for aug-charge                                                  
                                                                                                    
   Atomic configuration                                                                             
    6 entries                                                                                       
     n  l   j            E        occ.                                                              
     1  0  0.50     -1785.8828   2.0000                                                             
     2  0  0.50      -139.4969   2.0000                                                             
     2  1  1.50       -95.5546   6.0000                                                             
     3  0  0.50       -10.8127   2.0000                                                             
     3  1  0.50        -4.0811   2.0000                                                             
     3  2  1.50        -4.0817   0.0000                                                             
   Description                                                                                      
     l       E           TYP  RCUT    TYP  RCUT                                                     
     0    -10.8127223     23  1.900                                                                 
     0     -7.6451159     23  1.900                                                                 
     1     -4.0811372     23  1.900                                                                 
     1      2.4879257     23  1.900                                                                 
     2     -4.0817478      7  1.900                                                                 
  local pseudopotential read in
  partial core-charges read in
  partial kinetic energy density read in
  atomic valenz-charges read in
  non local Contribution for L=           0  read in
    real space projection operators read in
  non local Contribution for L=           0  read in
    real space projection operators read in
  non local Contribution for L=           1  read in
    real space projection operators read in
  non local Contribution for L=           1  read in
    real space projection operators read in
    PAW grid and wavefunctions read in

   number of l-projection  operators is LMAX  =           4
   number of lm-projection operators is LMMAX =           8

 -----------------------------------------------------------------------------
|                                                                             |
|               ----> ADVICE to this user running VASP <----                  |
|                                                                             |
|     You have a (more or less) 'large supercell' and for larger cells it     |
|     might be more efficient to use real-space projection operators.         |
|     Therefore, try LREAL= Auto in the INCAR file.                           |
|     Mind: For very accurate calculation, you might also keep the            |
|     reciprocal projection scheme (i.e. LREAL=.FALSE.).                      |
|                                                                             |
 -----------------------------------------------------------------------------

 -----------------------------------------------------------------------------
|                                                                             |
|               ----> ADVICE to this user running VASP <----                  |
|                                                                             |
|     You enforced a specific xc type in the INCAR file but a different       |
|     type was found in the POTCAR file.                                      |
|     I HOPE YOU KNOW WHAT YOU ARE DOING!                                     |
|                                                                             |
 -----------------------------------------------------------------------------

  PAW_PBE H 15Jun2001                   :
 energy of atom  1       EATOM=  -12.4884
 kinetic energy error for atom=    0.0000 (will be added to EATOM!!)
  PAW_PBE Si 05Jan2001                  :
 energy of atom  2       EATOM= -103.0669
 kinetic energy error for atom=    0.0001 (will be added to EATOM!!)


 POSCAR:  H Si
  positions in cartesian coordinates
  No initial velocities read in


 exchange-correlation table for SCAN
   RHO(1)=    0.500       N(1)  =     2000
   RHO(2)=  100.500       N(2)  =     4000



--------------------------------------------------------------------------------------------------------


 ion  position               nearest neighbor table
   1  0.261  0.654  0.317-  23 1.45
   2  0.355  0.037  0.452-  48 1.52
   3  0.936  0.945  0.195-  53 1.44
   4  0.235  0.140  0.538-  32 1.47
   5  0.832  0.323  0.527-  28 2.45  19 2.46  20 2.48  12 2.52
   6  0.649  0.926  0.663-  29 2.36  45 2.43  44 2.51  54 2.58
   7  0.750  0.153  0.204-  43 2.34  10 2.38  34 2.40  57 2.45  53 2.93
   8  0.902  0.629  0.282-  14 2.34  13 2.47  51 2.51
   9  0.702  0.530  0.518-  47 2.22  46 2.41  51 2.47  52 2.50
  10  0.595  0.108  0.260-  18 2.35   7 2.38  21 2.39  54 2.40
  11  0.315  0.347  0.068-  22 2.27  41 2.38  15 2.38  37 2.41
  12  0.826  0.392  0.219-  43 2.29  46 2.30  13 2.32   5 2.52
  13  0.954  0.481  0.153-  16 2.30  12 2.32  33 2.38   8 2.47
  14  0.795  0.694  0.083-   8 2.34  31 2.46  27 2.47  42 2.47
  15  0.286  0.500  0.967-  58 2.27  11 2.38  55 2.38  23 2.43  30 3.04
  16  0.024  0.425  0.900-  13 2.30  28 2.38  58 2.47  17 2.52
  17  0.073  0.268  0.007-  41 2.33  50 2.36  16 2.52  24 2.65
  18  0.520  0.179  0.502-  10 2.35  48 2.42  25 2.50  56 2.51
  19  0.722  0.312  0.776-  52 2.37  25 2.41   5 2.46  43 2.46
  20  0.938  0.190  0.528-  34 2.34  24 2.38  50 2.44   5 2.48
  21  0.515  0.138  0.988-  10 2.39  25 2.49  36 2.55  22 2.56
  22  0.463  0.306  0.015-  11 2.27  26 2.45  38 2.49  21 2.56
  23  0.287  0.562  0.269-   1 1.45  49 2.36  30 2.40  15 2.43
  24  0.060  0.256  0.359-  33 2.37  20 2.38  32 2.38  17 2.65
  25  0.633  0.172  0.754-  19 2.41  45 2.44  21 2.49  18 2.50
  26  0.522  0.412  0.242-  56 2.27  30 2.34  22 2.45  46 2.51
  27  0.653  0.604  0.038-  14 2.47  40 2.47  46 2.49  39 2.51  52 2.82
  28  0.939  0.442  0.631-  51 2.27  33 2.30  16 2.38   5 2.45
  29  0.544  0.862  0.867-   6 2.36  35 2.54  39 2.56  36 2.63
  30  0.449  0.554  0.201-  26 2.34  23 2.40  40 2.45  55 2.48  15 3.04
  31  0.848  0.708  0.772-  51 2.35  44 2.43  14 2.46
  32  0.195  0.233  0.536-   4 1.47  37 2.37  24 2.38  41 2.51
  33  0.037  0.417  0.396-  28 2.30  24 2.37  13 2.38  49 2.45
  34  0.832  0.078  0.439-  53 2.30  20 2.34   7 2.40  45 2.42
  35  0.584  0.835  0.193-  40 2.36  54 2.42  42 2.49  29 2.54
  36  0.425  0.999  0.876-  48 2.35  21 2.55  29 2.63
  37  0.295  0.336  0.387-  32 2.37  11 2.41  49 2.43  56 2.48
  38  0.490  0.417  0.766-  55 2.32  52 2.33  56 2.45  22 2.49
  39  0.548  0.687  0.826-  47 2.41  27 2.51  29 2.56  55 2.56
  40  0.556  0.680  0.266-  35 2.36  47 2.39  30 2.45  27 2.47
  41  0.210  0.289  0.852-  17 2.33  11 2.38  58 2.47  32 2.51
  42  0.752  0.830  0.261-  44 2.39  14 2.47  53 2.48  35 2.49
  43  0.820  0.268  0.030-  12 2.29   7 2.34  50 2.44  19 2.46  57 2.73
  44  0.746  0.791  0.571-  42 2.39  31 2.43  47 2.50   6 2.51
  45  0.752  0.055  0.719-  57 2.38  34 2.42   6 2.43  25 2.44
  46  0.686  0.466  0.224-  12 2.30   9 2.41  27 2.49  26 2.51
  47  0.630  0.664  0.550-   9 2.22  40 2.39  39 2.41  44 2.50
  48  0.440  0.039  0.573-   2 1.52  36 2.35  54 2.37  18 2.42
  49  0.196  0.466  0.453-  23 2.36  58 2.40  37 2.43  33 2.45
  50  0.946  0.204  0.853-  17 2.36  57 2.44  20 2.44  43 2.44
  51  0.861  0.576  0.591-  28 2.27  31 2.35   9 2.47   8 2.51
  52  0.645  0.455  0.797-  38 2.33  19 2.37   9 2.50  27 2.82
  53  0.841  0.974  0.208-   3 1.44  34 2.30  57 2.38  42 2.48   7 2.93
  54  0.549  0.963  0.388-  48 2.37  10 2.40  35 2.42   6 2.58
  55  0.433  0.556  0.871-  38 2.32  15 2.38  30 2.48  39 2.56
  56  0.458  0.340  0.481-  26 2.27  38 2.45  37 2.48  18 2.51
  57  0.847  0.084  0.973-  53 2.38  45 2.38  50 2.44   7 2.45  43 2.73
  58  0.178  0.451  0.770-  15 2.27  49 2.40  41 2.47  16 2.47

  LATTYP: Found a simple tetragonal cell.
 ALAT       =    14.5295791732
 C/A-ratio  =     0.5150604462
  
  Lattice vectors:
  
 A1 = (  14.5295791732,   0.0000000000,   0.0000000000)
 A2 = (   0.0000000000,  14.5295791732,   0.0000000000)
 A3 = (   0.0000000000,   0.0000000000,   7.4836115317)


Analysis of symmetry for initial positions (statically):
=====================================================================
 Subroutine PRICEL returns:
 Original cell was already a primitive cell.
 

 Routine SETGRP: Setting up the symmetry group for a 
 simple tetragonal supercell.


 Subroutine GETGRP returns: Found  1 space group operations
 (whereof  1 operations were pure point group operations)
 out of a pool of 16 trial point group operations.


The static configuration has the point symmetry C_1 .


Analysis of symmetry for dynamics (positions and initial velocities):
=====================================================================
 Subroutine PRICEL returns:
 Original cell was already a primitive cell.
 

 Routine SETGRP: Setting up the symmetry group for a 
 simple tetragonal supercell.


 Subroutine GETGRP returns: Found  1 space group operations
 (whereof  1 operations were pure point group operations)
 out of a pool of 16 trial point group operations.


The dynamic configuration has the point symmetry C_1 .


 Subroutine INISYM returns: Found  1 space group operations
 (whereof  1 operations are pure point group operations),
 and found     1 'primitive' translations


----------------------------------------------------------------------------------------

                                     Primitive cell                                     

  volume of cell :    1579.8553

  direct lattice vectors                    reciprocal lattice vectors
    14.529579173  0.000000000  0.000000000     0.068825118  0.000000000  0.000000000
     0.000000000 14.529579173  0.000000000     0.000000000  0.068825118  0.000000000
     0.000000000  0.000000000  7.483611532     0.000000000  0.000000000  0.133625322

  length of vectors
    14.529579173 14.529579173  7.483611532     0.068825118  0.068825118  0.133625322

  position of ions in fractional coordinates (direct lattice)
     0.260588414  0.654458735  0.317124959
     0.355424609  0.037101212  0.452242876
     0.935588006  0.945237287  0.195167800
     0.234643410  0.140360569  0.537660190
     0.831902965  0.322974254  0.527205345
     0.649360170  0.926303497  0.662626591
     0.749560594  0.153444912  0.204294410
     0.901643457  0.629263924  0.281512474
     0.701637665  0.530391136  0.517846228
     0.595284275  0.107580542  0.260127078
     0.315277541  0.347178672  0.067981214
     0.826218011  0.391867509  0.218927719
     0.953709659  0.481416558  0.153423250
     0.795026467  0.693915486  0.082648865
     0.286491436  0.499799059  0.966950244
     0.023962772  0.424889113  0.900464966
     0.072814910  0.267712502  0.006706147
     0.520425259  0.179299068  0.501713642
     0.721844719  0.311601592  0.776063800
     0.938430483  0.190035786  0.528277020
     0.515471227  0.138129259  0.987790450
     0.463209562  0.305855383  0.014603377
     0.287419887  0.561548267  0.268880873
     0.060116607  0.256289598  0.359182193
     0.632601942  0.172416556  0.754083770
     0.521635204  0.412285169  0.241990113
     0.653092556  0.603808266  0.037776012
     0.938623193  0.441930900  0.631394345
     0.543792763  0.861828127  0.866880913
     0.448591795  0.554301670  0.201204992
     0.847512502  0.707584155  0.771867964
     0.194669093  0.233032214  0.535818833
     0.037488973  0.416500707  0.396256538
     0.832357211  0.077820561  0.439313290
     0.584248167  0.835275396  0.193128678
     0.425240809  0.998858936  0.875788377
     0.295037451  0.336053092  0.386802547
     0.489794640  0.416928799  0.766289107
     0.547805267  0.687126577  0.826376406
     0.556400148  0.679952247  0.266368717
     0.210094178  0.289368326  0.851829357
     0.752237891  0.830498933  0.261417899
     0.819851687  0.267717320  0.030258652
     0.746229459  0.791034610  0.570736466
     0.751549640  0.055430786  0.719365239
     0.686057723  0.465528968  0.223560509
     0.630410550  0.664399146  0.549932340
     0.439675501  0.038578750  0.573046848
     0.196004300  0.466404424  0.453238384
     0.946008128  0.204438130  0.852864953
     0.861015990  0.576323643  0.591143725
     0.644682815  0.454549297  0.797103107
     0.840912173  0.973820359  0.207765996
     0.548533437  0.963331411  0.387923663
     0.432508741  0.555755256  0.871013945
     0.458393868  0.340414539  0.481244916
     0.846631541  0.083972150  0.972762946
     0.178199242  0.450774928  0.770364680

  ion indices of the primitive-cell ions
   primitive index   ion index
                 1           1
                 2           2
                 3           3
                 4           4
                 5           5
                 6           6
                 7           7
                 8           8
                 9           9
                10          10
                11          11
                12          12
                13          13
                14          14
                15          15
                16          16
                17          17
                18          18
                19          19
                20          20
                21          21
                22          22
                23          23
                24          24
                25          25
                26          26
                27          27
                28          28
                29          29
                30          30
                31          31
                32          32
                33          33
                34          34
                35          35
                36          36
                37          37
                38          38
                39          39
                40          40
                41          41
                42          42
                43          43
                44          44
                45          45
                46          46
                47          47
                48          48
                49          49
                50          50
                51          51
                52          52
                53          53
                54          54
                55          55
                56          56
                57          57
                58          58

----------------------------------------------------------------------------------------


 -----------------------------------------------------------------------------
|                                                                             |
|           W    W    AA    RRRRR   N    N  II  N    N   GGGG   !!!           |
|           W    W   A  A   R    R  NN   N  II  NN   N  G    G  !!!           |
|           W    W  A    A  R    R  N N  N  II  N N  N  G       !!!           |
|           W WW W  AAAAAA  RRRRR   N  N N  II  N  N N  G  GGG   !            |
|           WW  WW  A    A  R   R   N   NN  II  N   NN  G    G                |
|           W    W  A    A  R    R  N    N  II  N    N   GGGG   !!!           |
|                                                                             |
|     The requested file  could not be found or opened for reading            |
|     k-point information. Automatic k-point generation is used as a          |
|     fallback, which may lead to unwanted results.                           |
|                                                                             |
 -----------------------------------------------------------------------------



Automatic generation of k-mesh.
 Grid dimensions derived from KSPACING:
 generate k-points for:    2    2    4

 Generating k-lattice:

  Cartesian coordinates                     Fractional coordinates (reciprocal lattice)
     0.034412559  0.000000000  0.000000000     0.500000000  0.000000000  0.000000000
     0.000000000  0.034412559  0.000000000     0.000000000  0.500000000  0.000000000
     0.000000000  0.000000000  0.033406330     0.000000000  0.000000000  0.250000000

  Length of vectors
     0.034412559  0.034412559  0.033406330

  Shift w.r.t. Gamma in fractional coordinates (k-lattice)
     0.000000000  0.000000000  0.000000000

 
 Subroutine IBZKPT returns following result:
 ===========================================
 
 Found     12 irreducible k-points:
 
 Following reciprocal coordinates:
            Coordinates               Weight
  0.000000  0.000000  0.000000      1.000000
  0.500000  0.000000  0.000000      1.000000
  0.000000  0.500000  0.000000      1.000000
  0.500000  0.500000  0.000000      1.000000
  0.000000  0.000000  0.250000      2.000000
  0.500000  0.000000  0.250000      2.000000
  0.000000  0.500000  0.250000      2.000000
  0.500000  0.500000  0.250000      2.000000
  0.000000  0.000000  0.500000      1.000000
  0.500000  0.000000  0.500000      1.000000
  0.000000  0.500000  0.500000      1.000000
  0.500000  0.500000  0.500000      1.000000
 
 Following cartesian coordinates:
            Coordinates               Weight
  0.000000  0.000000  0.000000      1.000000
  0.034413  0.000000  0.000000      1.000000
  0.000000  0.034413  0.000000      1.000000
  0.034413  0.034413  0.000000      1.000000
  0.000000  0.000000  0.033406      2.000000
  0.034413  0.000000  0.033406      2.000000
  0.000000  0.034413  0.033406      2.000000
  0.034413  0.034413  0.033406      2.000000
  0.000000  0.000000  0.066813      1.000000
  0.034413  0.000000  0.066813      1.000000
  0.000000  0.034413  0.066813      1.000000
  0.034413  0.034413  0.066813      1.000000
 


--------------------------------------------------------------------------------------------------------




 Dimension of arrays:
   k-points           NKPTS =     12   k-points in BZ     NKDIM =     12   number of bands    NBANDS=    144
   number of dos      NEDOS =   2000   number of ions     NIONS =     58
   non local maximal  LDIM  =      4   non local SUM 2l+1 LMDIM =      8
   total plane-waves  NPLWV = ******
   max r-space proj   IRMAX =      1   max aug-charges    IRDMAX= 430214
   dimension x,y,z NGX =   168 NGY =  168 NGZ =   90
   dimension x,y,z NGXF=   336 NGYF=  336 NGZF=  180
   support grid    NGXF=   672 NGYF=  672 NGZF=  360
   ions per type =               4  54
   NGX,Y,Z   is equivalent  to a cutoff of  19.22, 19.22, 19.99 a.u.
   NGXF,Y,Z  is equivalent  to a cutoff of  38.44, 38.44, 39.99 a.u.

 SYSTEM =  a-Si SPC                                
 POSCAR =   H Si                                   

 Startparameter for this run:
   NWRITE =      2    write-flag & timer
   PREC   = accura    normal or accurate (medium, high low for compatibility)
   ISTART =      1    job   : 0-new  1-cont  2-samecut
   ICHARG =      1    charge: 1-file 2-atom 10-const
   ISPIN  =      1    spin polarized calculation?
   LNONCOLLINEAR =      F non collinear calculations
   LSORBIT =      F    spin-orbit coupling
   INIWAV =      1    electr: 0-lowe 1-rand  2-diag
   LASPH  =      T    aspherical Exc in radial PAW
 Electronic Relaxation 1
   ENCUT  = 1200.0 eV  88.20 Ry    9.39 a.u.  41.04 41.04 21.14*2*pi/ulx,y,z
   ENINI  = 1200.0     initial cutoff
   ENAUG  =  400.0 eV  augmentation charge cutoff
   NELM   =    150;   NELMIN=  2; NELMDL=  0     # of ELM steps 
   EDIFF  = 0.1E-05   stopping-criterion for ELM
   LREAL  =      F    real-space projection
   NLSPLINE    = F    spline interpolate recip. space projectors
   LCOMPAT=      F    compatible to vasp.4.4
   GGA_COMPAT  = T    GGA compatible to vasp.4.4-vasp.4.6
   LMAXPAW     = -100 max onsite density
   LMAXMIX     =    2 max onsite mixed and CHGCAR
   VOSKOWN=      0    Vosko Wilk Nusair interpolation
   ROPT   =    0.00000   0.00000
 Ionic relaxation
   EDIFFG = -.1E-01   stopping-criterion for IOM
   NSW    =      0    number of steps for IOM
   NBLOCK =      1;   KBLOCK =      1    inner block; outer block 
   IBRION =     -1    ionic relax: 0-MD 1-quasi-New 2-CG
   NFREE  =      0    steps in history (QN), initial steepest desc. (CG)
   ISIF   =      2    stress and relaxation
   IWAVPR =     10    prediction:  0-non 1-charg 2-wave 3-comb
   ISYM   =      1    0-nonsym 1-usesym 2-fastsym
   LCORR  =      T    Harris-Foulkes like correction to forces

   POTIM  = 0.5000    time-step for ionic-motion
   TEIN   =    0.0    initial temperature
   TEBEG  =    0.0;   TEEND  =   0.0 temperature during run
   SMASS  =  -3.00    Nose mass-parameter (am)
   estimated Nose-frequenzy (Omega)   =  0.10E-29 period in steps = 0.13E+47 mass=  -0.482E-26a.u.
   SCALEE = 1.0000    scale energy and forces
   NPACO  =    256;   APACO  = 10.0  distance and # of slots for P.C.
   PSTRESS=    0.0 pullay stress

  Mass of Ions in am
   POMASS =   1.00 28.09
  Ionic Valenz
   ZVAL   =   1.00  4.00
  Atomic Wigner-Seitz radii
   RWIGS  =  -1.00 -1.00
  virtual crystal weights 
   VCA    =   1.00  1.00
   NELECT =     220.0000    total number of electrons
   NUPDOWN=      -1.0000    fix difference up-down

 DOS related values:
   EMIN   =  10.00;   EMAX   =-10.00  energy-range for DOS
   EFERMI =   0.00;   METHOD = LEGACY      
   ISMEAR =     0;   SIGMA  =   0.10  broadening in eV -4-tet -1-fermi 0-gaus
   EFERMI_NEDOS =   21; number of points for ismear=-14 and -15

 Electronic relaxation 2 (details)
   IALGO  =     38    algorithm
   LDIAG  =      F    sub-space diagonalisation (order eigenvalues)
   LSUBROT=      F    optimize rotation matrix (better conditioning)
   TURBO    =      0    0=normal 1=particle mesh
   IRESTART =      0    0=no restart 2=restart with 2 vectors
   NREBOOT  =      0    no. of reboots
   NMIN     =      0    reboot dimension
   EREF     =   0.00    reference energy to select bands
   IMIX   =      4    mixing-type and parameters
     AMIX     =   0.40;   BMIX     =  1.00
     AMIX_MAG =   1.60;   BMIX_MAG =  1.00
     AMIN     =   0.10
     WC   =   100.;   INIMIX=   1;  MIXPRE=   1;  MAXMIX= -45

 Intra band minimization:
   WEIMIN = 0.0000     energy-eigenvalue tresh-hold
   EBREAK =  0.17E-08  absolut break condition
   DEPER  =   0.30     relativ break condition  

   TIME   =   0.40     timestep for ELM

  volume/ion in A,a.u.               =      27.24       183.82
  Fermi-wavevector in a.u.,A,eV,Ry     =   0.848548  1.603524  9.796663  0.720034
  Thomas-Fermi vector in A             =   1.964229

 Write flags
   LWAVE        =      F    write WAVECAR
   LDOWNSAMPLE  =      F    k-point downsampling of WAVECAR
   LCHARG       =      F    write CHGCAR
   LVTOT        =      F    write LOCPOT, total local potential
   LVHAR        =      F    write LOCPOT, Hartree potential only
   WRT_POTENTIAL= false  ! write potential to hdf5 file
   LELF         =      F    write electronic localiz. function (ELF)
   LORBIT       =     11    0 simple, 1 ext, 2 COOP (PROOUT), +10 PAW based schemes


 Python interface
   PLUGINS active      =      F    recompile with -DPLUGINS to activate

 Dipole corrections
   LMONO      =      F    monopole corrections only (constant potential shift)
   LDIPOL     =      F    correct potential (dipole corrections)
   IDIPOL     =      0    1-x, 2-y, 3-z, 4-all directions 
   EPSILON    =  1.0000000 bulk dielectric constant
   LVACPOTAV  =      F  vacuum potentials using an averaging scheme for the charge density
   VACPOTFLAT =  0.1000000 required flatness to determine vacuum potential

Coulomb truncation method
  LTRUNCATE          =      F  Coulomb kernel truncation to be used
  IDIMENSIONALITY    =      3  Dimensionality of cutoff (0 molecules / 2 surfaces)
  ISURFACE           =     -1  Direction of surface normal
  LCOARSEN           =      F  Coarsen the charge grid before padding, preferred


 Exchange correlation treatment:
   METAGGA = SCAN    functional components
   XC_C    = 1    coefficients multiplying the functional components
   LIBXC   =     F    Libxc                    
   VOSKOWN =     0    Vosko Wilk Nusair interpolation
   LHFCALC =     F    Hartree Fock is set to
   LHFONE  =     F    Hartree Fock one center treatment
   AEXX    =    0.0000 exact exchange contribution

 Parameters of functionals:
   SCAN:
     P1 =  0.000000E+00
     P2 =  0.000000E+00
     P3 =  0.000000E+00

 Accuracy and mixing parameters for tau-dependent meta-GGA functionals:
   LMAXTAU = 6
   LMIXTAU = T

 Van der Waals corrections
   IVDW    =     0    specifies the selected vdW correction

 Linear response parameters
   LEPSILON=     F    determine dielectric tensor
   LRPA    =     F    only Hartree local field effects (RPA)
   LNABLA  =     F    use nabla operator in PAW spheres
   LVEL    =     F    velocity operator in full k-point grid
   CSHIFT  =0.1000    complex shift for real part using Kramers Kronig
   OMEGAMAX=  -1.0    maximum frequency
   DEG_THRESHOLD= 0.2000000E-02 threshold for treating states as degnerate
   RTIME   =   -0.100 relaxation time in fs
  (WPLASMAI=    0.000 imaginary part of plasma frequency in eV, 0.658/RTIME)
   DFIELD  = 0.0000000 0.0000000 0.0000000 field for delta impulse in time

  Optional k-point grid parameters
   LKPOINTS_OPT  =     F    use optional k-point grid
   KPOINTS_OPT_MODE=     1    mode for optional k-point grid

 Orbital magnetization related:
   ORBITALMAG=     F  switch on orbital magnetization
   LCHIMAG   =     F  perturbation theory with respect to B field
   DQ        =  0.001000  dq finite difference perturbation B field
   LLRAUG    =     F  two centre corrections for induced B field
   LBONE     =     F  B-component reconstruction in AE one-centre
   LVGVCALC  =     T  calculate vGv susceptibility
   LVGVAPPL  =     F  apply vGv susceptibility instead of pGv for G=0

 Random number generation:
   RANDOM_GENERATOR = DEFAULT
   PCG_SEED         = not used


--------------------------------------------------------------------------------------------------------


 Static calculation
 charge density and potential will be updated during run
 non-spin polarized calculation
 Variant of blocked Davidson
 perform Loewdin sub-space diagonalisation
    ordering is kept fixed
    before iterative eigenvector-optimisation
 modified Broyden-mixing scheme, WC =      100.0
 initial mixing is a Kerker type mixing with AMIX =  0.4000 and BMIX =      1.0000
 Hartree-type preconditioning will be used
 using additional bands           34
 reciprocal scheme for non local part
 use partial core corrections
 calculate Harris-corrections to forces   (improved forces if not selfconsistent)
 use gradient corrections 
 use of overlap-Matrix (Vanderbilt PP)
 Gauss-broadening in eV      SIGMA  =   0.10


--------------------------------------------------------------------------------------------------------


  energy-cutoff  :     1200.00
  volume of cell :     1579.86
      direct lattice vectors                 reciprocal lattice vectors
    14.529579173  0.000000000  0.000000000     0.068825118  0.000000000  0.000000000
     0.000000000 14.529579173  0.000000000     0.000000000  0.068825118  0.000000000
     0.000000000  0.000000000  7.483611532     0.000000000  0.000000000  0.133625322

  length of vectors
    14.529579173 14.529579173  7.483611532     0.068825118  0.068825118  0.133625322



 old parameters found on file WAVECAR:
  energy-cutoff  :     1200.00
  volume of cell :     1579.86
      direct lattice vectors                 reciprocal lattice vectors
    14.529579173  0.000000000  0.000000000     0.068825118  0.000000000  0.000000000
     0.000000000 14.529579173  0.000000000     0.000000000  0.068825118  0.000000000
     0.000000000  0.000000000  7.483611532     0.000000000  0.000000000  0.133625322

  length of vectors


 k-points in units of 2pi/SCALE and weight: read from INCAR                         
   0.00000000  0.00000000  0.00000000       0.062
   0.03441256  0.00000000  0.00000000       0.062
   0.00000000  0.03441256  0.00000000       0.062
   0.03441256  0.03441256  0.00000000       0.062
   0.00000000  0.00000000  0.03340633       0.125
   0.03441256  0.00000000  0.03340633       0.125
   0.00000000  0.03441256  0.03340633       0.125
   0.03441256  0.03441256  0.03340633       0.125
   0.00000000  0.00000000  0.06681266       0.062
   0.03441256  0.00000000  0.06681266       0.062
   0.00000000  0.03441256  0.06681266       0.062
   0.03441256  0.03441256  0.06681266       0.062

 k-points in reciprocal lattice and weights: read from INCAR                         
   0.00000000  0.00000000  0.00000000       0.062
   0.50000000  0.00000000  0.00000000       0.062
   0.00000000  0.50000000  0.00000000       0.062
   0.50000000  0.50000000  0.00000000       0.062
   0.00000000  0.00000000  0.25000000       0.125
   0.50000000  0.00000000  0.25000000       0.125
   0.00000000  0.50000000  0.25000000       0.125
   0.50000000  0.50000000  0.25000000       0.125
   0.00000000  0.00000000  0.50000000       0.062
   0.50000000  0.00000000  0.50000000       0.062
   0.00000000  0.50000000  0.50000000       0.062
   0.50000000  0.50000000  0.50000000       0.062

 position of ions in fractional coordinates (direct lattice) 
   0.26058841  0.65445873  0.31712496
   0.35542461  0.03710121  0.45224288
   0.93558801  0.94523729  0.19516780
   0.23464341  0.14036057  0.53766019
   0.83190297  0.32297425  0.52720535
   0.64936017  0.92630350  0.66262659
   0.74956059  0.15344491  0.20429441
   0.90164346  0.62926392  0.28151247
   0.70163766  0.53039114  0.51784623
   0.59528427  0.10758054  0.26012708
   0.31527754  0.34717867  0.06798121
   0.82621801  0.39186751  0.21892772
   0.95370966  0.48141656  0.15342325
   0.79502647  0.69391549  0.08264887
   0.28649144  0.49979906  0.96695024
   0.02396277  0.42488911  0.90046497
   0.07281491  0.26771250  0.00670615
   0.52042526  0.17929907  0.50171364
   0.72184472  0.31160159  0.77606380
   0.93843048  0.19003579  0.52827702
   0.51547123  0.13812926  0.98779045
   0.46320956  0.30585538  0.01460338
   0.28741989  0.56154827  0.26888087
   0.06011661  0.25628960  0.35918219
   0.63260194  0.17241656  0.75408377
   0.52163520  0.41228517  0.24199011
   0.65309256  0.60380827  0.03777601
   0.93862319  0.44193090  0.63139434
   0.54379276  0.86182813  0.86688091
   0.44859179  0.55430167  0.20120499
   0.84751250  0.70758415  0.77186796
   0.19466909  0.23303221  0.53581883
   0.03748897  0.41650071  0.39625654
   0.83235721  0.07782056  0.43931329
   0.58424817  0.83527540  0.19312868
   0.42524081  0.99885894  0.87578838
   0.29503745  0.33605309  0.38680255
   0.48979464  0.41692880  0.76628911
   0.54780527  0.68712658  0.82637641
   0.55640015  0.67995225  0.26636872
   0.21009418  0.28936833  0.85182936
   0.75223789  0.83049893  0.26141790
   0.81985169  0.26771732  0.03025865
   0.74622946  0.79103461  0.57073647
   0.75154964  0.05543079  0.71936524
   0.68605772  0.46552897  0.22356051
   0.63041055  0.66439915  0.54993234
   0.43967550  0.03857875  0.57304685
   0.19600430  0.46640442  0.45323838
   0.94600813  0.20443813  0.85286495
   0.86101599  0.57632364  0.59114373
   0.64468281  0.45454930  0.79710311
   0.84091217  0.97382036  0.20776600
   0.54853344  0.96333141  0.38792366
   0.43250874  0.55575526  0.87101394
   0.45839387  0.34041454  0.48124492
   0.84663154  0.08397215  0.97276295
   0.17819924  0.45077493  0.77036468

 position of ions in cartesian coordinates  (Angst):
   3.78624000  9.50901000  2.37324000
   5.16417000  0.53906500  3.38441000
  13.59370000 13.73390000  1.46056000
   3.40927000  2.03938000  4.02364000
  12.08720000  4.69268000  3.94540000
   9.43493000 13.45880000  4.95884000
  10.89080000  2.22949000  1.52886000
  13.10050000  9.14294000  2.10673000
  10.19450000  7.70636000  3.87536000
   8.64923000  1.56310000  1.94669000
   4.58085000  5.04436000  0.50874500
  12.00460000  5.69367000  1.63837000
  13.85700000  6.99478000  1.14816000
  11.55140000 10.08230000  0.61851200
   4.16260000  7.26187000  7.23628000
   0.34816900  6.17346000  6.73873000
   1.05797000  3.88975000  0.05018620
   7.56156000  2.60514000  3.75463000
  10.48810000  4.52744000  5.80776000
  13.63500000  2.76114000  3.95342000
   7.48958000  2.00696000  7.39224000
   6.73024000  4.44395000  0.10928600
   4.17609000  8.15906000  2.01220000
   0.87346900  3.72378000  2.68798000
   9.19144000  2.50514000  5.64327000
   7.57914000  5.99033000  1.81096000
   9.48916000  8.77308000  0.28270100
  13.63780000  6.42107000  4.72511000
   7.90108000 12.52200000  6.48740000
   6.51785000  8.05377000  1.50574000
  12.31400000 10.28090000  5.77636000
   2.82846000  3.38586000  4.00986000
   0.54469900  6.05158000  2.96543000
  12.09380000  1.13070000  3.28765000
   8.48888000 12.13620000  1.44530000
   6.17857000 14.51300000  6.55406000
   4.28677000  4.88271000  2.89468000
   7.11651000  6.05780000  5.73461000
   7.95938000  9.98366000  6.18428000
   8.08426000  9.87942000  1.99340000
   3.05258000  4.20440000  6.37476000
  10.92970000 12.06680000  1.95635000
  11.91210000  3.88982000  0.22644400
  10.84240000 11.49340000  4.27117000
  10.91970000  0.80538600  5.38345000
   9.96813000  6.76394000  1.67304000
   9.15960000  9.65344000  4.11548000
   6.38830000  0.56053300  4.28846000
   2.84786000  6.77666000  3.39186000
  13.74510000  2.97040000  6.38251000
  12.51020000  8.37374000  4.42389000
   9.36697000  6.60441000  5.96521000
  12.21810000 14.14920000  1.55484000
   7.96996000 13.99680000  2.90307000
   6.28417000  8.07489000  6.51833000
   6.66027000  4.94608000  3.60145000
  12.30120000  1.22008000  7.27978000
   2.58916000  6.54957000  5.76511000



--------------------------------------------------------------------------------------------------------


 k-point     1 :   0.0000 0.0000 0.0000  plane waves:  148971
 k-point     2 :   0.5000 0.0000 0.0000  plane waves:  149014
 k-point     3 :   0.0000 0.5000 0.0000  plane waves:  149014
 k-point     4 :   0.5000 0.5000 0.0000  plane waves:  149164
 k-point     5 :   0.0000 0.0000 0.2500  plane waves:  149034
 k-point     6 :   0.5000 0.0000 0.2500  plane waves:  149114
 k-point     7 :   0.0000 0.5000 0.2500  plane waves:  149114
 k-point     8 :   0.5000 0.5000 0.2500  plane waves:  149032
 k-point     9 :   0.0000 0.0000 0.5000  plane waves:  149074
 k-point    10 :   0.5000 0.0000 0.5000  plane waves:  149148
 k-point    11 :   0.0000 0.5000 0.5000  plane waves:  149148
 k-point    12 :   0.5000 0.5000 0.5000  plane waves:  149208

 maximum and minimum number of plane-waves per node :      9374     9250

 maximum number of plane-waves:    149208
 maximum index in each direction: 
   IXMAX=   41   IYMAX=   41   IZMAX=   21
   IXMIN=  -41   IYMIN=  -41   IZMIN=  -21


 parallel 3D FFT for wavefunctions:
    minimum data exchange during FFTs selected (reduces bandwidth)
 parallel 3D FFT for charge:
    minimum data exchange during FFTs selected (reduces bandwidth)


 total amount of memory used by VASP MPI-rank0   140042. kBytes
=======================================================================

   base                                    :      30000. kBytes
   nonl-proj                               :      23082. kBytes
   fftplans                                :      30750. kBytes
   grid                                    :      23712. kBytes
   one-center                              :         12. kBytes
   wavefun                                 :      32486. kBytes

     INWAV:  cpu time      5.7750: real time      5.7770
 Broyden mixing: mesh for mixing (old mesh)
   NGX = 83   NGY = 83   NGZ = 43
  (NGX  =336   NGY  =336   NGZ  =180)
  gives a total of 296227 points

 initial charge density was supplied:
 number of electron     219.9999999 magnetization 
 keeping initial charge density in first step


--------------------------------------------------------------------------------------------------------


 Maximum index for augmentation-charges        10517 (set IRDMAX)


--------------------------------------------------------------------------------------------------------


 First call to EWALD:  gamma=   0.152
 Maximum number of real-space cells   2x   2x   4
 Maximum number of reciprocal cells   3x   3x   2

    FEWALD:  cpu time      0.0090: real time      0.0091


--------------------------------------- Ionic step        1  -------------------------------------------




--------------------------------------- Iteration      1(   1)  ---------------------------------------


    POTLOK:  cpu time      0.5433: real time      0.5436
    SETDIJ:  cpu time      0.9299: real time      0.9308
    EDDIAG:  cpu time     11.9685: real time     11.9777
     EDDAV:  cpu time     54.0191: real time     54.0628
       DOS:  cpu time      0.0094: real time      0.0096
    CHARGE:  cpu time      4.5057: real time      4.5092
    MIXING:  cpu time      0.0192: real time      0.0196
    --------------------------------------------
      LOOP:  cpu time     71.9950: real time     72.0533

 eigenvalue-minimisations  :  3456
 total energy-change (2. order) :-0.5680446E+03  (-0.6349681E+00)
 number of electron     219.9999999 magnetization 
 augmentation part      -12.0163729 magnetization 

 Broyden mixing:
  rms(total) = 0.89729E+00    rms(broyden)= 0.43264E+02
  rms(prec ) = 0.10002E+01
  weight for this iteration     100.00
  WARNING: grid for Broyden might be to small

 Free energy of the ion-electron system (eV)
  ---------------------------------------------------
  alpha Z        PSCENC =        64.64093698
  Ewald energy   TEWEN  =     -1710.73755711
  -Hartree energ DENC   =     -4223.10840125
  -exchange      EXHF   =         0.00000000
  -V(xc)+E(xc)   XCENC  =      -256.76815311
  PAW double counting   =     18703.08061333   -18164.11617716
  entropy T*S    EENTRO =        -0.07977779
  eigenvalues    EBANDS =      -596.51865048
  atomic energy  EATOM  =      5615.56258027
  Solvation  Ediel_sol  =         0.00000000
  ---------------------------------------------------
  free energy    TOTEN  =      -568.04458631 eV

  energy without entropy =     -567.96480852  energy(sigma->0) =     -568.00469741


--------------------------------------------------------------------------------------------------------




--------------------------------------- Iteration      1(   2)  ---------------------------------------


    POTLOK:  cpu time      0.5279: real time      0.5451
    SETDIJ:  cpu time      0.9250: real time      0.9261
    EDDIAG:  cpu time     12.0649: real time     12.0743
     EDDAV:  cpu time     54.0336: real time     54.0787
       DOS:  cpu time      0.0038: real time      0.0038
    CHARGE:  cpu time      4.3088: real time      4.3124
    MIXING:  cpu time      0.0122: real time      0.0124
    --------------------------------------------
      LOOP:  cpu time     71.8761: real time     71.9527

 eigenvalue-minimisations  :  3472
 total energy-change (2. order) : 0.3943566E+02  (-0.5698867E+00)
 number of electron     219.9999999 magnetization 
 augmentation part      -11.9670157 magnetization 

 Broyden mixing:
  rms(total) = 0.60439E+00    rms(broyden)= 0.24901E+02
  rms(prec ) = 0.65622E+00
  weight for this iteration     100.00
  WARNING: grid for Broyden might be to small

 eigenvalues of (default mixing * dielectric matrix)
  average eigenvalue GAMMA=   0.6347
  0.6347

 Free energy of the ion-electron system (eV)
  ---------------------------------------------------
  alpha Z        PSCENC =        64.64093698
  Ewald energy   TEWEN  =     -1710.73755711
  -Hartree energ DENC   =     -4216.54240609
  -exchange      EXHF   =         0.00000000
  -V(xc)+E(xc)   XCENC  =      -250.57465666
  PAW double counting   =     22471.62066636   -21932.51466531
  entropy T*S    EENTRO =        -0.07478081
  eigenvalues    EBANDS =      -569.98904365
  atomic energy  EATOM  =      5615.56258027
  Solvation  Ediel_sol  =         0.00000000
  ---------------------------------------------------
  free energy    TOTEN  =      -528.60892602 eV

  energy without entropy =     -528.53414521  energy(sigma->0) =     -528.57153561


--------------------------------------------------------------------------------------------------------




--------------------------------------- Iteration      1(   3)  ---------------------------------------


    POTLOK:  cpu time      0.5283: real time      0.5468
    SETDIJ:  cpu time      0.9258: real time      0.9268
    EDDIAG:  cpu time     12.0799: real time     12.0887
     EDDAV:  cpu time     53.9325: real time     53.9771
       DOS:  cpu time      0.0031: real time      0.0031
    CHARGE:  cpu time      4.3532: real time      4.3570
    MIXING:  cpu time      0.0104: real time      0.0104
    --------------------------------------------
      LOOP:  cpu time     71.8334: real time     71.9100

 eigenvalue-minimisations  :  3456
 total energy-change (2. order) :-0.2032971E+01  (-0.4772551E+00)
 number of electron     219.9999999 magnetization 
 augmentation part      -11.9255557 magnetization 

 Broyden mixing:
  rms(total) = 0.38140E+00    rms(broyden)= 0.14451E+02
  rms(prec ) = 0.41114E+00
  weight for this iteration     100.00
  WARNING: grid for Broyden might be to small

 eigenvalues of (default mixing * dielectric matrix)
  average eigenvalue GAMMA=   0.7219
  0.8179  0.6260

 Free energy of the ion-electron system (eV)
  ---------------------------------------------------
  alpha Z        PSCENC =        64.64093698
  Ewald energy   TEWEN  =     -1710.73755711
  -Hartree energ DENC   =     -4217.83654595
  -exchange      EXHF   =         0.00000000
  -V(xc)+E(xc)   XCENC  =      -253.76262712
  PAW double counting   =     25263.51483320   -24724.45976011
  entropy T*S    EENTRO =        -0.08271218
  eigenvalues    EBANDS =      -567.48104478
  atomic energy  EATOM  =      5615.56258027
  Solvation  Ediel_sol  =         0.00000000
  ---------------------------------------------------
  free energy    TOTEN  =      -530.64189680 eV

  energy without entropy =     -530.55918462  energy(sigma->0) =     -530.60054071


--------------------------------------------------------------------------------------------------------




--------------------------------------- Iteration      1(   4)  ---------------------------------------


    POTLOK:  cpu time      0.5303: real time      0.5477
    SETDIJ:  cpu time      0.9255: real time      0.9266
    EDDIAG:  cpu time     12.0844: real time     12.0929
     EDDAV:  cpu time     55.7860: real time     55.8310
       DOS:  cpu time      0.0031: real time      0.0031
    CHARGE:  cpu time      4.2950: real time      4.2983
    MIXING:  cpu time      0.0106: real time      0.0106
    --------------------------------------------
      LOOP:  cpu time     73.6350: real time     73.7102

 eigenvalue-minimisations  :  3672
 total energy-change (2. order) :-0.2285985E+00  (-0.5364201E-01)
 number of electron     219.9999999 magnetization 
 augmentation part      -11.9179457 magnetization 

 Broyden mixing:
  rms(total) = 0.31114E-01    rms(broyden)= 0.14815E+01
  rms(prec ) = 0.45938E-01
  weight for this iteration     100.00
  WARNING: grid for Broyden might be to small

 eigenvalues of (default mixing * dielectric matrix)
  average eigenvalue GAMMA=   0.8953
  1.3540  0.7060  0.6258

 Free energy of the ion-electron system (eV)
  ---------------------------------------------------
  alpha Z        PSCENC =        64.64093698
  Ewald energy   TEWEN  =     -1710.73755711
  -Hartree energ DENC   =     -4221.29256697
  -exchange      EXHF   =         0.00000000
  -V(xc)+E(xc)   XCENC  =      -254.04552971
  PAW double counting   =     30218.27657830   -29679.26751581
  entropy T*S    EENTRO =        -0.07638320
  eigenvalues    EBANDS =      -563.93103802
  atomic energy  EATOM  =      5615.56258027
  Solvation  Ediel_sol  =         0.00000000
  ---------------------------------------------------
  free energy    TOTEN  =      -530.87049526 eV

  energy without entropy =     -530.79411206  energy(sigma->0) =     -530.83230366


--------------------------------------------------------------------------------------------------------




--------------------------------------- Iteration      1(   5)  ---------------------------------------


    POTLOK:  cpu time      0.5472: real time      0.5481
    SETDIJ:  cpu time      0.9259: real time      0.9265
    EDDIAG:  cpu time     12.0951: real time     12.1048
     EDDAV:  cpu time     61.9371: real time     61.9933
       DOS:  cpu time      0.0049: real time      0.0049
    CHARGE:  cpu time      4.3337: real time      4.3373
    MIXING:  cpu time      0.0107: real time      0.0107
    --------------------------------------------
      LOOP:  cpu time     79.8547: real time     79.9256

 eigenvalue-minimisations  :  4368
 total energy-change (2. order) :-0.2335362E-01  (-0.4082813E-02)
 number of electron     219.9999999 magnetization 
 augmentation part      -11.9187972 magnetization 

 Broyden mixing:
  rms(total) = 0.24936E-01    rms(broyden)= 0.53044E+00
  rms(prec ) = 0.37948E-01
  weight for this iteration     100.00
  WARNING: grid for Broyden might be to small

 eigenvalues of (default mixing * dielectric matrix)
  average eigenvalue GAMMA=   1.0721
  2.1392  0.9145  0.6174  0.6174

 Free energy of the ion-electron system (eV)
  ---------------------------------------------------
  alpha Z        PSCENC =        64.64093698
  Ewald energy   TEWEN  =     -1710.73755711
  -Hartree energ DENC   =     -4221.32964673
  -exchange      EXHF   =         0.00000000
  -V(xc)+E(xc)   XCENC  =      -254.76932361
  PAW double counting   =     30048.80732919   -29509.78342825
  entropy T*S    EENTRO =        -0.08364817
  eigenvalues    EBANDS =      -563.20109144
  atomic energy  EATOM  =      5615.56258027
  Solvation  Ediel_sol  =         0.00000000
  ---------------------------------------------------
  free energy    TOTEN  =      -530.89384888 eV

  energy without entropy =     -530.81020071  energy(sigma->0) =     -530.85202479


--------------------------------------------------------------------------------------------------------




--------------------------------------- Iteration      1(   6)  ---------------------------------------


    POTLOK:  cpu time      0.5274: real time      0.5463
    SETDIJ:  cpu time      0.9258: real time      0.9264
    EDDIAG:  cpu time     12.0997: real time     12.1104
     EDDAV:  cpu time     58.2616: real time     58.3061
       DOS:  cpu time      0.0035: real time      0.0035
    CHARGE:  cpu time      4.2866: real time      4.2894
    MIXING:  cpu time      0.0114: real time      0.0114
    --------------------------------------------
      LOOP:  cpu time     76.1160: real time     76.1935

 eigenvalue-minimisations  :  3952
 total energy-change (2. order) :-0.2863461E-02  (-0.8788284E-03)
 number of electron     219.9999999 magnetization 
 augmentation part      -11.9190034 magnetization 

 Broyden mixing:
  rms(total) = 0.17101E-01    rms(broyden)= 0.19431E+00
  rms(prec ) = 0.20908E-01
  weight for this iteration     100.00
  WARNING: grid for Broyden might be to small

 eigenvalues of (default mixing * dielectric matrix)
  average eigenvalue GAMMA=   1.0683
  2.4970  1.0296  0.6752  0.6211  0.5186

 Free energy of the ion-electron system (eV)
  ---------------------------------------------------
  alpha Z        PSCENC =        64.64093698
  Ewald energy   TEWEN  =     -1710.73755711
  -Hartree energ DENC   =     -4221.49879574
  -exchange      EXHF   =         0.00000000
  -V(xc)+E(xc)   XCENC  =      -254.97678299
  PAW double counting   =     29978.42249342   -29439.39142370
  entropy T*S    EENTRO =        -0.07881749
  eigenvalues    EBANDS =      -562.83934598
  atomic energy  EATOM  =      5615.56258027
  Solvation  Ediel_sol  =         0.00000000
  ---------------------------------------------------
  free energy    TOTEN  =      -530.89671234 eV

  energy without entropy =     -530.81789485  energy(sigma->0) =     -530.85730359


--------------------------------------------------------------------------------------------------------




--------------------------------------- Iteration      1(   7)  ---------------------------------------


    POTLOK:  cpu time      0.5312: real time      0.5496
    SETDIJ:  cpu time      0.9245: real time      0.9250
    EDDIAG:  cpu time     12.0860: real time     12.0954
     EDDAV:  cpu time     56.0245: real time     56.0677
       DOS:  cpu time      0.0036: real time      0.0036
    CHARGE:  cpu time      4.3243: real time      4.3272
    MIXING:  cpu time      0.0110: real time      0.0110
    --------------------------------------------
      LOOP:  cpu time     73.9052: real time     73.9795

 eigenvalue-minimisations  :  3664
 total energy-change (2. order) :-0.7393725E-03  (-0.3852718E-03)
 number of electron     219.9999999 magnetization 
 augmentation part      -11.9180250 magnetization 

 Broyden mixing:
  rms(total) = 0.98431E-02    rms(broyden)= 0.14126E+00
  rms(prec ) = 0.12755E-01
  weight for this iteration     100.00
  WARNING: grid for Broyden might be to small

 eigenvalues of (default mixing * dielectric matrix)
  average eigenvalue GAMMA=   1.0825
  2.5909  1.2883  0.8740  0.6451  0.6296  0.4673

 Free energy of the ion-electron system (eV)
  ---------------------------------------------------
  alpha Z        PSCENC =        64.64093698
  Ewald energy   TEWEN  =     -1710.73755711
  -Hartree energ DENC   =     -4221.72915791
  -exchange      EXHF   =         0.00000000
  -V(xc)+E(xc)   XCENC  =      -254.95394098
  PAW double counting   =     29970.22676330   -29431.18815140
  entropy T*S    EENTRO =        -0.07953153
  eigenvalues    EBANDS =      -562.63939334
  atomic energy  EATOM  =      5615.56258027
  Solvation  Ediel_sol  =         0.00000000
  ---------------------------------------------------
  free energy    TOTEN  =      -530.89745171 eV

  energy without entropy =     -530.81792018  energy(sigma->0) =     -530.85768594


--------------------------------------------------------------------------------------------------------




--------------------------------------- Iteration      1(   8)  ---------------------------------------


    POTLOK:  cpu time      0.5279: real time      0.5472
    SETDIJ:  cpu time      0.9247: real time      0.9251
    EDDIAG:  cpu time     12.0901: real time     12.0988
     EDDAV:  cpu time     56.0080: real time     56.0539
       DOS:  cpu time      0.0037: real time      0.0037
    CHARGE:  cpu time      4.3212: real time      4.3242
    MIXING:  cpu time      0.0113: real time      0.0114
    --------------------------------------------
      LOOP:  cpu time     73.8870: real time     73.9643

 eigenvalue-minimisations  :  3672
 total energy-change (2. order) :-0.3603060E-03  (-0.1655648E-03)
 number of electron     219.9999999 magnetization 
 augmentation part      -11.9173024 magnetization 

 Broyden mixing:
  rms(total) = 0.27625E-02    rms(broyden)= 0.76128E-01
  rms(prec ) = 0.38023E-02
  weight for this iteration     100.00
  WARNING: grid for Broyden might be to small

 eigenvalues of (default mixing * dielectric matrix)
  average eigenvalue GAMMA=   1.1014
  2.6735  1.5567  1.0200  0.7249  0.6440  0.6166  0.4738

 Free energy of the ion-electron system (eV)
  ---------------------------------------------------
  alpha Z        PSCENC =        64.64093698
  Ewald energy   TEWEN  =     -1710.73755711
  -Hartree energ DENC   =     -4221.88692350
  -exchange      EXHF   =         0.00000000
  -V(xc)+E(xc)   XCENC  =      -254.89852631
  PAW double counting   =     29977.55732265   -29438.51198227
  entropy T*S    EENTRO =        -0.07996188
  eigenvalues    EBANDS =      -562.54370085
  atomic energy  EATOM  =      5615.56258027
  Solvation  Ediel_sol  =         0.00000000
  ---------------------------------------------------
  free energy    TOTEN  =      -530.89781202 eV

  energy without entropy =     -530.81785013  energy(sigma->0) =     -530.85783107


--------------------------------------------------------------------------------------------------------




--------------------------------------- Iteration      1(   9)  ---------------------------------------


    POTLOK:  cpu time      0.5501: real time      0.5699
    SETDIJ:  cpu time      0.9245: real time      0.9251
    EDDIAG:  cpu time     12.0776: real time     12.0867
     EDDAV:  cpu time     56.7006: real time     56.7493
       DOS:  cpu time      0.0032: real time      0.0032
    CHARGE:  cpu time      4.3136: real time      4.3161
    MIXING:  cpu time      0.0113: real time      0.0113
    --------------------------------------------
      LOOP:  cpu time     74.5810: real time     74.6619

 eigenvalue-minimisations  :  3752
 total energy-change (2. order) :-0.1224720E-04  (-0.3552579E-04)
 number of electron     219.9999999 magnetization 
 augmentation part      -11.9174243 magnetization 

 Broyden mixing:
  rms(total) = 0.15032E-02    rms(broyden)= 0.44325E-01
  rms(prec ) = 0.21630E-02
  weight for this iteration     100.00
  WARNING: grid for Broyden might be to small

 eigenvalues of (default mixing * dielectric matrix)
  average eigenvalue GAMMA=   1.1450
  2.9014  2.0483  1.1370  0.8455  0.6436  0.6372  0.4835  0.4630

 Free energy of the ion-electron system (eV)
  ---------------------------------------------------
  alpha Z        PSCENC =        64.64093698
  Ewald energy   TEWEN  =     -1710.73755711
  -Hartree energ DENC   =     -4221.88202086
  -exchange      EXHF   =         0.00000000
  -V(xc)+E(xc)   XCENC  =      -254.91894710
  PAW double counting   =     29992.08790681   -29453.04167589
  entropy T*S    EENTRO =        -0.07984705
  eigenvalues    EBANDS =      -562.52920032
  atomic energy  EATOM  =      5615.56258027
  Solvation  Ediel_sol  =         0.00000000
  ---------------------------------------------------
  free energy    TOTEN  =      -530.89782426 eV

  energy without entropy =     -530.81797722  energy(sigma->0) =     -530.85790074


--------------------------------------------------------------------------------------------------------




--------------------------------------- Iteration      1(  10)  ---------------------------------------


    POTLOK:  cpu time      0.5327: real time      0.5495
    SETDIJ:  cpu time      0.9254: real time      0.9258
    EDDIAG:  cpu time     12.0968: real time     12.1055
     EDDAV:  cpu time     57.0679: real time     57.1172
       DOS:  cpu time      0.0031: real time      0.0031
    CHARGE:  cpu time      4.3673: real time      4.3704
    MIXING:  cpu time      0.0115: real time      0.0115
    --------------------------------------------
      LOOP:  cpu time     75.0046: real time     75.0828

 eigenvalue-minimisations  :  3808
 total energy-change (2. order) :-0.2110995E-04  (-0.1175522E-04)
 number of electron     219.9999999 magnetization 
 augmentation part      -11.9174871 magnetization 

 Broyden mixing:
  rms(total) = 0.86293E-03    rms(broyden)= 0.10827E-01
  rms(prec ) = 0.11964E-02
  weight for this iteration     100.00
  WARNING: grid for Broyden might be to small

 eigenvalues of (default mixing * dielectric matrix)
  average eigenvalue GAMMA=   1.2119
  3.2923  2.4386  1.2667  0.9604  0.7450  0.4441  0.5011  0.6333  0.6254

 Free energy of the ion-electron system (eV)
  ---------------------------------------------------
  alpha Z        PSCENC =        64.64093698
  Ewald energy   TEWEN  =     -1710.73755711
  -Hartree energ DENC   =     -4221.81828832
  -exchange      EXHF   =         0.00000000
  -V(xc)+E(xc)   XCENC  =      -254.92857421
  PAW double counting   =     29994.90039240   -29455.85326350
  entropy T*S    EENTRO =        -0.07998676
  eigenvalues    EBANDS =      -562.58408512
  atomic energy  EATOM  =      5615.56258027
  Solvation  Ediel_sol  =         0.00000000
  ---------------------------------------------------
  free energy    TOTEN  =      -530.89784537 eV

  energy without entropy =     -530.81785862  energy(sigma->0) =     -530.85785199


--------------------------------------------------------------------------------------------------------




--------------------------------------- Iteration      1(  11)  ---------------------------------------


    POTLOK:  cpu time      0.5274: real time      0.5459
    SETDIJ:  cpu time      0.9264: real time      0.9267
    EDDIAG:  cpu time     12.0900: real time     12.0994
     EDDAV:  cpu time     55.7700: real time     55.8153
       DOS:  cpu time      0.0035: real time      0.0035
    CHARGE:  cpu time      4.4204: real time      4.4235
    MIXING:  cpu time      0.0115: real time      0.0115
    --------------------------------------------
      LOOP:  cpu time     73.7492: real time     73.8258

 eigenvalue-minimisations  :  3648
 total energy-change (2. order) :-0.5581391E-04  (-0.1264279E-04)
 number of electron     219.9999999 magnetization 
 augmentation part      -11.9174595 magnetization 

 Broyden mixing:
  rms(total) = 0.37018E-03    rms(broyden)= 0.10678E-01
  rms(prec ) = 0.63581E-03
  weight for this iteration     100.00
  WARNING: grid for Broyden might be to small

 eigenvalues of (default mixing * dielectric matrix)
  average eigenvalue GAMMA=   1.2449
  3.6275  2.5705  1.4531  1.0673  0.8559  0.4491  0.6816  0.5086  0.6302  0.6050

 Free energy of the ion-electron system (eV)
  ---------------------------------------------------
  alpha Z        PSCENC =        64.64093698
  Ewald energy   TEWEN  =     -1710.73755711
  -Hartree energ DENC   =     -4221.77350238
  -exchange      EXHF   =         0.00000000
  -V(xc)+E(xc)   XCENC  =      -254.92848882
  PAW double counting   =     29989.60296653   -29450.55483399
  entropy T*S    EENTRO =        -0.07995887
  eigenvalues    EBANDS =      -562.63004379
  atomic energy  EATOM  =      5615.56258027
  Solvation  Ediel_sol  =         0.00000000
  ---------------------------------------------------
  free energy    TOTEN  =      -530.89790119 eV

  energy without entropy =     -530.81794231  energy(sigma->0) =     -530.85792175


--------------------------------------------------------------------------------------------------------




--------------------------------------- Iteration      1(  12)  ---------------------------------------


    POTLOK:  cpu time      0.5296: real time      0.5445
    SETDIJ:  cpu time      0.9261: real time      0.9271
    EDDIAG:  cpu time     12.0706: real time     12.0806
     EDDAV:  cpu time     55.7463: real time     55.7929
       DOS:  cpu time      0.0051: real time      0.0051
    CHARGE:  cpu time      4.3808: real time      4.3855
    MIXING:  cpu time      0.0117: real time      0.0117
    --------------------------------------------
      LOOP:  cpu time     73.6702: real time     73.7474

 eigenvalue-minimisations  :  3648
 total energy-change (2. order) :-0.5793289E-04  (-0.9027943E-05)
 number of electron     219.9999999 magnetization 
 augmentation part      -11.9175164 magnetization 

 Broyden mixing:
  rms(total) = 0.22206E-03    rms(broyden)= 0.10140E-01
  rms(prec ) = 0.45449E-03
  weight for this iteration     100.00
  WARNING: grid for Broyden might be to small

 eigenvalues of (default mixing * dielectric matrix)
  average eigenvalue GAMMA=   1.2566
  3.7528  2.5868  1.6287  1.2017  1.0025  0.7923  0.4475  0.5105  0.6660  0.6299
  0.6044

 Free energy of the ion-electron system (eV)
  ---------------------------------------------------
  alpha Z        PSCENC =        64.64093698
  Ewald energy   TEWEN  =     -1710.73755711
  -Hartree energ DENC   =     -4221.72628742
  -exchange      EXHF   =         0.00000000
  -V(xc)+E(xc)   XCENC  =      -254.93574672
  PAW double counting   =     29990.59763493   -29451.54962466
  entropy T*S    EENTRO =        -0.07996428
  eigenvalues    EBANDS =      -562.66993112
  atomic energy  EATOM  =      5615.56258027
  Solvation  Ediel_sol  =         0.00000000
  ---------------------------------------------------
  free energy    TOTEN  =      -530.89795912 eV

  energy without entropy =     -530.81799484  energy(sigma->0) =     -530.85797698


--------------------------------------------------------------------------------------------------------




--------------------------------------- Iteration      1(  13)  ---------------------------------------


    POTLOK:  cpu time      0.5297: real time      0.5464
    SETDIJ:  cpu time      0.9250: real time      0.9262
    EDDIAG:  cpu time     12.0474: real time     12.0570
     EDDAV:  cpu time     55.5439: real time     55.5924
       DOS:  cpu time      0.0037: real time      0.0037
    CHARGE:  cpu time      4.4037: real time      4.4070
    MIXING:  cpu time      0.0120: real time      0.0120
    --------------------------------------------
      LOOP:  cpu time     73.4655: real time     73.5448

 eigenvalue-minimisations  :  3632
 total energy-change (2. order) :-0.6112292E-04  (-0.1009424E-04)
 number of electron     219.9999999 magnetization 
 augmentation part      -11.9175415 magnetization 

 Broyden mixing:
  rms(total) = 0.13112E-03    rms(broyden)= 0.61200E-02
  rms(prec ) = 0.30120E-03
  weight for this iteration     100.00
  WARNING: grid for Broyden might be to small

 eigenvalues of (default mixing * dielectric matrix)
  average eigenvalue GAMMA=   1.2789
  3.8721  2.5713  2.0386  1.3732  1.0770  0.8912  0.4481  0.7243  0.5166  0.6278
  0.6278  0.5790

 Free energy of the ion-electron system (eV)
  ---------------------------------------------------
  alpha Z        PSCENC =        64.64093698
  Ewald energy   TEWEN  =     -1710.73755711
  -Hartree energ DENC   =     -4221.68127021
  -exchange      EXHF   =         0.00000000
  -V(xc)+E(xc)   XCENC  =      -254.93964805
  PAW double counting   =     29990.70272924   -29451.65492038
  entropy T*S    EENTRO =        -0.07997761
  eigenvalues    EBANDS =      -562.71089337
  atomic energy  EATOM  =      5615.56258027
  Solvation  Ediel_sol  =         0.00000000
  ---------------------------------------------------
  free energy    TOTEN  =      -530.89802024 eV

  energy without entropy =     -530.81804263  energy(sigma->0) =     -530.85803144


--------------------------------------------------------------------------------------------------------




--------------------------------------- Iteration      1(  14)  ---------------------------------------


    POTLOK:  cpu time      0.5447: real time      0.5455
    SETDIJ:  cpu time      0.9270: real time      0.9274
    EDDIAG:  cpu time     12.0706: real time     12.0808
     EDDAV:  cpu time     55.9353: real time     55.9808
       DOS:  cpu time      0.0059: real time      0.0059
    CHARGE:  cpu time      4.4175: real time      4.4212
    MIXING:  cpu time      0.0119: real time      0.0119
    --------------------------------------------
      LOOP:  cpu time     73.9129: real time     73.9734

 eigenvalue-minimisations  :  3688
 total energy-change (2. order) :-0.7463355E-04  (-0.1046339E-04)
 number of electron     219.9999999 magnetization 
 augmentation part      -11.9175543 magnetization 

 Broyden mixing:
  rms(total) = 0.10510E-03    rms(broyden)= 0.42685E-02
  rms(prec ) = 0.19260E-03
  weight for this iteration     100.00
  WARNING: grid for Broyden might be to small

 eigenvalues of (default mixing * dielectric matrix)
  average eigenvalue GAMMA=   1.2893
  3.9239  2.5167  2.5167  1.4330  1.1520  0.9548  0.8059  0.4483  0.6841  0.5126
  0.6358  0.6204  0.5570

 Free energy of the ion-electron system (eV)
  ---------------------------------------------------
  alpha Z        PSCENC =        64.64093698
  Ewald energy   TEWEN  =     -1710.73755711
  -Hartree energ DENC   =     -4221.63708887
  -exchange      EXHF   =         0.00000000
  -V(xc)+E(xc)   XCENC  =      -254.94157352
  PAW double counting   =     29990.10955848   -29451.06188856
  entropy T*S    EENTRO =        -0.07998222
  eigenvalues    EBANDS =      -562.75308033
  atomic energy  EATOM  =      5615.56258027
  Solvation  Ediel_sol  =         0.00000000
  ---------------------------------------------------
  free energy    TOTEN  =      -530.89809488 eV

  energy without entropy =     -530.81811266  energy(sigma->0) =     -530.85810377


--------------------------------------------------------------------------------------------------------




--------------------------------------- Iteration      1(  15)  ---------------------------------------


    POTLOK:  cpu time      0.5277: real time      0.5441
    SETDIJ:  cpu time      0.9260: real time      0.9263
    EDDIAG:  cpu time     12.0609: real time     12.0699
     EDDAV:  cpu time     55.0548: real time     55.0994
       DOS:  cpu time      0.0042: real time      0.0042
    CHARGE:  cpu time      4.3324: real time      4.3352
    MIXING:  cpu time      0.0123: real time      0.0123
    --------------------------------------------
      LOOP:  cpu time     72.9182: real time     72.9915

 eigenvalue-minimisations  :  3568
 total energy-change (2. order) :-0.2633139E-04  (-0.4650367E-05)
 number of electron     219.9999999 magnetization 
 augmentation part      -11.9175530 magnetization 

 Broyden mixing:
  rms(total) = 0.68467E-04    rms(broyden)= 0.33817E-02
  rms(prec ) = 0.12171E-03
  weight for this iteration     100.00
  WARNING: grid for Broyden might be to small

 eigenvalues of (default mixing * dielectric matrix)
  average eigenvalue GAMMA=   1.2923
  3.9472  2.6327  2.6327  1.4780  1.2801  1.0126  0.9055  0.7622  0.4481  0.5105
  0.6692  0.6235  0.6235  0.5658

 Free energy of the ion-electron system (eV)
  ---------------------------------------------------
  alpha Z        PSCENC =        64.64093698
  Ewald energy   TEWEN  =     -1710.73755711
  -Hartree energ DENC   =     -4221.61521589
  -exchange      EXHF   =         0.00000000
  -V(xc)+E(xc)   XCENC  =      -254.94133308
  PAW double counting   =     29990.37741140   -29451.32982902
  entropy T*S    EENTRO =        -0.07998242
  eigenvalues    EBANDS =      -562.77513235
  atomic energy  EATOM  =      5615.56258027
  Solvation  Ediel_sol  =         0.00000000
  ---------------------------------------------------
  free energy    TOTEN  =      -530.89812121 eV

  energy without entropy =     -530.81813879  energy(sigma->0) =     -530.85813000


--------------------------------------------------------------------------------------------------------




--------------------------------------- Iteration      1(  16)  ---------------------------------------


    POTLOK:  cpu time      0.5445: real time      0.5452
    SETDIJ:  cpu time      0.9253: real time      0.9256
    EDDIAG:  cpu time     12.1133: real time     12.1225
     EDDAV:  cpu time     54.9915: real time     55.0374
       DOS:  cpu time      0.0032: real time      0.0032
    CHARGE:  cpu time      4.3738: real time      4.3769
    MIXING:  cpu time      0.0131: real time      0.0131
    --------------------------------------------
      LOOP:  cpu time     72.9648: real time     73.0240

 eigenvalue-minimisations  :  3568
 total energy-change (2. order) :-0.9611220E-05  (-0.2785826E-05)
 number of electron     219.9999999 magnetization 
 augmentation part      -11.9175557 magnetization 

 Broyden mixing:
  rms(total) = 0.35993E-04    rms(broyden)= 0.24585E-02
  rms(prec ) = 0.64686E-04
  weight for this iteration     100.00
  WARNING: grid for Broyden might be to small

 eigenvalues of (default mixing * dielectric matrix)
  average eigenvalue GAMMA=   1.2979
  3.9676  2.6895  2.6895  1.6802  1.3897  1.0935  0.9834  0.8520  0.4482  0.7285
  0.5105  0.6329  0.6329  0.6074  0.5632

 Free energy of the ion-electron system (eV)
  ---------------------------------------------------
  alpha Z        PSCENC =        64.64093698
  Ewald energy   TEWEN  =     -1710.73755711
  -Hartree energ DENC   =     -4221.59848596
  -exchange      EXHF   =         0.00000000
  -V(xc)+E(xc)   XCENC  =      -254.94144137
  PAW double counting   =     29990.62041752   -29451.57287842
  entropy T*S    EENTRO =        -0.07998240
  eigenvalues    EBANDS =      -562.79172033
  atomic energy  EATOM  =      5615.56258027
  Solvation  Ediel_sol  =         0.00000000
  ---------------------------------------------------
  free energy    TOTEN  =      -530.89813082 eV

  energy without entropy =     -530.81814842  energy(sigma->0) =     -530.85813962


--------------------------------------------------------------------------------------------------------




--------------------------------------- Iteration      1(  17)  ---------------------------------------


    POTLOK:  cpu time      0.5323: real time      0.5491
    SETDIJ:  cpu time      0.9259: real time      0.9263
    EDDIAG:  cpu time     12.0795: real time     12.0894
     EDDAV:  cpu time     54.5882: real time     54.6344
       DOS:  cpu time      0.0064: real time      0.0064
    CHARGE:  cpu time      4.4211: real time      4.4252
    MIXING:  cpu time      0.0127: real time      0.0127
    --------------------------------------------
      LOOP:  cpu time     72.5662: real time     72.6436

 eigenvalue-minimisations  :  3528
 total energy-change (2. order) :-0.2869830E-05  (-0.6065081E-06)
 number of electron     219.9999999 magnetization 
 augmentation part      -11.9175593 magnetization 

 Broyden mixing:
  rms(total) = 0.20207E-04    rms(broyden)= 0.95258E-03
  rms(prec ) = 0.36778E-04
  weight for this iteration     100.00
  WARNING: grid for Broyden might be to small

 eigenvalues of (default mixing * dielectric matrix)
  average eigenvalue GAMMA=   1.3143
  3.9914  2.7648  2.7648  1.9993  1.4383  1.2571  1.0387  0.8802  0.8265  0.4482
  0.6918  0.5107  0.6426  0.6235  0.5900  0.5612

 Free energy of the ion-electron system (eV)
  ---------------------------------------------------
  alpha Z        PSCENC =        64.64093698
  Ewald energy   TEWEN  =     -1710.73755711
  -Hartree energ DENC   =     -4221.59021032
  -exchange      EXHF   =         0.00000000
  -V(xc)+E(xc)   XCENC  =      -254.94158365
  PAW double counting   =     29990.46971681   -29451.42215635
  entropy T*S    EENTRO =        -0.07998828
  eigenvalues    EBANDS =      -562.79987205
  atomic energy  EATOM  =      5615.56258027
  Solvation  Ediel_sol  =         0.00000000
  ---------------------------------------------------
  free energy    TOTEN  =      -530.89813369 eV

  energy without entropy =     -530.81814541  energy(sigma->0) =     -530.85813955


--------------------------------------------------------------------------------------------------------




--------------------------------------- Iteration      1(  18)  ---------------------------------------


    POTLOK:  cpu time      0.5297: real time      0.5470
    SETDIJ:  cpu time      0.9255: real time      0.9265
    EDDIAG:  cpu time     12.0703: real time     12.0790
     EDDAV:  cpu time     48.4277: real time     48.4677
       DOS:  cpu time      0.0036: real time      0.0036
    --------------------------------------------
      LOOP:  cpu time     61.9576: real time     62.0409

 eigenvalue-minimisations  :  2816
 total energy-change (2. order) :-0.6893169E-06  (-0.1295074E-06)
 number of electron     219.9999999 magnetization 
 augmentation part      -11.9175593 magnetization 

 Free energy of the ion-electron system (eV)
  ---------------------------------------------------
  alpha Z        PSCENC =        64.64093698
  Ewald energy   TEWEN  =     -1710.73755711
  -Hartree energ DENC   =     -4221.58845855
  -exchange      EXHF   =         0.00000000
  -V(xc)+E(xc)   XCENC  =      -254.94162590
  PAW double counting   =     29990.42853653   -29451.38095371
  entropy T*S    EENTRO =        -0.07998838
  eigenvalues    EBANDS =      -562.80160452
  atomic energy  EATOM  =      5615.56258027
[...]
    STRESS:  cpu time     78.7023: real time     78.7567
    FORCOR:  cpu time      0.5415: real time      0.5421
    FORHAR:  cpu time      0.0823: real time      0.0823
    MIXING:  cpu time      0.0150: real time      0.0150
    OFIELD:  cpu time      0.0020: real time      0.0022

  FORCE on cell =-STRESS in cart. coord.  units (eV):
  Direction    XX          YY          ZZ          XY          YZ          ZX
  --------------------------------------------------------------------------------------
  Alpha Z    64.64094    64.64094    64.64094
  Ewald   -1923.19789 -1931.72610  2144.15548   154.47623    -4.52809   -88.86452
  Hartree   259.63676   189.88884  3772.06168   124.37739    -6.28560   -32.28600
  E(xc)    -659.90103  -660.36053  -660.82063     0.11484     0.15742     0.46695
  Local   -1000.41601  -922.26647 -8587.50797  -276.25997    12.84118   122.32130
  n-local  1995.52539  1998.92169  2005.86635    -3.96840     0.48920    -7.95102
  augment  -293.60945  -293.23290  -293.13865     0.83344    -0.12941     0.21703
  Kinetic  1536.34250  1518.31794  1499.43354    -9.31819     2.89011     8.91403
  Fock        0.00000     0.00000     0.00000     0.00000     0.00000     0.00000
  -------------------------------------------------------------------------------------
  Total     -20.97880   -35.81660   -55.30926    -9.74466     5.43482     2.81777
  in kB     -21.27522   -36.32266   -56.09073    -9.88235     5.51161     2.85758
  external pressure =      -37.90 kB  Pullay stress =        0.00 kB


 VOLUME and BASIS-vectors are now :
 -----------------------------------------------------------------------------
  energy-cutoff  :     1200.00
  volume of cell :     1579.86
      direct lattice vectors                 reciprocal lattice vectors
    14.529579173  0.000000000  0.000000000     0.068825118  0.000000000  0.000000000
     0.000000000 14.529579173  0.000000000     0.000000000  0.068825118  0.000000000
     0.000000000  0.000000000  7.483611532     0.000000000  0.000000000  0.133625322

  length of vectors
    14.529579173 14.529579173  7.483611532     0.068825118  0.068825118  0.133625322


 FORCES acting on ions
    electron-ion (+dipol)            ewald-force                    non-local-force                 convergence-correction
 -----------------------------------------------------------------------------------------------
   0.199E+02 -.517E+02 -.798E+01   -.209E+02 0.556E+02 0.866E+01   0.948E+00 -.306E+01 -.915E+00   0.331E-05 -.270E-04 -.570E-05
   0.432E+02 0.216E+02 0.149E+02   -.453E+02 -.217E+02 -.161E+02   0.229E+01 0.396E-01 0.179E+01   0.249E-04 0.942E-05 -.115E-04
   -.535E+02 0.208E+02 0.251E+01   0.578E+02 -.224E+02 -.256E+01   -.321E+01 0.874E+00 0.287E+00   -.262E-04 -.460E-05 -.875E-05
   0.204E+00 0.493E+02 0.105E+00   0.101E+01 -.527E+02 -.203E+00   -.139E+01 0.296E+01 -.569E-01   0.396E-04 0.772E-05 0.198E-05
   -.812E+01 0.202E+02 0.473E+01   0.989E+01 -.206E+02 -.314E+01   -.109E+01 0.577E+00 -.125E+01   0.274E-04 0.817E-05 0.140E-04
   0.917E+00 0.188E+02 -.119E+02   -.161E+01 -.198E+02 0.114E+02   0.141E+01 0.146E+00 -.366E+00   -.629E-04 0.101E-04 0.232E-04
   -.212E+01 0.326E+02 -.834E+01   0.262E+01 -.332E+02 0.933E+01   -.615E+00 0.575E+00 -.714E+00   -.427E-04 -.338E-05 -.297E-05
   -.117E+03 -.105E+03 0.241E+01   0.119E+03 0.106E+03 -.297E+01   -.123E+01 -.245E+01 0.505E+00   0.655E-04 0.276E-05 -.100E-04
   -.786E+01 -.181E+02 -.514E+01   0.664E+01 0.202E+02 0.522E+01   0.203E+01 -.303E+01 0.871E+00   0.146E-04 -.296E-05 0.314E-06
   0.329E+02 0.420E+02 0.129E+02   -.356E+02 -.417E+02 -.124E+02   0.222E+01 -.824E-02 -.101E+01   -.966E-04 -.300E-04 -.776E-05
   0.444E+02 0.500E+02 -.369E+01   -.420E+02 -.489E+02 0.302E+01   -.257E+01 -.147E+01 0.765E+00   -.173E-04 -.587E-04 0.654E-05
   -.237E+02 -.101E+02 0.379E+01   0.238E+02 0.934E+01 -.610E+01   -.231E+00 0.132E+00 0.290E+01   0.350E-04 0.606E-05 -.124E-04
   -.644E+02 -.921E+02 0.237E+02   0.644E+02 0.913E+02 -.223E+02   0.232E+00 0.205E+01 -.173E+00   0.363E-04 0.294E-04 0.414E-05
   -.847E+02 -.629E+02 0.180E+02   0.840E+02 0.621E+02 -.158E+02   0.413E+00 0.110E+01 -.225E+01   0.327E-04 -.738E-06 0.417E-04
   0.598E+02 -.110E+03 0.170E+02   -.601E+02 0.108E+03 -.175E+02   0.556E+00 0.252E+01 0.138E+01   -.256E-04 -.277E-04 0.104E-04
   -.395E+02 -.626E+02 -.220E+01   0.396E+02 0.620E+02 0.213E+01   0.539E+00 0.186E+00 -.333E+00   0.208E-04 0.561E-05 0.425E-05
   -.469E+02 0.938E+02 -.210E+02   0.477E+02 -.927E+02 0.168E+02   -.157E+01 -.818E+00 0.432E+01   0.389E-04 0.354E-04 -.314E-05
   0.658E+02 0.232E+02 0.341E+01   -.649E+02 -.261E+02 -.322E+01   -.374E+00 0.315E+01 0.688E+00   -.723E-04 -.703E-04 -.134E-05
   -.155E+00 0.863E+01 0.389E+01   -.160E+01 -.885E+01 -.308E+01   0.182E+01 -.285E+00 -.701E+00   -.614E-05 -.125E-04 0.613E-05
   -.871E+02 0.101E+03 0.107E+01   0.848E+02 -.996E+02 -.247E+01   0.144E+01 -.958E-01 0.140E+01   -.157E-04 0.716E-04 0.297E-06
   0.848E+02 0.526E+02 -.598E+01   -.824E+02 -.551E+02 0.592E+01   -.165E+01 0.244E+01 -.475E+00   -.105E-03 -.700E-04 -.989E-06
   0.333E+02 0.653E+02 0.671E+01   -.358E+02 -.623E+02 -.631E+01   0.343E+01 -.260E+01 -.102E+01   -.349E-04 -.758E-04 -.655E-05
   0.578E+02 -.122E+03 -.182E+02   -.587E+02 0.124E+03 0.178E+02   0.570E+00 -.293E+01 -.522E-01   -.264E-04 -.374E-04 -.533E-05
   -.483E+02 0.102E+03 0.228E+02   0.482E+02 -.990E+02 -.198E+02   0.298E+00 -.251E+01 -.315E+01   0.304E-04 0.477E-04 -.117E-04
   0.243E+02 0.358E+02 -.101E+01   -.247E+02 -.358E+02 0.105E+01   -.213E+00 0.182E+00 -.439E+00   -.609E-04 -.363E-04 0.123E-04
   0.120E+02 0.170E+01 -.100E+02   -.147E+02 -.216E+01 0.114E+02   0.365E+01 0.976E-01 -.199E+01   -.380E-04 -.420E-04 -.119E-04
   -.745E+01 -.391E+02 0.178E+02   0.774E+01 0.414E+02 -.152E+02   0.855E-01 -.210E+01 -.237E+01   -.667E-06 0.169E-04 -.289E-05
   -.485E+02 -.531E+02 -.258E+02   0.487E+02 0.529E+02 0.239E+02   -.245E+00 -.878E+00 0.226E+01   0.327E-04 -.353E-05 -.174E-05
   0.947E+02 0.393E+01 -.390E+01   -.937E+02 -.155E+01 0.386E+01   -.115E+01 -.205E+01 0.136E+01   -.687E-04 0.720E-04 0.409E-05
   0.686E+02 -.872E+02 -.297E+02   -.686E+02 0.861E+02 0.282E+02   0.135E+00 0.157E+01 0.112E+01   -.325E-04 0.333E-06 -.115E-04
   -.124E+03 -.802E+02 -.150E+02   0.126E+03 0.803E+02 0.143E+02   -.203E+01 0.203E+00 0.736E+00   0.151E-04 -.107E-04 0.977E-05
   0.198E+01 0.109E+03 -.638E+01   0.123E+01 -.112E+03 0.405E+01   -.204E+01 0.279E+01 0.234E+01   0.722E-04 0.422E-05 0.375E-05
   -.549E+02 -.505E+02 0.745E+01   0.530E+02 0.501E+02 -.688E+01   0.261E+01 0.718E+00 -.109E+01   0.112E-04 0.208E-04 -.319E-05
   -.841E+02 0.807E+02 -.181E+02   0.836E+02 -.804E+02 0.165E+02   -.974E-02 0.375E+00 0.220E+01   -.506E-04 0.174E-04 0.716E-05
   0.732E+02 -.244E+02 0.792E+01   -.722E+02 0.243E+02 -.828E+01   -.626E+00 0.891E+00 -.288E+00   -.575E-04 0.590E-04 -.267E-04
   0.135E+03 0.638E+02 -.288E+02   -.141E+03 -.643E+02 0.297E+02   0.616E+01 0.334E+00 -.510E+00   -.187E-03 -.514E-05 0.699E-04
   0.166E+02 0.417E+02 -.417E+01   -.186E+02 -.416E+02 0.492E+01   0.179E+01 -.566E-01 -.354E+00   0.691E-06 -.509E-04 -.117E-04
   0.512E+02 -.492E+01 0.258E+02   -.496E+02 0.589E+01 -.243E+02   -.128E+01 -.201E+01 -.141E+01   -.241E-04 -.430E-04 0.958E-05
   0.922E+02 -.668E+02 0.119E+02   -.895E+02 0.664E+02 -.136E+02   -.283E+01 0.159E+00 0.978E+00   -.268E-04 0.656E-04 0.651E-05
   0.931E+02 -.635E+02 -.154E+02   -.908E+02 0.632E+02 0.162E+02   -.229E+01 -.347E+00 -.376E+00   -.175E-04 0.490E-04 -.125E-04
   -.138E+02 0.983E+02 0.809E+00   0.122E+02 -.954E+02 0.196E+00   0.965E+00 -.238E+01 -.199E+01   0.318E-04 -.313E-04 0.104E-04
   -.726E+02 -.254E+02 0.144E+02   0.713E+02 0.236E+02 -.136E+02   0.797E+00 0.142E+01 -.161E+01   -.206E-04 -.520E-06 0.174E-06
   -.322E+02 0.214E+02 -.131E+01   0.316E+02 -.187E+02 0.180E+01   0.107E+00 -.229E+01 -.172E+01   0.151E-05 0.269E-04 -.554E-05
   -.757E+02 -.400E+02 -.164E+02   0.730E+02 0.403E+02 0.166E+02   0.155E+01 -.216E+00 0.144E+00   -.361E-04 0.463E-04 -.139E-04
   -.476E+02 0.712E+02 -.493E+01   0.466E+02 -.705E+02 0.547E+01   -.103E+00 -.621E+00 -.785E+00   -.707E-04 -.160E-04 0.493E-05
   0.253E+01 -.466E+01 0.826E+01   -.134E+01 0.570E+01 -.650E+01   -.259E+01 -.508E+00 -.128E+01   0.239E-04 -.767E-05 -.908E-05
   0.430E+02 -.560E+02 -.862E+01   -.421E+02 0.542E+02 0.772E+01   -.142E+01 0.361E+01 0.711E+00   -.199E-04 0.297E-04 0.633E-05
   0.123E+03 0.652E+02 -.228E+01   -.124E+03 -.652E+02 0.181E+01   0.256E+00 0.419E+00 -.456E+00   -.538E-04 -.519E-05 0.191E-04
   0.108E+02 -.980E+02 -.581E+01   -.993E+01 0.967E+02 0.499E+01   -.658E+00 0.657E+00 0.845E+00   -.191E-04 -.130E-04 -.917E-05
   -.859E+02 0.910E+02 0.554E+01   0.868E+02 -.903E+02 -.368E+01   -.911E+00 -.131E+01 -.866E+00   0.132E-04 0.671E-04 -.368E-05
   -.843E+02 -.814E+02 -.173E+02   0.827E+02 0.802E+02 0.180E+02   0.625E+00 0.181E+01 -.154E+01   0.558E-04 -.251E-04 -.347E-04
   -.379E+01 -.239E+02 -.664E+01   0.221E+01 0.223E+02 0.393E+01   0.217E+01 0.182E+01 0.169E+01   -.112E-05 -.276E-04 -.420E-06
   -.894E+02 0.715E+02 0.104E+02   0.943E+02 -.722E+02 -.984E+01   -.481E+01 -.289E+00 -.797E+00   -.352E-04 -.151E-04 -.170E-04
   0.840E+02 0.512E+02 0.153E+02   -.853E+02 -.496E+02 -.143E+02   0.242E+01 -.184E+01 -.196E+00   -.945E-04 0.352E-04 -.338E-05
   0.808E+02 -.105E+03 0.411E+02   -.813E+02 0.102E+03 -.396E+02   0.331E+00 0.346E+01 -.795E+00   -.171E-04 0.488E-05 0.993E-05
   0.450E+02 0.250E+02 -.179E+02   -.440E+02 -.236E+02 0.156E+02   -.138E+01 -.201E+01 0.313E+01   -.407E-04 -.691E-04 0.484E-05
   -.972E+02 0.980E+02 0.131E+02   0.969E+02 -.988E+02 -.133E+02   -.197E+00 -.149E+00 -.341E+00   -.433E-04 -.415E-05 0.462E-06
   0.951E+01 -.938E+02 0.943E+01   -.717E+01 0.919E+02 -.749E+01   -.300E+01 0.140E+01 -.178E+01   -.178E-04 -.220E-04 0.515E-05
 -----------------------------------------------------------------------------------------------
   -.139E+00 -.348E+00 0.302E+01   -.941E-13 0.284E-13 -.124E-13   0.139E+00 0.355E+00 -.302E+01   -.938E-03 -.100E-03 0.302E-04


 POSITION                                       TOTAL-FORCE (eV/Angst)
 -----------------------------------------------------------------------------------
      3.78624      9.50901      2.37324         0.002344      0.856078     -0.232807
      5.16417      0.53907      3.38441         0.162533     -0.004426      0.531435
     13.59370     13.73390      1.46056         1.038850     -0.717574      0.235496
      3.40927      2.03938      4.02364        -0.176322     -0.490201     -0.154491
     12.08720      4.69268      3.94540         0.709287      0.258145      0.284917
      9.43493     13.45880      4.95884         0.799998     -0.835717     -0.861876
     10.89080      2.22949      1.52886        -0.063667     -0.036223      0.194559
     13.10050      9.14294      2.10673         0.227245     -1.206157     -0.083583
     10.19450      7.70636      3.87536         0.926940     -1.047499      1.016703
      8.64923      1.56310      1.94669        -0.334608      0.239591     -0.524925
      4.58085      5.04436      0.50874        -0.283963     -0.387876      0.101078
     12.00460      5.69367      1.63837        -0.166807     -0.596289      0.754643
     13.85700      6.99478      1.14816         0.273514      1.229253      1.255016
     11.55140     10.08230      0.61851        -0.161308      0.372646     -0.187412
      4.16260      7.26187      7.23628         0.327559      1.072383      0.926630
      0.34817      6.17346      6.73873         0.659637     -0.418444     -0.410960
      1.05797      3.88975      0.05019        -0.908433      0.325554      0.299115
      7.56156      2.60514      3.75463         0.529805      0.320017      0.903230
     10.48810      4.52744      5.80776         0.198824     -0.522105      0.058457
     13.63500      2.76114      3.95342        -0.815592      0.963213      0.107443
      7.48958      2.00696      7.39224         0.770882      0.143077     -0.544433
      6.73024      4.44395      0.10929         1.090518      0.320334     -0.659360
      4.17609      8.15906      2.01220        -0.286516     -0.327612     -0.448092
      0.87347      3.72378      2.68798         0.172809      0.327121     -0.234154
      9.19144      2.50514      5.64327        -0.655217      0.221629     -0.446561
      7.57914      5.99033      1.81096         1.184220     -0.352039     -0.655529
      9.48916      8.77308      0.28270         0.388314      0.171608      0.220203
     13.63780      6.42107      4.72511        -0.035342     -1.160559      0.459174
      7.90108     12.52200      6.48740        -0.051788      0.191303      1.400477
      6.51785      8.05377      1.50574         0.112482      0.506286     -0.328946
     12.31400     10.28090      5.77636        -0.367220      0.181754      0.030492
      2.82846      3.38586      4.00986         1.132306      0.075920      0.115697
      0.54470      6.05158      2.96543         0.893096      0.326046     -0.559224
     12.09380      1.13070      3.28765        -0.491248      0.769477      0.619970
      8.48888     12.13620      1.44530         0.330789      0.784518     -0.629787
      6.17857     14.51300      6.55406         0.207543     -0.079725      0.231189
      4.28677      4.88271      2.89468        -0.175327      0.034557      0.361746
      7.11651      6.05780      5.73461         0.208717     -1.117781      0.093351
      7.95938      9.98366      6.18428        -0.174583     -0.317819     -0.720626
      8.08426      9.87942      1.99340         0.044410     -0.707389      0.372811
      3.05258      4.20440      6.37476        -0.608582      0.552483     -1.069840
     10.92970     12.06680      1.95635        -0.395391     -0.322500     -0.880528
     11.91210      3.88982      0.22644        -0.496616      0.322542     -1.305234
     10.84240     11.49340      4.27117        -1.079775      0.087853      0.309001
     10.91970      0.80539      5.38345        -1.153229      0.104851     -0.302800
      9.96813      6.76394      1.67304        -1.535916      0.559628      0.444909
      9.15960      9.65344      4.11548        -0.590671      2.013490     -0.182952
      6.38830      0.56053      4.28846        -0.512338      0.413368     -1.046661
      2.84786      6.77666      3.39186         0.222255     -0.639823      0.088819
     13.74510      2.97040      6.38251        -0.116307     -0.710879      0.995613
     12.51020      8.37374      4.42389        -0.921385      0.737248     -0.932822
      9.36697      6.60441      5.96521         0.659099      0.287215     -0.982417
     12.21810     14.14920      1.55484         0.001689     -0.964239     -0.246826
      7.96996     13.99680      2.90307         1.316306     -0.331234      0.839455
      6.28417      8.07489      6.51833        -0.145615      0.541860      0.763774
      6.66027      4.94608      3.60145        -0.399125     -0.675143      1.032267
     12.30120      1.22008      7.27978        -0.705230     -0.810576     -0.519087
      2.58916      6.54957      5.76511        -0.783848     -0.531218      0.104266
 -----------------------------------------------------------------------------------
    total drift:                               -0.000777      0.006751      0.001213


--------------------------------------------------------------------------------------------------------



  FREE ENERGIE OF THE ION-ELECTRON SYSTEM (eV)
  ---------------------------------------------------
  free  energy   TOTEN  =      -530.89813438 eV

  energy  without entropy=     -530.81814600  energy(sigma->0) =     -530.85814019



--------------------------------------------------------------------------------------------------------


    POTLOK:  cpu time      1.4432: real time      1.4830


--------------------------------------------------------------------------------------------------------


     LOOP+:  cpu time   1416.9362: real time   1418.4213
    4ORBIT:  cpu time      0.0000: real time      0.0000



 total charge

# of ion       s       p       d       tot
------------------------------------------
    1        0.586   0.017   0.000   0.603
    2        0.554   0.014   0.000   0.568
    3        0.593   0.018   0.000   0.611
    4        0.576   0.017   0.000   0.593
    5        0.765   0.851   0.000   1.617
    6        0.757   0.857   0.000   1.614
    7        0.763   0.911   0.000   1.674
    8        0.806   0.800   0.000   1.606
    9        0.767   0.907   0.000   1.675
   10        0.751   0.912   0.000   1.663
   11        0.760   0.928   0.000   1.688
   12        0.767   0.920   0.000   1.688
   13        0.755   0.933   0.000   1.688
   14        0.753   0.872   0.000   1.625
   15        0.761   0.916   0.000   1.676
   16        0.757   0.888   0.000   1.645
   17        0.763   0.857   0.000   1.620
   18        0.754   0.883   0.000   1.637
   19        0.758   0.880   0.000   1.638
   20        0.753   0.894   0.000   1.647
   21        0.761   0.831   0.000   1.592
   22        0.757   0.888   0.000   1.645
   23        0.743   0.948   0.000   1.690
   24        0.748   0.884   0.000   1.632
   25        0.756   0.868   0.000   1.625
   26        0.751   0.914   0.000   1.665
   27        0.754   0.830   0.000   1.584
   28        0.751   0.959   0.000   1.709
   29        0.760   0.825   0.000   1.584
   30        0.757   0.889   0.000   1.646
   31        0.791   0.820   0.000   1.611
   32        0.741   0.933   0.000   1.675
   33        0.755   0.930   0.000   1.685
   34        0.748   0.938   0.000   1.686
   35        0.755   0.859   0.000   1.614
   36        0.829   0.762   0.000   1.590
   37        0.750   0.904   0.000   1.655
   38        0.751   0.914   0.000   1.665
   39        0.776   0.795   0.000   1.571
   40        0.757   0.888   0.000   1.645
   41        0.759   0.894   0.000   1.652
   42        0.760   0.847   0.000   1.607
   43        0.759   0.905   0.000   1.664
   44        0.753   0.872   0.000   1.625
   45        0.747   0.890   0.000   1.637
   46        0.771   0.865   0.000   1.635
   47        0.756   0.935   0.000   1.691
   48        0.751   0.932   0.000   1.683
   49        0.744   0.913   0.000   1.657
   50        0.759   0.865   0.000   1.624
   51        0.755   0.902   0.000   1.656
   52        0.781   0.848   0.000   1.629
   53        0.751   0.948   0.000   1.699
   54        0.761   0.870   0.000   1.632
   55        0.754   0.889   0.000   1.644
   56        0.751   0.887   0.000   1.638
   57        0.763   0.898   0.000   1.661
   58        0.762   0.912   0.000   1.674
--------------------------------------------------
tot         43.327  47.925   0.000  91.253


 total amount of memory used by VASP MPI-rank0   140042. kBytes
=======================================================================

   base                                    :      30000. kBytes
   nonl-proj                               :      23082. kBytes
   fftplans                                :      30750. kBytes
   grid                                    :      23712. kBytes
   one-center                              :         12. kBytes
   wavefun                                 :      32486. kBytes

  
  
 General timing and accounting informations for this job:
 ========================================================
  
                  Total CPU time used (sec):     1464.473
                            User time (sec):     1458.398
                          System time (sec):        6.075
                         Elapsed time (sec):     1465.998
  
                   Maximum memory used (kb):      333856.
                   Average memory used (kb):          N/A
  
                          Minor page faults:       236645
                          Major page faults:         1151
                 Voluntary context switches:         2824
