 vasp.6.5.0 16Dec24 (build Jan 20 2025 08:32:48) complex                         
 executed on        HPECrayEX_GCC date 2025.07.21  23:08:45
 running  128 mpi-ranks, with    1 threads/rank, on    1 nodes
 distrk:  each k-point on  128 cores,    1 groups
 distr:  one band on NCORE=  16 cores,    8 groups


--------------------------------------------------------------------------------------------------------


 INCAR:
   SYSTEM = a-Si SPC
   NCORE = 16
   ISTART = 1
   ICHARG = 1
   ISPIN = 1
   ISYM = 1
   EDIFF = 1E-6
   NELM = 150
   EDIFFG = -0.01
   NSW = 0
   ISIF = 2
   IBRION = -1
   PREC = Accurate
   ENCUT = 1200
   KSPACING = 0.23
   KGAMMA = .TRUE.
   METAGGA = SCAN
   LASPH = .TRUE.
   LDIAG = .FALSE.
   LMIXTAU = .TRUE.
   ADDGRID = .TRUE.
   ALGO = Normal
   ISMEAR = 0
   SIGMA = 0.1
   LORBIT = 11
   NEDOS = 2000
   LWAVE = .FALSE.
   LCHARG = .FALSE.

 POTCAR:    PAW_PBE H 15Jun2001                   
 POTCAR:    PAW_PBE Si 05Jan2001                  
 POTCAR:    PAW_PBE H 15Jun2001                   
   SHA256 =  030f79b5d3ab3cf0e668861823c8fb652ff669f3e15e46930bd03bfd63a607b6 H/POTCAR              
   COPYR  = (c) Copyright 15Jun2001 Georg Kresse                                                    
   COPYR  = This file is part of the software VASP. Any use, copying, and all other rights are regul
   COPYR  = If you do not have a valid VASP license, you may not use, copy or distribute this file. 
   VRHFIN =H: ultrasoft test                                                                        
   LEXCH  = PE                                                                                      
   EATOM  =    12.4884 eV,    0.9179 Ry                                                             
                                                                                                    
   TITEL  = PAW_PBE H 15Jun2001                                                                     
   LULTRA =        F    use ultrasoft PP ?                                                          
   IUNSCR =        0    unscreen: 0-lin 1-nonlin 2-no                                               
   RPACOR =    0.000    partial core radius                                                         
   POMASS =    1.000; ZVAL   =    1.000    mass and valenz                                          
   RCORE  =    1.100    outmost cutoff radius                                                       
   RWIGS  =    0.700; RWIGS  =    0.370    wigner-seitz radius (au A)                               
   ENMAX  =  250.000; ENMIN  =  200.000 eV                                                          
   RCLOC  =    0.701    cutoff for local pot                                                        
   LCOR   =        T    correct aug charges                                                         
   LPAW   =        T    paw PP                                                                      
   EAUG   =  400.000                                                                                
   RMAX   =    1.123    core radius for proj-oper                                                   
   RAUG   =    1.200    factor for augmentation sphere                                              
   RDEP   =    1.112    radius for radial grids                                                     
   RDEPT  =    0.926    core radius for aug-charge                                                  
                                                                                                    
   Atomic configuration                                                                             
    2 entries                                                                                       
     n  l   j            E        occ.                                                              
     1  0  0.50        -6.4927   1.0000                                                             
     2  1  0.50        -3.4015   0.0000                                                             
   Description                                                                                      
     l       E           TYP  RCUT    TYP  RCUT                                                     
     0     -6.4927494     23  1.100                                                                 
     0      6.8029130     23  1.100                                                                 
     1     -4.0817478     23  1.100                                                                 
  local pseudopotential read in
  atomic valenz-charges read in
  non local Contribution for L=           0  read in
    real space projection operators read in
  non local Contribution for L=           0  read in
    real space projection operators read in
  non local Contribution for L=           1  read in
    real space projection operators read in
    PAW grid and wavefunctions read in

   number of l-projection  operators is LMAX  =           3
   number of lm-projection operators is LMMAX =           5

 POTCAR:    PAW_PBE Si 05Jan2001                  
   SHA256 =  79d9987ad8750f624c4d6acb2a16d13abf6a777132adc04dc6c8399be72b42bb Si/POTCAR             
   COPYR  = (c) Copyright 05Jan2001 Georg Kresse                                                    
   COPYR  = This file is part of the software VASP. Any use, copying, and all other rights are regul
   COPYR  = If you do not have a valid VASP license, you may not use, copy or distribute this file. 
   VRHFIN =Si: s2p2                                                                                 
   LEXCH  = PE                                                                                      
   EATOM  =   103.0669 eV,    7.5752 Ry                                                             
                                                                                                    
   TITEL  = PAW_PBE Si 05Jan2001                                                                    
   LULTRA =        F    use ultrasoft PP ?                                                          
   IUNSCR =        1    unscreen: 0-lin 1-nonlin 2-no                                               
   RPACOR =    1.500    partial core radius                                                         
   POMASS =   28.085; ZVAL   =    4.000    mass and valenz                                          
   RCORE  =    1.900    outmost cutoff radius                                                       
   RWIGS  =    2.480; RWIGS  =    1.312    wigner-seitz radius (au A)                               
   ENMAX  =  245.345; ENMIN  =  184.009 eV                                                          
   ICORE  =        2    local potential                                                             
   LCOR   =        T    correct aug charges                                                         
   LPAW   =        T    paw PP                                                                      
   EAUG   =  322.069                                                                                
   DEXC   =    0.000                                                                                
   RMAX   =    1.950    core radius for proj-oper                                                   
   RAUG   =    1.300    factor for augmentation sphere                                              
   RDEP   =    1.993    radius for radial grids                                                     
   RDEPT  =    1.837    core radius for aug-charge                                                  
                                                                                                    
   Atomic configuration                                                                             
    6 entries                                                                                       
     n  l   j            E        occ.                                                              
     1  0  0.50     -1785.8828   2.0000                                                             
     2  0  0.50      -139.4969   2.0000                                                             
     2  1  1.50       -95.5546   6.0000                                                             
     3  0  0.50       -10.8127   2.0000                                                             
     3  1  0.50        -4.0811   2.0000                                                             
     3  2  1.50        -4.0817   0.0000                                                             
   Description                                                                                      
     l       E           TYP  RCUT    TYP  RCUT                                                     
     0    -10.8127223     23  1.900                                                                 
     0     -7.6451159     23  1.900                                                                 
     1     -4.0811372     23  1.900                                                                 
     1      2.4879257     23  1.900                                                                 
     2     -4.0817478      7  1.900                                                                 
  local pseudopotential read in
  partial core-charges read in
  partial kinetic energy density read in
  atomic valenz-charges read in
  non local Contribution for L=           0  read in
    real space projection operators read in
  non local Contribution for L=           0  read in
    real space projection operators read in
  non local Contribution for L=           1  read in
    real space projection operators read in
  non local Contribution for L=           1  read in
    real space projection operators read in
    PAW grid and wavefunctions read in

   number of l-projection  operators is LMAX  =           4
   number of lm-projection operators is LMMAX =           8

 -----------------------------------------------------------------------------
|                                                                             |
|               ----> ADVICE to this user running VASP <----                  |
|                                                                             |
|     You have a (more or less) 'large supercell' and for larger cells it     |
|     might be more efficient to use real-space projection operators.         |
|     Therefore, try LREAL= Auto in the INCAR file.                           |
|     Mind: For very accurate calculation, you might also keep the            |
|     reciprocal projection scheme (i.e. LREAL=.FALSE.).                      |
|                                                                             |
 -----------------------------------------------------------------------------

 -----------------------------------------------------------------------------
|                                                                             |
|               ----> ADVICE to this user running VASP <----                  |
|                                                                             |
|     You enforced a specific xc type in the INCAR file but a different       |
|     type was found in the POTCAR file.                                      |
|     I HOPE YOU KNOW WHAT YOU ARE DOING!                                     |
|                                                                             |
 -----------------------------------------------------------------------------

  PAW_PBE H 15Jun2001                   :
 energy of atom  1       EATOM=  -12.4884
 kinetic energy error for atom=    0.0000 (will be added to EATOM!!)
  PAW_PBE Si 05Jan2001                  :
 energy of atom  2       EATOM= -103.0669
 kinetic energy error for atom=    0.0001 (will be added to EATOM!!)


 POSCAR:  H Si
  positions in cartesian coordinates
  No initial velocities read in


 exchange-correlation table for SCAN
   RHO(1)=    0.500       N(1)  =     2000
   RHO(2)=  100.500       N(2)  =     4000



--------------------------------------------------------------------------------------------------------


 ion  position               nearest neighbor table
   1  0.608  0.749  0.453-  40 1.56
   2  0.801  0.947  0.430-
   3  0.626  0.161  0.474-  48 1.51
   4  0.662  0.003  0.459-  29 1.45
   5  0.402  0.599  0.591-  10 2.34  56 2.35
   6  0.771  0.137  0.586-  22 2.31  12 2.35  26 2.51
   7  0.798  0.374  0.475-  44 2.26   8 2.28  33 2.35  12 2.38
   8  0.913  0.311  0.424-  14 2.26   7 2.28  25 2.32
   9  0.479  0.064  0.420-  30 2.30  43 2.42
  10  0.522  0.502  0.564-  50 2.32   5 2.34  20 2.34
  11  0.233  0.404  0.537-  42 2.29  45 2.33  21 2.37
  12  0.738  0.279  0.544-  48 2.22   6 2.35   7 2.38  22 3.12
  13  0.412  0.271  0.524-  54 2.26  42 2.38  43 2.39  48 2.81  46 2.99  50 3.04
  14  0.063  0.343  0.436-   8 2.26  21 2.49
  15  0.142  0.706  0.469-  31 2.31  34 2.37  19 2.40
  16  0.589  0.741  0.589-  20 2.29  56 2.47  28 2.52
  17  0.177  0.157  0.539-  53 2.29  42 2.36  32 2.38  55 2.42
  18  0.087  0.789  0.596-  27 2.26  31 2.42  41 2.49
  19  0.234  0.840  0.487-  27 2.29  39 2.37  15 2.40  51 2.49
  20  0.643  0.606  0.552-  35 2.29  16 2.29  40 2.33  10 2.34
  21  0.071  0.384  0.534-  36 2.29  11 2.37  55 2.38  14 2.49
  22  0.896  0.137  0.528-   6 2.31  25 2.38  38 2.41  55 2.46  12 3.12
  23  0.507  0.012  0.571-  54 2.34  26 2.39  30 2.44
  24  0.969  0.833  0.433-  52 2.34  57 2.36
  25  0.859  0.162  0.435-   8 2.32  22 2.38
  26  0.669  0.997  0.585-  28 2.32  23 2.39   6 2.51
  27  0.209  0.879  0.575-  53 2.26  18 2.26  19 2.29
  28  0.691  0.857  0.543-  37 2.28  29 2.31  26 2.32  16 2.52
  29  0.635  0.906  0.460-   4 1.45  28 2.31  30 2.38
  30  0.480  0.945  0.482-   9 2.30  39 2.37  29 2.38  23 2.44
  31  0.033  0.673  0.534-  57 2.28  15 2.31  18 2.42  36 2.50
  32  0.220  0.121  0.448-  43 2.33  51 2.36  17 2.38
  33  0.690  0.361  0.404-  46 2.35   7 2.35
  34  0.208  0.579  0.423-  45 2.33  15 2.37
  35  0.769  0.535  0.589-  20 2.29  44 2.30
  36  0.990  0.512  0.560-  44 2.26  21 2.29  31 2.50
  37  0.835  0.813  0.567-  28 2.28  41 2.29  57 2.37
  38  0.010  0.017  0.537-  52 2.26  41 2.28  53 2.36  22 2.41  55 3.13
  39  0.392  0.809  0.472-  56 2.34  19 2.37  30 2.37
  40  0.635  0.646  0.461-   1 1.56  47 2.28  20 2.33
  41  0.959  0.902  0.591-  38 2.28  37 2.29  18 2.49
  42  0.275  0.269  0.577-  11 2.29  17 2.36  13 2.38
  43  0.370  0.180  0.448-  32 2.33  13 2.39   9 2.42
  44  0.856  0.502  0.514-   7 2.26  36 2.26  49 2.29  35 2.30
  45  0.302  0.463  0.459-  11 2.33  34 2.33  50 2.37
  46  0.544  0.349  0.444-  50 2.23  33 2.35  48 2.40  13 2.99
  47  0.498  0.592  0.429-  40 2.28  50 2.37
  48  0.602  0.242  0.510-   3 1.51  12 2.22  54 2.31  46 2.40  13 2.81
  49  0.857  0.596  0.440-  44 2.29  57 2.45
  50  0.460  0.461  0.481-  46 2.23  10 2.32  47 2.37  45 2.37  13 3.04
  51  0.180  0.968  0.428-  32 2.36  52 2.37  19 2.49
  52  0.021  0.983  0.448-  38 2.26  24 2.34  51 2.37
  53  0.151  0.022  0.584-  27 2.26  17 2.29  38 2.36
  54  0.503  0.173  0.570-  13 2.26  48 2.31  23 2.34
  55  0.030  0.229  0.555-  21 2.38  17 2.42  22 2.46  38 3.13
  56  0.428  0.747  0.557-  39 2.34   5 2.35  16 2.47
  57  0.902  0.729  0.495-  31 2.28  24 2.36  37 2.37  49 2.45

  LATTYP: Found a simple tetragonal cell.
 ALAT       =    14.5342042383
 C/A-ratio  =     1.7030096450
  
  Lattice vectors:
  
 A1 = (  14.5342042383,   0.0000000000,   0.0000000000)
 A2 = (   0.0000000000,  14.5342042383,   0.0000000000)
 A3 = (   0.0000000000,   0.0000000000,  24.7518900000)


Analysis of symmetry for initial positions (statically):
=====================================================================
 Subroutine PRICEL returns:
 Original cell was already a primitive cell.
 

 Routine SETGRP: Setting up the symmetry group for a 
 simple tetragonal supercell.


 Subroutine GETGRP returns: Found  1 space group operations
 (whereof  1 operations were pure point group operations)
 out of a pool of 16 trial point group operations.


The static configuration has the point symmetry C_1 .


Analysis of symmetry for dynamics (positions and initial velocities):
=====================================================================
 Subroutine PRICEL returns:
 Original cell was already a primitive cell.
 

 Routine SETGRP: Setting up the symmetry group for a 
 simple tetragonal supercell.


 Subroutine GETGRP returns: Found  1 space group operations
 (whereof  1 operations were pure point group operations)
 out of a pool of 16 trial point group operations.


The dynamic configuration has the point symmetry C_1 .


 Subroutine INISYM returns: Found  1 space group operations
 (whereof  1 operations are pure point group operations),
 and found     1 'primitive' translations


----------------------------------------------------------------------------------------

                                     Primitive cell                                     

  volume of cell :    5228.6658

  direct lattice vectors                    reciprocal lattice vectors
    14.534204238  0.000000000  0.000000000     0.068803216  0.000000000  0.000000000
     0.000000000 14.534204238  0.000000000     0.000000000  0.068803216  0.000000000
     0.000000000  0.000000000 24.751890000     0.000000000  0.000000000  0.040400955

  length of vectors
    14.534204238 14.534204238 24.751890000     0.068803216  0.068803216  0.040400955

  position of ions in fractional coordinates (direct lattice)
     0.607542722  0.748551474  0.452891476
     0.801323541  0.947447812  0.429500858
     0.626209034  0.161446747  0.474135914
     0.661514717  0.002913452  0.459189177
     0.402205026  0.598627889  0.591175462
     0.770850596  0.136692726  0.585508824
     0.797594406  0.374195925  0.474768997
     0.912654025  0.311135713  0.424125309
     0.478818784  0.063636439  0.420482880
     0.522024452  0.502304074  0.563749677
     0.232685598  0.404258114  0.536947684
     0.737714967  0.279032820  0.544437213
     0.411872566  0.271169989  0.524391875
     0.063310587  0.342728774  0.436463923
     0.142487333  0.705934761  0.468792080
     0.588737427  0.740645984  0.588650402
     0.177419414  0.157178884  0.538534633
     0.087446136  0.789221055  0.595990448
     0.233748607  0.839791419  0.486836359
     0.642972938  0.606359994  0.552151775
     0.070823279  0.383903371  0.534195975
     0.895934844  0.137185357  0.527941099
     0.507018470  0.012011322  0.571065078
     0.968632322  0.832883576  0.433301093
     0.859324652  0.161606371  0.435321020
     0.669235126  0.997337024  0.585157739
     0.208914774  0.879284465  0.575232033
     0.690880618  0.856765172  0.542503623
     0.635092906  0.906413573  0.460281619
     0.480099900  0.945005297  0.482027029
     0.033061734  0.672700744  0.533885695
     0.220443441  0.121463134  0.448299504
     0.690412756  0.360728383  0.404009552
     0.208422143  0.578522901  0.423458855
     0.768628252  0.535128024  0.588839883
     0.989837473  0.511939964  0.559954412
     0.835415534  0.812985686  0.566912668
     0.009969311  0.017320866  0.536676593
     0.391629284  0.808988219  0.472353020
     0.635414217  0.645700297  0.461006412
     0.958834744  0.901734955  0.591381103
     0.275159199  0.268963470  0.577410452
     0.369578541  0.180196312  0.447756919
     0.855877611  0.502021293  0.513681581
     0.301532160  0.463076608  0.459401282
     0.544091707  0.349141234  0.443682078
     0.498406372  0.592238822  0.429257645
     0.601607756  0.242434325  0.509699663
     0.857398162  0.596213584  0.439568817
     0.460318287  0.460671936  0.481046498
     0.180002287  0.968013093  0.428193847
     0.021009131  0.982805785  0.448077702
     0.150870317  0.022455650  0.583914602
     0.503166178  0.172807534  0.570324933
     0.029981621  0.229310800  0.554988730
     0.427567956  0.747085965  0.556894443
     0.902278500  0.728846232  0.494998564

  ion indices of the primitive-cell ions
   primitive index   ion index
                 1           1
                 2           2
                 3           3
                 4           4
                 5           5
                 6           6
                 7           7
                 8           8
                 9           9
                10          10
                11          11
                12          12
                13          13
                14          14
                15          15
                16          16
                17          17
                18          18
                19          19
                20          20
                21          21
                22          22
                23          23
                24          24
                25          25
                26          26
                27          27
                28          28
                29          29
                30          30
                31          31
                32          32
                33          33
                34          34
                35          35
                36          36
                37          37
                38          38
                39          39
                40          40
                41          41
                42          42
                43          43
                44          44
                45          45
                46          46
                47          47
                48          48
                49          49
                50          50
                51          51
                52          52
                53          53
                54          54
                55          55
                56          56
                57          57

----------------------------------------------------------------------------------------


 -----------------------------------------------------------------------------
|                                                                             |
|           W    W    AA    RRRRR   N    N  II  N    N   GGGG   !!!           |
|           W    W   A  A   R    R  NN   N  II  NN   N  G    G  !!!           |
|           W    W  A    A  R    R  N N  N  II  N N  N  G       !!!           |
|           W WW W  AAAAAA  RRRRR   N  N N  II  N  N N  G  GGG   !            |
|           WW  WW  A    A  R   R   N   NN  II  N   NN  G    G                |
|           W    W  A    A  R    R  N    N  II  N    N   GGGG   !!!           |
|                                                                             |
|     The requested file  could not be found or opened for reading            |
|     k-point information. Automatic k-point generation is used as a          |
|     fallback, which may lead to unwanted results.                           |
|                                                                             |
 -----------------------------------------------------------------------------



Automatic generation of k-mesh.
 Grid dimensions derived from KSPACING:
 generate k-points for:    2    2    2

 Generating k-lattice:

  Cartesian coordinates                     Fractional coordinates (reciprocal lattice)
     0.034401608  0.000000000  0.000000000     0.500000000  0.000000000  0.000000000
     0.000000000  0.034401608  0.000000000     0.000000000  0.500000000  0.000000000
     0.000000000  0.000000000  0.020200478     0.000000000  0.000000000  0.500000000

  Length of vectors
     0.034401608  0.034401608  0.020200478

  Shift w.r.t. Gamma in fractional coordinates (k-lattice)
     0.000000000  0.000000000  0.000000000

 
 Subroutine IBZKPT returns following result:
 ===========================================
 
 Found      8 irreducible k-points:
 
 Following reciprocal coordinates:
            Coordinates               Weight
  0.000000  0.000000  0.000000      1.000000
  0.500000  0.000000  0.000000      1.000000
  0.000000  0.500000  0.000000      1.000000
  0.500000  0.500000  0.000000      1.000000
  0.000000  0.000000  0.500000      1.000000
  0.500000  0.000000  0.500000      1.000000
  0.000000  0.500000  0.500000      1.000000
  0.500000  0.500000  0.500000      1.000000
 
 Following cartesian coordinates:
            Coordinates               Weight
  0.000000  0.000000  0.000000      1.000000
  0.034402  0.000000  0.000000      1.000000
  0.000000  0.034402  0.000000      1.000000
  0.034402  0.034402  0.000000      1.000000
  0.000000  0.000000  0.020200      1.000000
  0.034402  0.000000  0.020200      1.000000
  0.000000  0.034402  0.020200      1.000000
  0.034402  0.034402  0.020200      1.000000
 


--------------------------------------------------------------------------------------------------------




 Dimension of arrays:
   k-points           NKPTS =      8   k-points in BZ     NKDIM =      8   number of bands    NBANDS=    144
   number of dos      NEDOS =   2000   number of ions     NIONS =     57
   non local maximal  LDIM  =      4   non local SUM 2l+1 LMDIM =      8
   total plane-waves  NPLWV = ******
   max r-space proj   IRMAX =      1   max aug-charges    IRDMAX= 404427
   dimension x,y,z NGX =   168 NGY =  168 NGZ =  280
   dimension x,y,z NGXF=   336 NGYF=  336 NGZF=  560
   support grid    NGXF=   672 NGYF=  672 NGZF= 1120
   ions per type =               4  53
   NGX,Y,Z   is equivalent  to a cutoff of  19.22, 19.22, 18.81 a.u.
   NGXF,Y,Z  is equivalent  to a cutoff of  38.43, 38.43, 37.61 a.u.

 SYSTEM =  a-Si SPC                                
 POSCAR =   H Si                                   

 Startparameter for this run:
   NWRITE =      2    write-flag & timer
   PREC   = accura    normal or accurate (medium, high low for compatibility)
   ISTART =      1    job   : 0-new  1-cont  2-samecut
   ICHARG =      1    charge: 1-file 2-atom 10-const
   ISPIN  =      1    spin polarized calculation?
   LNONCOLLINEAR =      F non collinear calculations
   LSORBIT =      F    spin-orbit coupling
   INIWAV =      1    electr: 0-lowe 1-rand  2-diag
   LASPH  =      T    aspherical Exc in radial PAW
 Electronic Relaxation 1
   ENCUT  = 1200.0 eV  88.20 Ry    9.39 a.u.  41.05 41.05 69.91*2*pi/ulx,y,z
   ENINI  = 1200.0     initial cutoff
   ENAUG  =  400.0 eV  augmentation charge cutoff
   NELM   =    150;   NELMIN=  2; NELMDL=  0     # of ELM steps 
   EDIFF  = 0.1E-05   stopping-criterion for ELM
   LREAL  =      F    real-space projection
   NLSPLINE    = F    spline interpolate recip. space projectors
   LCOMPAT=      F    compatible to vasp.4.4
   GGA_COMPAT  = T    GGA compatible to vasp.4.4-vasp.4.6
   LMAXPAW     = -100 max onsite density
   LMAXMIX     =    2 max onsite mixed and CHGCAR
   VOSKOWN=      0    Vosko Wilk Nusair interpolation
   ROPT   =    0.00000   0.00000
 Ionic relaxation
   EDIFFG = -.1E-01   stopping-criterion for IOM
   NSW    =      0    number of steps for IOM
   NBLOCK =      1;   KBLOCK =      1    inner block; outer block 
   IBRION =     -1    ionic relax: 0-MD 1-quasi-New 2-CG
   NFREE  =      0    steps in history (QN), initial steepest desc. (CG)
   ISIF   =      2    stress and relaxation
   IWAVPR =     10    prediction:  0-non 1-charg 2-wave 3-comb
   ISYM   =      1    0-nonsym 1-usesym 2-fastsym
   LCORR  =      T    Harris-Foulkes like correction to forces

   POTIM  = 0.5000    time-step for ionic-motion
   TEIN   =    0.0    initial temperature
   TEBEG  =    0.0;   TEEND  =   0.0 temperature during run
   SMASS  =  -3.00    Nose mass-parameter (am)
   estimated Nose-frequenzy (Omega)   =  0.10E-29 period in steps = 0.13E+47 mass=  -0.483E-26a.u.
   SCALEE = 1.0000    scale energy and forces
   NPACO  =    256;   APACO  = 10.0  distance and # of slots for P.C.
   PSTRESS=    0.0 pullay stress

  Mass of Ions in am
   POMASS =   1.00 28.09
  Ionic Valenz
   ZVAL   =   1.00  4.00
  Atomic Wigner-Seitz radii
   RWIGS  =  -1.00 -1.00
  virtual crystal weights 
   VCA    =   1.00  1.00
   NELECT =     216.0000    total number of electrons
   NUPDOWN=      -1.0000    fix difference up-down

 DOS related values:
   EMIN   =  10.00;   EMAX   =-10.00  energy-range for DOS
   EFERMI =   0.00;   METHOD = LEGACY      
   ISMEAR =     0;   SIGMA  =   0.10  broadening in eV -4-tet -1-fermi 0-gaus
   EFERMI_NEDOS =   21; number of points for ismear=-14 and -15

 Electronic relaxation 2 (details)
   IALGO  =     38    algorithm
   LDIAG  =      F    sub-space diagonalisation (order eigenvalues)
   LSUBROT=      F    optimize rotation matrix (better conditioning)
   TURBO    =      0    0=normal 1=particle mesh
   IRESTART =      0    0=no restart 2=restart with 2 vectors
   NREBOOT  =      0    no. of reboots
   NMIN     =      0    reboot dimension
   EREF     =   0.00    reference energy to select bands
   IMIX   =      4    mixing-type and parameters
     AMIX     =   0.40;   BMIX     =  1.00
     AMIX_MAG =   1.60;   BMIX_MAG =  1.00
     AMIN     =   0.10
     WC   =   100.;   INIMIX=   1;  MIXPRE=   1;  MAXMIX= -45

 Intra band minimization:
   WEIMIN = 0.0000     energy-eigenvalue tresh-hold
   EBREAK =  0.17E-08  absolut break condition
   DEPER  =   0.30     relativ break condition  

   TIME   =   0.40     timestep for ELM

  volume/ion in A,a.u.               =      91.73       619.03
  Fermi-wavevector in a.u.,A,eV,Ry     =   0.565930  1.069452  4.357625  0.320276
  Thomas-Fermi vector in A             =   1.604114

 Write flags
   LWAVE        =      F    write WAVECAR
   LDOWNSAMPLE  =      F    k-point downsampling of WAVECAR
   LCHARG       =      F    write CHGCAR
   LVTOT        =      F    write LOCPOT, total local potential
   LVHAR        =      F    write LOCPOT, Hartree potential only
   WRT_POTENTIAL= false  ! write potential to hdf5 file
   LELF         =      F    write electronic localiz. function (ELF)
   LORBIT       =     11    0 simple, 1 ext, 2 COOP (PROOUT), +10 PAW based schemes


 Python interface
   PLUGINS active      =      F    recompile with -DPLUGINS to activate

 Dipole corrections
   LMONO      =      F    monopole corrections only (constant potential shift)
   LDIPOL     =      F    correct potential (dipole corrections)
   IDIPOL     =      0    1-x, 2-y, 3-z, 4-all directions 
   EPSILON    =  1.0000000 bulk dielectric constant
   LVACPOTAV  =      F  vacuum potentials using an averaging scheme for the charge density
   VACPOTFLAT =  0.1000000 required flatness to determine vacuum potential

Coulomb truncation method
  LTRUNCATE          =      F  Coulomb kernel truncation to be used
  IDIMENSIONALITY    =      3  Dimensionality of cutoff (0 molecules / 2 surfaces)
  ISURFACE           =     -1  Direction of surface normal
  LCOARSEN           =      F  Coarsen the charge grid before padding, preferred


 Exchange correlation treatment:
   METAGGA = SCAN    functional components
   XC_C    = 1    coefficients multiplying the functional components
   LIBXC   =     F    Libxc                    
   VOSKOWN =     0    Vosko Wilk Nusair interpolation
   LHFCALC =     F    Hartree Fock is set to
   LHFONE  =     F    Hartree Fock one center treatment
   AEXX    =    0.0000 exact exchange contribution

 Parameters of functionals:
   SCAN:
     P1 =  0.000000E+00
     P2 =  0.000000E+00
     P3 =  0.000000E+00

 Accuracy and mixing parameters for tau-dependent meta-GGA functionals:
   LMAXTAU = 6
   LMIXTAU = T

 Van der Waals corrections
   IVDW    =     0    specifies the selected vdW correction

 Linear response parameters
   LEPSILON=     F    determine dielectric tensor
   LRPA    =     F    only Hartree local field effects (RPA)
   LNABLA  =     F    use nabla operator in PAW spheres
   LVEL    =     F    velocity operator in full k-point grid
   CSHIFT  =0.1000    complex shift for real part using Kramers Kronig
   OMEGAMAX=  -1.0    maximum frequency
   DEG_THRESHOLD= 0.2000000E-02 threshold for treating states as degnerate
   RTIME   =   -0.100 relaxation time in fs
  (WPLASMAI=    0.000 imaginary part of plasma frequency in eV, 0.658/RTIME)
   DFIELD  = 0.0000000 0.0000000 0.0000000 field for delta impulse in time

  Optional k-point grid parameters
   LKPOINTS_OPT  =     F    use optional k-point grid
   KPOINTS_OPT_MODE=     1    mode for optional k-point grid

 Orbital magnetization related:
   ORBITALMAG=     F  switch on orbital magnetization
   LCHIMAG   =     F  perturbation theory with respect to B field
   DQ        =  0.001000  dq finite difference perturbation B field
   LLRAUG    =     F  two centre corrections for induced B field
   LBONE     =     F  B-component reconstruction in AE one-centre
   LVGVCALC  =     T  calculate vGv susceptibility
   LVGVAPPL  =     F  apply vGv susceptibility instead of pGv for G=0

 Random number generation:
   RANDOM_GENERATOR = DEFAULT
   PCG_SEED         = not used


--------------------------------------------------------------------------------------------------------


 Static calculation
 charge density and potential will be updated during run
 non-spin polarized calculation
 Variant of blocked Davidson
 perform Loewdin sub-space diagonalisation
    ordering is kept fixed
    before iterative eigenvector-optimisation
 modified Broyden-mixing scheme, WC =      100.0
 initial mixing is a Kerker type mixing with AMIX =  0.4000 and BMIX =      1.0000
 Hartree-type preconditioning will be used
 using additional bands           36
 reciprocal scheme for non local part
 use partial core corrections
 calculate Harris-corrections to forces   (improved forces if not selfconsistent)
 use gradient corrections 
 use of overlap-Matrix (Vanderbilt PP)
 Gauss-broadening in eV      SIGMA  =   0.10


--------------------------------------------------------------------------------------------------------


  energy-cutoff  :     1200.00
  volume of cell :     5228.67
      direct lattice vectors                 reciprocal lattice vectors
    14.534204238  0.000000000  0.000000000     0.068803216  0.000000000  0.000000000
     0.000000000 14.534204238  0.000000000     0.000000000  0.068803216  0.000000000
     0.000000000  0.000000000 24.751890000     0.000000000  0.000000000  0.040400955

  length of vectors
    14.534204238 14.534204238 24.751890000     0.068803216  0.068803216  0.040400955



 old parameters found on file WAVECAR:
  energy-cutoff  :     1200.00
  volume of cell :     5228.67
      direct lattice vectors                 reciprocal lattice vectors
    14.534204238  0.000000000  0.000000000     0.068803216  0.000000000  0.000000000
     0.000000000 14.534204238  0.000000000     0.000000000  0.068803216  0.000000000
     0.000000000  0.000000000 24.751890000     0.000000000  0.000000000  0.040400955

  length of vectors


 k-points in units of 2pi/SCALE and weight: read from INCAR                         
   0.00000000  0.00000000  0.00000000       0.125
   0.03440161  0.00000000  0.00000000       0.125
   0.00000000  0.03440161  0.00000000       0.125
   0.03440161  0.03440161  0.00000000       0.125
   0.00000000  0.00000000  0.02020048       0.125
   0.03440161  0.00000000  0.02020048       0.125
   0.00000000  0.03440161  0.02020048       0.125
   0.03440161  0.03440161  0.02020048       0.125

 k-points in reciprocal lattice and weights: read from INCAR                         
   0.00000000  0.00000000  0.00000000       0.125
   0.50000000  0.00000000  0.00000000       0.125
   0.00000000  0.50000000  0.00000000       0.125
   0.50000000  0.50000000  0.00000000       0.125
   0.00000000  0.00000000  0.50000000       0.125
   0.50000000  0.00000000  0.50000000       0.125
   0.00000000  0.50000000  0.50000000       0.125
   0.50000000  0.50000000  0.50000000       0.125

 position of ions in fractional coordinates (direct lattice) 
   0.60754272  0.74855147  0.45289148
   0.80132354  0.94744781  0.42950086
   0.62620903  0.16144675  0.47413591
   0.66151472  0.00291345  0.45918918
   0.40220503  0.59862789  0.59117546
   0.77085060  0.13669273  0.58550882
   0.79759441  0.37419593  0.47476900
   0.91265403  0.31113571  0.42412531
   0.47881878  0.06363644  0.42048288
   0.52202445  0.50230407  0.56374968
   0.23268560  0.40425811  0.53694768
   0.73771497  0.27903282  0.54443721
   0.41187257  0.27116999  0.52439187
   0.06331059  0.34272877  0.43646392
   0.14248733  0.70593476  0.46879208
   0.58873743  0.74064598  0.58865040
   0.17741941  0.15717888  0.53853463
   0.08744614  0.78922105  0.59599045
   0.23374861  0.83979142  0.48683636
   0.64297294  0.60635999  0.55215178
   0.07082328  0.38390337  0.53419597
   0.89593484  0.13718536  0.52794110
   0.50701847  0.01201132  0.57106508
   0.96863232  0.83288358  0.43330109
   0.85932465  0.16160637  0.43532102
   0.66923513  0.99733702  0.58515774
   0.20891477  0.87928447  0.57523203
   0.69088062  0.85676517  0.54250362
   0.63509291  0.90641357  0.46028162
   0.48009990  0.94500530  0.48202703
   0.03306173  0.67270074  0.53388570
   0.22044344  0.12146313  0.44829950
   0.69041276  0.36072838  0.40400955
   0.20842214  0.57852290  0.42345886
   0.76862825  0.53512802  0.58883988
   0.98983747  0.51193996  0.55995441
   0.83541553  0.81298569  0.56691267
   0.00996931  0.01732087  0.53667659
   0.39162928  0.80898822  0.47235302
   0.63541422  0.64570030  0.46100641
   0.95883474  0.90173495  0.59138110
   0.27515920  0.26896347  0.57741045
   0.36957854  0.18019631  0.44775692
   0.85587761  0.50202129  0.51368158
   0.30153216  0.46307661  0.45940128
   0.54409171  0.34914123  0.44368208
   0.49840637  0.59223882  0.42925764
   0.60160776  0.24243433  0.50969966
   0.85739816  0.59621358  0.43956882
   0.46031829  0.46067194  0.48104650
   0.18000229  0.96801309  0.42819385
   0.02100913  0.98280578  0.44807770
   0.15087032  0.02245565  0.58391460
   0.50316618  0.17280753  0.57032493
   0.02998162  0.22931080  0.55498873
   0.42756796  0.74708597  0.55689444
   0.90227850  0.72884623  0.49499856

 position of ions in cartesian coordinates  (Angst):
   8.83015000 10.87960000 11.20992000
  11.64660000 13.77040000 10.63095800
   9.10145000  2.34650000 11.73576000
   9.61459000  0.04234470 11.36580000
   5.84573000  8.70058000 14.63271000
  11.20370000  1.98672000 14.49245000
  11.59240000  5.43864000 11.75143000
  13.26470000  4.52211000 10.49790300
   6.95925000  0.92490500 10.40774600
   7.58721000  7.30059000 13.95387000
   3.38190000  5.87557000 13.29047000
  10.72210000  4.05552000 13.47585000
   5.98624000  3.94124000 12.97969000
   0.92016900  4.98129000 10.80330700
   2.07094000 10.26020000 11.60349000
   8.55683000 10.76470000 14.57021000
   2.57865000  2.28447000 13.32975000
   1.27096000 11.47070000 14.75189000
   3.39735000 12.20570000 12.05012000
   9.34510000  8.81296000 13.66680000
   1.02936000  5.57973000 13.22236000
  13.02170000  1.99388000 13.06754000
   7.36911000  0.17457500 14.13494000
  14.07830000 12.10530000 10.72502100
  12.48960000  2.34882000 10.77501800
   9.72680000 14.49550000 14.48376000
   3.03641000 12.77970000 14.23808000
  10.04140000 12.45240000 13.42799000
   9.23057000 13.17400000 11.39284000
   6.97787000 13.73490000 11.93108000
   0.48052600  9.77717000 13.21468000
   3.20397000  1.76537000 11.09626000
  10.03460000  5.24290000 10.00000000
   3.02925000  8.40837000 10.48140700
  11.17140000  7.77766000 14.57490000
  14.38650000  7.44064000 13.85993000
  12.14210000 11.81610000 14.03216000
   0.14489600  0.25174500 13.28376000
   5.69202000 11.75800000 11.69163000
   9.23524000  9.38474000 11.41078000
  13.93590000 13.10600000 14.63780000
   3.99922000  3.90917000 14.29200000
   5.37153000  2.61901000 11.08283000
  12.43950000  7.29648000 12.71459000
   4.38253000  6.73045000 11.37105000
   7.90794000  5.07449000 10.98197000
   7.24394000  8.60772000 10.62493800
   8.74389000  3.52359000 12.61603000
  12.46160000  8.66549000 10.88015900
   6.69036000  6.69550000 11.90681000
   2.61619000 14.06930000 10.59860700
   0.30535100 14.28430000 11.09077000
   2.19278000  0.32637500 14.45299000
   7.31312000  2.51162000 14.11662000
   0.43575900  3.33285000 13.73702000
   6.21436000 10.85830000 13.78419000
  13.11390000 10.59320000 12.25215000



--------------------------------------------------------------------------------------------------------


 k-point     1 :   0.0000 0.0000 0.0000  plane waves:  493523
 k-point     2 :   0.5000 0.0000 0.0000  plane waves:  493558
 k-point     3 :   0.0000 0.5000 0.0000  plane waves:  493558
 k-point     4 :   0.5000 0.5000 0.0000  plane waves:  493660
 k-point     5 :   0.0000 0.0000 0.5000  plane waves:  493508
 k-point     6 :   0.5000 0.0000 0.5000  plane waves:  493584
 k-point     7 :   0.0000 0.5000 0.5000  plane waves:  493584
 k-point     8 :   0.5000 0.5000 0.5000  plane waves:  493544

 maximum and minimum number of plane-waves per node :     30921    30762

 maximum number of plane-waves:    493660
 maximum index in each direction: 
   IXMAX=   41   IYMAX=   41   IZMAX=   69
   IXMIN=  -41   IYMIN=  -41   IZMIN=  -70


 parallel 3D FFT for wavefunctions:
    minimum data exchange during FFTs selected (reduces bandwidth)
 parallel 3D FFT for charge:
    minimum data exchange during FFTs selected (reduces bandwidth)


 total amount of memory used by VASP MPI-rank0   329879. kBytes
=======================================================================

   base                                    :      30000. kBytes
   nonl-proj                               :      59814. kBytes
   fftplans                                :      95287. kBytes
   grid                                    :      73508. kBytes
   one-center                              :         12. kBytes
   wavefun                                 :      71258. kBytes

     INWAV:  cpu time     21.7364: real time     21.7531
 Broyden mixing: mesh for mixing (old mesh)
   NGX = 83   NGY = 83   NGZ =139
  (NGX  =336   NGY  =336   NGZ  =560)
  gives a total of 957571 points

 initial charge density was supplied:
 number of electron     215.9999999 magnetization 
 keeping initial charge density in first step


--------------------------------------------------------------------------------------------------------


 Maximum index for augmentation-charges        11132 (set IRDMAX)


--------------------------------------------------------------------------------------------------------


 First call to EWALD:  gamma=   0.102
 Maximum number of real-space cells   3x   3x   2
 Maximum number of reciprocal cells   2x   2x   4

    FEWALD:  cpu time      0.0126: real time      0.0127


--------------------------------------- Ionic step        1  -------------------------------------------




--------------------------------------- Iteration      1(   1)  ---------------------------------------


    POTLOK:  cpu time      1.8552: real time      1.8559
    SETDIJ:  cpu time      1.2348: real time      1.2355
    EDDIAG:  cpu time     41.7283: real time     41.7514
     EDDAV:  cpu time    179.5944: real time    179.6892
       DOS:  cpu time      0.0084: real time      0.0086
    CHARGE:  cpu time     23.5334: real time     23.5536
    MIXING:  cpu time      0.0444: real time      0.0451
    --------------------------------------------
      LOOP:  cpu time    247.9989: real time    248.1393

 eigenvalue-minimisations  :  2304
 total energy-change (2. order) :-0.5203382E+03  (-0.6331840E+00)
 number of electron     215.9999999 magnetization 
 augmentation part      -12.3636074 magnetization 

 Broyden mixing:
  rms(total) = 0.81355E+00    rms(broyden)= 0.24938E+02
  rms(prec ) = 0.85274E+00
  weight for this iteration     100.00
  WARNING: grid for Broyden might be to small

 Free energy of the ion-electron system (eV)
  ---------------------------------------------------
  alpha Z        PSCENC =        18.82865207
  Ewald energy   TEWEN  =     20448.33596929
  -Hartree energ DENC   =    -25115.79743059
  -exchange      EXHF   =         0.00000000
  -V(xc)+E(xc)   XCENC  =      -265.38127930
  PAW double counting   =     16880.34726067   -16351.07133531
  entropy T*S    EENTRO =        -0.15531549
  eigenvalues    EBANDS =     -1647.94045482
  atomic energy  EATOM  =      5512.49574450
  Solvation  Ediel_sol  =         0.00000000
  ---------------------------------------------------
  free energy    TOTEN  =      -520.33818897 eV

  energy without entropy =     -520.18287349  energy(sigma->0) =     -520.26053123


--------------------------------------------------------------------------------------------------------




--------------------------------------- Iteration      1(   2)  ---------------------------------------


    POTLOK:  cpu time      1.8249: real time      1.8459
    SETDIJ:  cpu time      1.2304: real time      1.2311
    EDDIAG:  cpu time     41.6844: real time     41.7073
     EDDAV:  cpu time    179.6489: real time    179.7445
       DOS:  cpu time      0.0024: real time      0.0024
    CHARGE:  cpu time     23.4004: real time     23.4208
    MIXING:  cpu time      0.0382: real time      0.0384
    --------------------------------------------
      LOOP:  cpu time    247.8297: real time    247.9904

 eigenvalue-minimisations  :  2304
 total energy-change (2. order) : 0.3877455E+02  (-0.5743981E+00)
 number of electron     215.9999999 magnetization 
 augmentation part      -12.3365794 magnetization 

 Broyden mixing:
  rms(total) = 0.55549E+00    rms(broyden)= 0.14301E+02
  rms(prec ) = 0.57485E+00
  weight for this iteration     100.00
  WARNING: grid for Broyden might be to small

 eigenvalues of (default mixing * dielectric matrix)
  average eigenvalue GAMMA=   0.6355
  0.6355

 Free energy of the ion-electron system (eV)
  ---------------------------------------------------
  alpha Z        PSCENC =        18.82865207
  Ewald energy   TEWEN  =     20448.33596929
  -Hartree energ DENC   =    -25107.48567262
  -exchange      EXHF   =         0.00000000
  -V(xc)+E(xc)   XCENC  =      -259.74989843
  PAW double counting   =     20069.01902567   -19539.61907060
  entropy T*S    EENTRO =        -0.14961048
  eigenvalues    EBANDS =     -1623.23877469
  atomic energy  EATOM  =      5512.49574450
  Solvation  Ediel_sol  =         0.00000000
  ---------------------------------------------------
  free energy    TOTEN  =      -481.56363530 eV

  energy without entropy =     -481.41402482  energy(sigma->0) =     -481.48883006


--------------------------------------------------------------------------------------------------------




--------------------------------------- Iteration      1(   3)  ---------------------------------------


    POTLOK:  cpu time      1.8511: real time      1.8526
    SETDIJ:  cpu time      1.2346: real time      1.2353
    EDDIAG:  cpu time     41.6982: real time     41.7151
     EDDAV:  cpu time    179.6430: real time    179.7247
       DOS:  cpu time      0.0029: real time      0.0029
    CHARGE:  cpu time     23.3727: real time     23.3920
    MIXING:  cpu time      0.0357: real time      0.0357
    --------------------------------------------
      LOOP:  cpu time    247.8382: real time    247.9583

 eigenvalue-minimisations  :  2304
 total energy-change (2. order) :-0.1481047E+01  (-0.4742351E+00)
 number of electron     215.9999999 magnetization 
 augmentation part      -12.2986231 magnetization 

 Broyden mixing:
  rms(total) = 0.28103E+00    rms(broyden)= 0.15643E+02
  rms(prec ) = 0.32328E+00
  weight for this iteration     100.00
  WARNING: grid for Broyden might be to small

 eigenvalues of (default mixing * dielectric matrix)
  average eigenvalue GAMMA=   0.7449
  0.8643  0.6256

 Free energy of the ion-electron system (eV)
  ---------------------------------------------------
  alpha Z        PSCENC =        18.82865207
  Ewald energy   TEWEN  =     20448.33596929
  -Hartree energ DENC   =    -25107.26570220
  -exchange      EXHF   =         0.00000000
  -V(xc)+E(xc)   XCENC  =      -261.29712334
  PAW double counting   =     23281.03600745   -22751.73035853
  entropy T*S    EENTRO =        -0.14766704
  eigenvalues    EBANDS =     -1623.30020404
  atomic energy  EATOM  =      5512.49574450
  Solvation  Ediel_sol  =         0.00000000
  ---------------------------------------------------
  free energy    TOTEN  =      -483.04468184 eV

  energy without entropy =     -482.89701479  energy(sigma->0) =     -482.97084832


--------------------------------------------------------------------------------------------------------




--------------------------------------- Iteration      1(   4)  ---------------------------------------


    POTLOK:  cpu time      1.8156: real time      1.8411
    SETDIJ:  cpu time      1.2344: real time      1.2350
    EDDIAG:  cpu time     41.7143: real time     41.7357
     EDDAV:  cpu time    184.5131: real time    184.6206
       DOS:  cpu time      0.0024: real time      0.0024
    CHARGE:  cpu time     23.3844: real time     23.4090
    MIXING:  cpu time      0.0375: real time      0.0375
    --------------------------------------------
      LOOP:  cpu time    252.7017: real time    252.8814

 eigenvalue-minimisations  :  2416
 total energy-change (2. order) : 0.4273153E-01  (-0.5659695E-01)
 number of electron     215.9999999 magnetization 
 augmentation part      -12.2928691 magnetization 

 Broyden mixing:
  rms(total) = 0.38871E-01    rms(broyden)= 0.17153E+01
  rms(prec ) = 0.47810E-01
  weight for this iteration     100.00
  WARNING: grid for Broyden might be to small

 eigenvalues of (default mixing * dielectric matrix)
  average eigenvalue GAMMA=   1.0213
  1.7063  0.7378  0.6198

 Free energy of the ion-electron system (eV)
  ---------------------------------------------------
  alpha Z        PSCENC =        18.82865207
  Ewald energy   TEWEN  =     20448.33596929
  -Hartree energ DENC   =    -25107.68378728
  -exchange      EXHF   =         0.00000000
  -V(xc)+E(xc)   XCENC  =      -261.58548102
  PAW double counting   =     26835.24948062   -26306.01546309
  entropy T*S    EENTRO =        -0.14862729
  eigenvalues    EBANDS =     -1622.47843811
  atomic energy  EATOM  =      5512.49574450
  Solvation  Ediel_sol  =         0.00000000
  ---------------------------------------------------
  free energy    TOTEN  =      -483.00195031 eV

  energy without entropy =     -482.85332301  energy(sigma->0) =     -482.92763666


--------------------------------------------------------------------------------------------------------




--------------------------------------- Iteration      1(   5)  ---------------------------------------


    POTLOK:  cpu time      1.8194: real time      1.8462
    SETDIJ:  cpu time      1.2270: real time      1.2277
    EDDIAG:  cpu time     41.7043: real time     41.7263
     EDDAV:  cpu time    199.1188: real time    199.2258
       DOS:  cpu time      0.0034: real time      0.0034
    CHARGE:  cpu time     23.3935: real time     23.4141
    MIXING:  cpu time      0.0367: real time      0.0367
    --------------------------------------------
      LOOP:  cpu time    267.3031: real time    267.4803

 eigenvalue-minimisations  :  2760
 total energy-change (2. order) :-0.2216970E-01  (-0.5239003E-02)
 number of electron     215.9999999 magnetization 
 augmentation part      -12.2949278 magnetization 

 Broyden mixing:
  rms(total) = 0.26658E-01    rms(broyden)= 0.33041E+00
  rms(prec ) = 0.30797E-01
  weight for this iteration     100.00
  WARNING: grid for Broyden might be to small

 eigenvalues of (default mixing * dielectric matrix)
  average eigenvalue GAMMA=   1.1286
  2.3935  0.8503  0.6566  0.6140

 Free energy of the ion-electron system (eV)
  ---------------------------------------------------
  alpha Z        PSCENC =        18.82865207
  Ewald energy   TEWEN  =     20448.33596929
  -Hartree energ DENC   =    -25107.44586010
  -exchange      EXHF   =         0.00000000
  -V(xc)+E(xc)   XCENC  =      -262.23109372
  PAW double counting   =     26547.67822902   -26018.42667844
  entropy T*S    EENTRO =        -0.14919130
  eigenvalues    EBANDS =     -1622.10989132
  atomic energy  EATOM  =      5512.49574450
  Solvation  Ediel_sol  =         0.00000000
  ---------------------------------------------------
  free energy    TOTEN  =      -483.02412000 eV

  energy without entropy =     -482.87492870  energy(sigma->0) =     -482.94952435


--------------------------------------------------------------------------------------------------------




--------------------------------------- Iteration      1(   6)  ---------------------------------------


    POTLOK:  cpu time      1.8197: real time      1.8495
    SETDIJ:  cpu time      1.2318: real time      1.2326
    EDDIAG:  cpu time     41.7057: real time     41.7284
     EDDAV:  cpu time    191.8887: real time    191.9966
       DOS:  cpu time      0.0056: real time      0.0056
    CHARGE:  cpu time     23.3907: real time     23.4109
    MIXING:  cpu time      0.0370: real time      0.0370
    --------------------------------------------
      LOOP:  cpu time    260.0792: real time    260.2607

 eigenvalue-minimisations  :  2592
 total energy-change (2. order) :-0.2171470E-02  (-0.1112763E-02)
 number of electron     215.9999999 magnetization 
 augmentation part      -12.2945131 magnetization 

 Broyden mixing:
  rms(total) = 0.17491E-01    rms(broyden)= 0.13699E+00
  rms(prec ) = 0.18505E-01
  weight for this iteration     100.00
  WARNING: grid for Broyden might be to small

 eigenvalues of (default mixing * dielectric matrix)
  average eigenvalue GAMMA=   1.1236
  2.5495  1.0914  0.7053  0.6228  0.6489

 Free energy of the ion-electron system (eV)
  ---------------------------------------------------
  alpha Z        PSCENC =        18.82865207
  Ewald energy   TEWEN  =     20448.33596929
  -Hartree energ DENC   =    -25107.52291870
  -exchange      EXHF   =         0.00000000
  -V(xc)+E(xc)   XCENC  =      -262.33990423
  PAW double counting   =     26505.40946938   -25976.15368901
  entropy T*S    EENTRO =        -0.14893075
  eigenvalues    EBANDS =     -1621.93068403
  atomic energy  EATOM  =      5512.49574450
  Solvation  Ediel_sol  =         0.00000000
  ---------------------------------------------------
  free energy    TOTEN  =      -483.02629147 eV

  energy without entropy =     -482.87736073  energy(sigma->0) =     -482.95182610


--------------------------------------------------------------------------------------------------------




--------------------------------------- Iteration      1(   7)  ---------------------------------------


    POTLOK:  cpu time      1.8151: real time      1.8411
    SETDIJ:  cpu time      1.2312: real time      1.2317
    EDDIAG:  cpu time     41.7230: real time     41.7453
     EDDAV:  cpu time    185.0180: real time    185.1146
       DOS:  cpu time      0.0038: real time      0.0038
    CHARGE:  cpu time     23.4046: real time     23.4241
    MIXING:  cpu time      0.0375: real time      0.0375
    --------------------------------------------
      LOOP:  cpu time    253.2331: real time    253.3982

 eigenvalue-minimisations  :  2432
 total energy-change (2. order) :-0.1041965E-02  (-0.5677545E-03)
 number of electron     215.9999999 magnetization 
 augmentation part      -12.2929958 magnetization 

 Broyden mixing:
  rms(total) = 0.48329E-02    rms(broyden)= 0.61213E-01
  rms(prec ) = 0.54570E-02
  weight for this iteration     100.00
  WARNING: grid for Broyden might be to small

 eigenvalues of (default mixing * dielectric matrix)
  average eigenvalue GAMMA=   1.1156
  2.5810  1.3200  0.8657  0.6591  0.6591  0.6090

 Free energy of the ion-electron system (eV)
  ---------------------------------------------------
  alpha Z        PSCENC =        18.82865207
  Ewald energy   TEWEN  =     20448.33596929
  -Hartree energ DENC   =    -25107.31990359
  -exchange      EXHF   =         0.00000000
  -V(xc)+E(xc)   XCENC  =      -262.22633667
  PAW double counting   =     26508.10146269   -25978.83984364
  entropy T*S    EENTRO =        -0.14898544
  eigenvalues    EBANDS =     -1622.25409265
  atomic energy  EATOM  =      5512.49574450
  Solvation  Ediel_sol  =         0.00000000
  ---------------------------------------------------
  free energy    TOTEN  =      -483.02733344 eV

  energy without entropy =     -482.87834800  energy(sigma->0) =     -482.95284072


--------------------------------------------------------------------------------------------------------




--------------------------------------- Iteration      1(   8)  ---------------------------------------


    POTLOK:  cpu time      1.8201: real time      1.8446
    SETDIJ:  cpu time      1.2366: real time      1.2373
    EDDIAG:  cpu time     41.7038: real time     41.7262
     EDDAV:  cpu time    189.8660: real time    189.9703
       DOS:  cpu time      0.0031: real time      0.0031
    CHARGE:  cpu time     23.3821: real time     23.4010
    MIXING:  cpu time      0.0379: real time      0.0379
    --------------------------------------------
      LOOP:  cpu time    258.0496: real time    258.2204

 eigenvalue-minimisations  :  2544
 total energy-change (2. order) :-0.2460117E-03  (-0.9541663E-04)
 number of electron     215.9999999 magnetization 
 augmentation part      -12.2930226 magnetization 

 Broyden mixing:
  rms(total) = 0.19200E-02    rms(broyden)= 0.38425E-01
  rms(prec ) = 0.25505E-02
  weight for this iteration     100.00
  WARNING: grid for Broyden might be to small

 eigenvalues of (default mixing * dielectric matrix)
  average eigenvalue GAMMA=   1.2084
  2.6535  2.0730  1.0645  0.7530  0.7076  0.6269  0.5804

 Free energy of the ion-electron system (eV)
  ---------------------------------------------------
  alpha Z        PSCENC =        18.82865207
  Ewald energy   TEWEN  =     20448.33596929
  -Hartree energ DENC   =    -25107.09586228
  -exchange      EXHF   =         0.00000000
  -V(xc)+E(xc)   XCENC  =      -262.23107065
  PAW double counting   =     26531.71802106   -26002.45419556
  entropy T*S    EENTRO =        -0.14888919
  eigenvalues    EBANDS =     -1622.47594869
  atomic energy  EATOM  =      5512.49574450
  Solvation  Ediel_sol  =         0.00000000
  ---------------------------------------------------
  free energy    TOTEN  =      -483.02757945 eV

  energy without entropy =     -482.87869026  energy(sigma->0) =     -482.95313486


--------------------------------------------------------------------------------------------------------




--------------------------------------- Iteration      1(   9)  ---------------------------------------


    POTLOK:  cpu time      1.8208: real time      1.8490
    SETDIJ:  cpu time      1.2328: real time      1.2335
    EDDIAG:  cpu time     41.7269: real time     41.7465
     EDDAV:  cpu time    185.0863: real time    185.1846
       DOS:  cpu time      0.0039: real time      0.0039
    CHARGE:  cpu time     23.4044: real time     23.4245
    MIXING:  cpu time      0.0387: real time      0.0387
    --------------------------------------------
      LOOP:  cpu time    253.3139: real time    253.4809

 eigenvalue-minimisations  :  2432
 total energy-change (2. order) :-0.2105496E-04  (-0.4708000E-04)
 number of electron     215.9999999 magnetization 
 augmentation part      -12.2931972 magnetization 

 Broyden mixing:
  rms(total) = 0.13610E-02    rms(broyden)= 0.23443E-01
  rms(prec ) = 0.17391E-02
  weight for this iteration     100.00
  WARNING: grid for Broyden might be to small

 eigenvalues of (default mixing * dielectric matrix)
  average eigenvalue GAMMA=   1.2836
  3.2271  2.5078  1.1853  0.8692  0.6676  0.6676  0.6041  0.5403

 Free energy of the ion-electron system (eV)
  ---------------------------------------------------
  alpha Z        PSCENC =        18.82865207
  Ewald energy   TEWEN  =     20448.33596929
  -Hartree energ DENC   =    -25106.93771203
  -exchange      EXHF   =         0.00000000
  -V(xc)+E(xc)   XCENC  =      -262.25284888
  PAW double counting   =     26532.17261888   -26002.90806438
  entropy T*S    EENTRO =        -0.14892067
  eigenvalues    EBANDS =     -1622.61303929
  atomic energy  EATOM  =      5512.49574450
  Solvation  Ediel_sol  =         0.00000000
  ---------------------------------------------------
  free energy    TOTEN  =      -483.02760051 eV

  energy without entropy =     -482.87867983  energy(sigma->0) =     -482.95314017


--------------------------------------------------------------------------------------------------------




--------------------------------------- Iteration      1(  10)  ---------------------------------------


    POTLOK:  cpu time      1.8452: real time      1.8716
    SETDIJ:  cpu time      1.2303: real time      1.2309
    EDDIAG:  cpu time     41.7143: real time     41.7347
     EDDAV:  cpu time    185.2056: real time    185.3000
       DOS:  cpu time      0.0034: real time      0.0034
    CHARGE:  cpu time     23.3947: real time     23.4161
    MIXING:  cpu time      0.0393: real time      0.0393
    --------------------------------------------
      LOOP:  cpu time    253.4327: real time    253.5959

 eigenvalue-minimisations  :  2432
 total energy-change (2. order) :-0.9072904E-04  (-0.3418519E-04)
 number of electron     215.9999999 magnetization 
 augmentation part      -12.2932717 magnetization 

 Broyden mixing:
  rms(total) = 0.70696E-03    rms(broyden)= 0.19573E-01
  rms(prec ) = 0.10346E-02
  weight for this iteration     100.00
  WARNING: grid for Broyden might be to small

 eigenvalues of (default mixing * dielectric matrix)
  average eigenvalue GAMMA=   1.3894
  4.2164  2.5934  1.4425  1.0244  0.8230  0.6963  0.6288  0.5831  0.4964

 Free energy of the ion-electron system (eV)
  ---------------------------------------------------
  alpha Z        PSCENC =        18.82865207
  Ewald energy   TEWEN  =     20448.33596929
  -Hartree energ DENC   =    -25106.72989984
  -exchange      EXHF   =         0.00000000
  -V(xc)+E(xc)   XCENC  =      -262.26354234
  PAW double counting   =     26528.55179201   -25999.28655223
  entropy T*S    EENTRO =        -0.14891599
  eigenvalues    EBANDS =     -1622.81093870
  atomic energy  EATOM  =      5512.49574450
  Solvation  Ediel_sol  =         0.00000000
  ---------------------------------------------------
  free energy    TOTEN  =      -483.02769124 eV

  energy without entropy =     -482.87877525  energy(sigma->0) =     -482.95323324


--------------------------------------------------------------------------------------------------------




--------------------------------------- Iteration      1(  11)  ---------------------------------------


    POTLOK:  cpu time      1.8195: real time      1.8474
    SETDIJ:  cpu time      1.2272: real time      1.2280
    EDDIAG:  cpu time     41.7101: real time     41.7318
     EDDAV:  cpu time    185.1081: real time    185.2099
       DOS:  cpu time      0.0025: real time      0.0025
    CHARGE:  cpu time     23.3826: real time     23.4053
    MIXING:  cpu time      0.0401: real time      0.0402
    --------------------------------------------
      LOOP:  cpu time    253.2902: real time    253.4652

 eigenvalue-minimisations  :  2432
 total energy-change (2. order) :-0.1549249E-03  (-0.3086954E-04)
 number of electron     215.9999999 magnetization 
 augmentation part      -12.2933274 magnetization 

 Broyden mixing:
  rms(total) = 0.39776E-03    rms(broyden)= 0.16379E-01
  rms(prec ) = 0.68106E-03
  weight for this iteration     100.00
  WARNING: grid for Broyden might be to small

 eigenvalues of (default mixing * dielectric matrix)
  average eigenvalue GAMMA=   1.5338
  5.7325  2.6284  1.8919  1.1330  0.8880  0.6952  0.6645  0.6006  0.6006  0.5034

 Free energy of the ion-electron system (eV)
  ---------------------------------------------------
  alpha Z        PSCENC =        18.82865207
  Ewald energy   TEWEN  =     20448.33596929
  -Hartree energ DENC   =    -25106.49463069
  -exchange      EXHF   =         0.00000000
  -V(xc)+E(xc)   XCENC  =      -262.26913309
  PAW double counting   =     26528.30192543   -25999.03639794
  entropy T*S    EENTRO =        -0.14889690
  eigenvalues    EBANDS =     -1623.04107883
  atomic energy  EATOM  =      5512.49574450
  Solvation  Ediel_sol  =         0.00000000
  ---------------------------------------------------
  free energy    TOTEN  =      -483.02784616 eV

  energy without entropy =     -482.87894926  energy(sigma->0) =     -482.95339771


--------------------------------------------------------------------------------------------------------




--------------------------------------- Iteration      1(  12)  ---------------------------------------


    POTLOK:  cpu time      1.8205: real time      1.8455
    SETDIJ:  cpu time      1.2330: real time      1.2338
    EDDIAG:  cpu time     41.7166: real time     41.7386
     EDDAV:  cpu time    185.0958: real time    185.1919
       DOS:  cpu time      0.0029: real time      0.0029
    CHARGE:  cpu time     23.4279: real time     23.4476
    MIXING:  cpu time      0.0407: real time      0.0407
    --------------------------------------------
      LOOP:  cpu time    253.3373: real time    253.5009

 eigenvalue-minimisations  :  2432
 total energy-change (2. order) :-0.1437350E-03  (-0.2497570E-04)
 number of electron     215.9999999 magnetization 
 augmentation part      -12.2934068 magnetization 

 Broyden mixing:
  rms(total) = 0.28506E-03    rms(broyden)= 0.14186E-01
  rms(prec ) = 0.53203E-03
  weight for this iteration     100.00
  WARNING: grid for Broyden might be to small

 eigenvalues of (default mixing * dielectric matrix)
  average eigenvalue GAMMA=   1.6545
  7.3932  2.6095  2.2710  1.1719  0.8953  0.8953  0.7046  0.6287  0.5678  0.5311
  0.5311

 Free energy of the ion-electron system (eV)
  ---------------------------------------------------
  alpha Z        PSCENC =        18.82865207
  Ewald energy   TEWEN  =     20448.33596929
  -Hartree energ DENC   =    -25106.34455709
  -exchange      EXHF   =         0.00000000
  -V(xc)+E(xc)   XCENC  =      -262.27630328
  PAW double counting   =     26529.14764004   -25999.88231252
  entropy T*S    EENTRO =        -0.14891850
  eigenvalues    EBANDS =     -1623.18390440
  atomic energy  EATOM  =      5512.49574450
  Solvation  Ediel_sol  =         0.00000000
  ---------------------------------------------------
  free energy    TOTEN  =      -483.02798990 eV

  energy without entropy =     -482.87907139  energy(sigma->0) =     -482.95353065


--------------------------------------------------------------------------------------------------------




--------------------------------------- Iteration      1(  13)  ---------------------------------------


    POTLOK:  cpu time      1.8162: real time      1.8452
    SETDIJ:  cpu time      1.2271: real time      1.2280
    EDDIAG:  cpu time     41.7093: real time     41.7329
     EDDAV:  cpu time    185.1049: real time    185.2034
       DOS:  cpu time      0.0031: real time      0.0031
    CHARGE:  cpu time     23.4099: real time     23.4304
    MIXING:  cpu time      0.0417: real time      0.0417
    --------------------------------------------
      LOOP:  cpu time    253.3122: real time    253.4847

 eigenvalue-minimisations  :  2432
 total energy-change (2. order) :-0.1320356E-03  (-0.2792839E-04)
 number of electron     215.9999999 magnetization 
 augmentation part      -12.2934338 magnetization 

 Broyden mixing:
  rms(total) = 0.20913E-03    rms(broyden)= 0.10844E-01
  rms(prec ) = 0.38676E-03
  weight for this iteration     100.00
  WARNING: grid for Broyden might be to small

 eigenvalues of (default mixing * dielectric matrix)
  average eigenvalue GAMMA=   1.8229
  9.3595  2.7180  2.7180  1.4420  1.1005  0.8728  0.6962  0.6962  0.6344  0.5925
  0.5646  0.4802

 Free energy of the ion-electron system (eV)
  ---------------------------------------------------
  alpha Z        PSCENC =        18.82865207
  Ewald energy   TEWEN  =     20448.33596929
  -Hartree energ DENC   =    -25106.19118769
  -exchange      EXHF   =         0.00000000
  -V(xc)+E(xc)   XCENC  =      -262.27952797
  PAW double counting   =     26529.34561107   -26000.08053497
  entropy T*S    EENTRO =        -0.14889493
  eigenvalues    EBANDS =     -1623.33395330
  atomic energy  EATOM  =      5512.49574450
  Solvation  Ediel_sol  =         0.00000000
  ---------------------------------------------------
  free energy    TOTEN  =      -483.02812193 eV

  energy without entropy =     -482.87922700  energy(sigma->0) =     -482.95367447


--------------------------------------------------------------------------------------------------------




--------------------------------------- Iteration      1(  14)  ---------------------------------------


    POTLOK:  cpu time      1.8494: real time      1.8503
    SETDIJ:  cpu time      1.2245: real time      1.2253
    EDDIAG:  cpu time     41.7169: real time     41.7360
     EDDAV:  cpu time    185.1043: real time    185.2052
       DOS:  cpu time      0.0031: real time      0.0031
    CHARGE:  cpu time     23.4077: real time     23.4271
    MIXING:  cpu time      0.0422: real time      0.0422
    --------------------------------------------
      LOOP:  cpu time    253.3482: real time    253.4892

 eigenvalue-minimisations  :  2432
 total energy-change (2. order) :-0.1469108E-03  (-0.2713269E-04)
 number of electron     215.9999999 magnetization 
 augmentation part      -12.2934857 magnetization 

 Broyden mixing:
  rms(total) = 0.15757E-03    rms(broyden)= 0.71098E-02
  rms(prec ) = 0.25869E-03
  weight for this iteration     100.00
  WARNING: grid for Broyden might be to small

 eigenvalues of (default mixing * dielectric matrix)
  average eigenvalue GAMMA=   1.7834
  9.7224  2.8409  2.7045  1.5331  1.0975  0.8496  0.8496  0.7197  0.6180  0.6136
  0.6136  0.5532  0.4685

 Free energy of the ion-electron system (eV)
  ---------------------------------------------------
  alpha Z        PSCENC =        18.82865207
  Ewald energy   TEWEN  =     20448.33596929
  -Hartree energ DENC   =    -25106.02614087
  -exchange      EXHF   =         0.00000000
  -V(xc)+E(xc)   XCENC  =      -262.28267321
  PAW double counting   =     26528.89627807   -25999.63143118
  entropy T*S    EENTRO =        -0.14890688
  eigenvalues    EBANDS =     -1623.49576063
  atomic energy  EATOM  =      5512.49574450
  Solvation  Ediel_sol  =         0.00000000
  ---------------------------------------------------
  free energy    TOTEN  =      -483.02826884 eV

  energy without entropy =     -482.87936196  energy(sigma->0) =     -482.95381540


--------------------------------------------------------------------------------------------------------




--------------------------------------- Iteration      1(  15)  ---------------------------------------


    POTLOK:  cpu time      1.8399: real time      1.8628
    SETDIJ:  cpu time      1.2344: real time      1.2351
    EDDIAG:  cpu time     41.7197: real time     41.7403
     EDDAV:  cpu time    185.0868: real time    185.1926
       DOS:  cpu time      0.0122: real time      0.0123
    CHARGE:  cpu time     23.3990: real time     23.4211
    MIXING:  cpu time      0.0570: real time      0.0572
    --------------------------------------------
      LOOP:  cpu time    253.3489: real time    253.5214

 eigenvalue-minimisations  :  2432
 total energy-change (2. order) :-0.7001393E-04  (-0.1304372E-04)
 number of electron     215.9999999 magnetization 
 augmentation part      -12.2935077 magnetization 

 Broyden mixing:
  rms(total) = 0.10389E-03    rms(broyden)= 0.47039E-02
  rms(prec ) = 0.16362E-03
  weight for this iteration     100.00
  WARNING: grid for Broyden might be to small

 eigenvalues of (default mixing * dielectric matrix)
  average eigenvalue GAMMA=   1.7703
  9.8952  2.9963  2.6803  1.7313  1.2779  1.0644  0.8553  0.7461  0.6871  0.6489
  0.6026  0.6026  0.5297  0.4661

 Free energy of the ion-electron system (eV)
  ---------------------------------------------------
  alpha Z        PSCENC =        18.82865207
  Ewald energy   TEWEN  =     20448.33596929
  -Hartree energ DENC   =    -25105.92285931
  -exchange      EXHF   =         0.00000000
  -V(xc)+E(xc)   XCENC  =      -262.28423835
  PAW double counting   =     26529.03816144   -25999.77347870
  entropy T*S    EENTRO =        -0.14889985
  eigenvalues    EBANDS =     -1623.59738995
  atomic energy  EATOM  =      5512.49574450
  Solvation  Ediel_sol  =         0.00000000
  ---------------------------------------------------
  free energy    TOTEN  =      -483.02833886 eV

  energy without entropy =     -482.87943901  energy(sigma->0) =     -482.95388893


--------------------------------------------------------------------------------------------------------




--------------------------------------- Iteration      1(  16)  ---------------------------------------


    POTLOK:  cpu time      1.8296: real time      1.8552
    SETDIJ:  cpu time      1.2407: real time      1.2422
    EDDIAG:  cpu time     41.4840: real time     41.5066
     EDDAV:  cpu time    185.8927: real time    185.9965
       DOS:  cpu time      0.0026: real time      0.0026
    CHARGE:  cpu time     23.4083: real time     23.4300
    MIXING:  cpu time      0.0441: real time      0.0441
    --------------------------------------------
      LOOP:  cpu time    253.9018: real time    254.0771

 eigenvalue-minimisations  :  2448
 total energy-change (2. order) :-0.4113873E-04  (-0.5146767E-05)
 number of electron     215.9999999 magnetization 
 augmentation part      -12.2935248 magnetization 

 Broyden mixing:
  rms(total) = 0.68408E-04    rms(broyden)= 0.34631E-02
  rms(prec ) = 0.10787E-03
  weight for this iteration     100.00
  WARNING: grid for Broyden might be to small

 eigenvalues of (default mixing * dielectric matrix)
  average eigenvalue GAMMA=   1.7480
  9.9581  3.1495  2.6578  2.0529  1.4284  1.0306  0.9400  0.8642  0.6691  0.6406
  0.6406  0.6240  0.5620  0.5320  0.4696

 Free energy of the ion-electron system (eV)
  ---------------------------------------------------
  alpha Z        PSCENC =        18.82865207
  Ewald energy   TEWEN  =     20448.33596929
  -Hartree energ DENC   =    -25105.86091036
  -exchange      EXHF   =         0.00000000
  -V(xc)+E(xc)   XCENC  =      -262.28466013
  PAW double counting   =     26529.26355000   -25999.99891976
  entropy T*S    EENTRO =        -0.14890149
  eigenvalues    EBANDS =     -1623.65890411
  atomic energy  EATOM  =      5512.49574450
  Solvation  Ediel_sol  =         0.00000000
  ---------------------------------------------------
  free energy    TOTEN  =      -483.02837999 eV

  energy without entropy =     -482.87947851  energy(sigma->0) =     -482.95392925


--------------------------------------------------------------------------------------------------------




--------------------------------------- Iteration      1(  17)  ---------------------------------------


    POTLOK:  cpu time      1.8255: real time      1.8489
    SETDIJ:  cpu time      1.2312: real time      1.2317
    EDDIAG:  cpu time     41.7241: real time     41.7450
     EDDAV:  cpu time    186.8052: real time    186.9012
       DOS:  cpu time      0.0023: real time      0.0024
    CHARGE:  cpu time     23.4106: real time     23.4319
    MIXING:  cpu time      0.0449: real time      0.0449
    --------------------------------------------
      LOOP:  cpu time    255.0438: real time    255.2060

 eigenvalue-minimisations  :  2472
 total energy-change (2. order) :-0.1704184E-04  (-0.2186812E-05)
 number of electron     215.9999999 magnetization 
 augmentation part      -12.2935316 magnetization 

 Broyden mixing:
  rms(total) = 0.50153E-04    rms(broyden)= 0.27936E-02
  rms(prec ) = 0.78036E-04
  weight for this iteration     100.00
  WARNING: grid for Broyden might be to small

 eigenvalues of (default mixing * dielectric matrix)
  average eigenvalue GAMMA=   1.7158
  9.9840  3.2618  2.6472  2.3243  1.4708  1.1115  0.9453  0.9453  0.7730  0.6507
  0.6256  0.6080  0.6080  0.5491  0.4744  0.4744

 Free energy of the ion-electron system (eV)
  ---------------------------------------------------
  alpha Z        PSCENC =        18.82865207
  Ewald energy   TEWEN  =     20448.33596929
  -Hartree energ DENC   =    -25105.83012042
  -exchange      EXHF   =         0.00000000
  -V(xc)+E(xc)   XCENC  =      -262.28482133
  PAW double counting   =     26529.22172679   -25999.95708261
  entropy T*S    EENTRO =        -0.14890265
  eigenvalues    EBANDS =     -1623.68956267
  atomic energy  EATOM  =      5512.49574450
  Solvation  Ediel_sol  =         0.00000000
  ---------------------------------------------------
  free energy    TOTEN  =      -483.02839704 eV

  energy without entropy =     -482.87949439  energy(sigma->0) =     -482.95394571


--------------------------------------------------------------------------------------------------------




--------------------------------------- Iteration      1(  18)  ---------------------------------------


    POTLOK:  cpu time      1.8270: real time      1.8518
    SETDIJ:  cpu time      1.2343: real time      1.2352
    EDDIAG:  cpu time     41.6974: real time     41.7190
     EDDAV:  cpu time    182.3450: real time    182.4419
       DOS:  cpu time      0.0029: real time      0.0029
    CHARGE:  cpu time     23.3912: real time     23.4134
    MIXING:  cpu time      0.0451: real time      0.0451
    --------------------------------------------
      LOOP:  cpu time    250.5429: real time    250.7092

 eigenvalue-minimisations  :  2368
 total energy-change (2. order) :-0.4743728E-05  (-0.9856055E-06)
 number of electron     215.9999999 magnetization 
 augmentation part      -12.2935371 magnetization 

 Broyden mixing:
  rms(total) = 0.33180E-04    rms(broyden)= 0.16743E-02
  rms(prec ) = 0.50885E-04
  weight for this iteration     100.00
  WARNING: grid for Broyden might be to small

 eigenvalues of (default mixing * dielectric matrix)
  average eigenvalue GAMMA=   1.7114
  9.9994  3.4828  2.6147  2.6147  1.5929  1.2835  1.0484  0.8823  0.8823  0.7415
  0.6474  0.6268  0.5970  0.5970  0.5412  0.4890  0.4523

 Free energy of the ion-electron system (eV)
  ---------------------------------------------------
  alpha Z        PSCENC =        18.82865207
  Ewald energy   TEWEN  =     20448.33596929
  -Hartree energ DENC   =    -25105.81487988
  -exchange      EXHF   =         0.00000000
  -V(xc)+E(xc)   XCENC  =      -262.28499616
  PAW double counting   =     26529.09161793   -25999.82694199
  entropy T*S    EENTRO =        -0.14890321
  eigenvalues    EBANDS =     -1623.70466433
  atomic energy  EATOM  =      5512.49574450
  Solvation  Ediel_sol  =         0.00000000
  ---------------------------------------------------
  free energy    TOTEN  =      -483.02840178 eV

  energy without entropy =     -482.87949857  energy(sigma->0) =     -482.95395017


--------------------------------------------------------------------------------------------------------




--------------------------------------- Iteration      1(  19)  ---------------------------------------


    POTLOK:  cpu time      1.8443: real time      1.8452
    SETDIJ:  cpu time      1.2260: real time      1.2268
    EDDIAG:  cpu time     41.7439: real time     41.7655
     EDDAV:  cpu time    172.1543: real time    172.2788
       DOS:  cpu time      0.0047: real time      0.0047
    --------------------------------------------
      LOOP:  cpu time    216.9737: real time    217.1214

 eigenvalue-minimisations  :  2128
 total energy-change (2. order) :-0.9913783E-06  (-0.3563475E-06)
 number of electron     215.9999999 magnetization 
 augmentation part      -12.2935371 magnetization 

 Free energy of the ion-electron system (eV)
[...]
--------------------------------------------------
tot         44.815  44.402   0.000  89.217

    CHARGE:  cpu time      5.8984: real time      5.9038
    FORLOC:  cpu time      0.1695: real time      0.1698
    FORNL :  cpu time     29.7112: real time     29.7250
    STRESS:  cpu time    383.3526: real time    383.7066
    FORCOR:  cpu time      1.8898: real time      1.8909
    FORHAR:  cpu time      0.5123: real time      0.5124
    MIXING:  cpu time      0.0440: real time      0.0440
    OFIELD:  cpu time      0.0029: real time      0.0032

  FORCE on cell =-STRESS in cart. coord.  units (eV):
  Direction    XX          YY          ZZ          XY          YZ          ZX
  --------------------------------------------------------------------------------------
  Alpha Z    18.82865    18.82865    18.82865
  Ewald   24078.02828 24029.66129-27659.37211    61.09097  -112.49557   -14.53959
  Hartree 24600.96679 24572.03716-24067.19774    26.33782   -44.41790    -7.54620
  E(xc)    -635.47744  -636.24962  -634.73403    -0.40703     0.37099    -0.36616
  Local  -51255.26130-51185.29385 49179.44058   -83.07327   163.44261    19.16116
  n-local  2026.74457  2035.11416  1970.61397     2.69588    -9.56826     2.38927
  augment  -303.50236  -304.11374  -298.26794     0.29679     0.85312    -0.06397
  Kinetic  1456.52619  1442.73467  1482.39302    -9.33415     5.15489    -3.20622
  Fock        0.00000     0.00000     0.00000     0.00000     0.00000     0.00000
  -------------------------------------------------------------------------------------
  Total     -13.14662   -27.28128    -8.29560    -2.39299     3.33988    -4.17170
  in kB      -4.02841    -8.35958    -2.54195    -0.73326     1.02341    -1.27830
  external pressure =       -4.98 kB  Pullay stress =        0.00 kB


 VOLUME and BASIS-vectors are now :
 -----------------------------------------------------------------------------
  energy-cutoff  :     1200.00
  volume of cell :     5228.67
      direct lattice vectors                 reciprocal lattice vectors
    14.534204238  0.000000000  0.000000000     0.068803216  0.000000000  0.000000000
     0.000000000 14.534204238  0.000000000     0.000000000  0.068803216  0.000000000
     0.000000000  0.000000000 24.751890000     0.000000000  0.000000000  0.040400955

  length of vectors
    14.534204238 14.534204238 24.751890000     0.068803216  0.068803216  0.040400955


 FORCES acting on ions
    electron-ion (+dipol)            ewald-force                    non-local-force                 convergence-correction
 -----------------------------------------------------------------------------------------------
   0.305E+01 -.131E+02 0.412E+02   -.332E+01 0.150E+02 -.416E+02   0.789E+00 -.225E+01 0.350E+00   -.185E-05 -.119E-05 0.905E-06
   0.356E+00 -.595E+00 0.464E+02   -.349E+00 0.114E+00 -.464E+02   -.611E-01 -.173E+00 0.766E-01   -.195E-04 0.418E-05 -.166E-04
   -.751E+01 0.174E+02 0.342E+02   0.808E+01 -.196E+02 -.360E+02   -.795E+00 0.223E+01 0.157E+01   0.890E-05 0.297E-06 -.245E-04
   -.111E+02 -.180E+02 0.350E+02   0.123E+02 0.220E+02 -.351E+02   -.957E+00 -.308E+01 0.876E-01   -.174E-04 0.307E-05 -.160E-04
   0.535E+02 0.107E+02 -.188E+03   -.537E+02 -.115E+02 0.189E+03   -.242E+00 0.722E+00 -.118E+01   0.325E-04 -.654E-05 0.491E-04
   0.197E+01 0.214E+01 -.194E+03   0.222E+00 -.320E+00 0.193E+03   -.254E+01 -.180E+01 0.899E+00   0.133E-04 0.168E-04 0.512E-04
   0.407E+01 -.106E+02 0.632E+02   -.332E+01 0.113E+02 -.646E+02   -.116E+01 -.132E+01 0.139E+01   0.216E-05 0.315E-04 -.334E-04
   -.157E+02 -.780E+01 0.203E+03   0.167E+02 0.745E+01 -.201E+03   -.107E+01 0.413E-01 -.278E+01   -.904E-04 0.821E-04 -.115E-05
   -.942E+01 0.498E+00 0.208E+03   0.106E+02 -.210E+01 -.212E+03   -.156E+01 0.213E+01 0.275E+01   0.715E-04 -.349E-04 -.117E-03
   0.356E+00 0.369E+02 -.155E+03   -.149E+01 -.360E+02 0.154E+03   0.896E+00 -.885E+00 0.131E+01   0.445E-04 0.277E-04 0.374E-04
   0.328E+00 -.422E+02 -.865E+02   -.322E+00 0.398E+02 0.853E+02   -.448E+00 0.229E+01 0.963E+00   -.226E-04 0.457E-04 0.476E-04
   -.105E+02 -.243E+02 -.123E+03   0.887E+01 0.235E+02 0.121E+03   0.213E+01 0.529E+00 0.224E+01   0.306E-04 0.775E-04 -.423E-05
   0.822E+01 -.246E+02 -.462E+02   -.105E+02 0.214E+02 0.484E+02   0.144E+01 0.308E+01 -.261E+01   0.512E-04 0.290E-04 -.849E-05
   -.360E+02 -.119E+02 0.175E+03   0.381E+02 0.119E+02 -.177E+03   -.994E+00 0.125E+00 0.222E+01   -.478E-04 0.318E-04 -.258E-04
   -.149E+02 0.192E+02 0.107E+03   0.146E+02 -.199E+02 -.105E+03   0.537E+00 0.784E+00 -.165E+01   -.556E-04 0.603E-05 -.203E-04
   0.744E+01 -.163E+02 -.197E+03   -.625E+01 0.145E+02 0.197E+03   -.148E+01 0.274E+01 -.437E+00   0.108E-04 -.303E-04 0.519E-04
   -.162E+02 -.103E+02 -.690E+02   0.162E+02 0.960E+01 0.694E+02   -.196E+00 0.119E+01 -.450E+00   -.404E-04 -.468E-04 0.649E-04
   -.144E+02 0.427E+02 -.210E+03   0.148E+02 -.412E+02 0.208E+03   -.186E+01 -.113E+01 0.124E+01   0.553E-05 0.517E-05 0.672E-04
   -.180E+02 0.135E+02 0.654E+02   0.189E+02 -.127E+02 -.637E+02   -.840E+00 -.584E+00 -.265E+01   0.175E-04 0.257E-04 0.347E-04
   -.113E+02 0.800E+01 -.998E+02   0.125E+02 -.782E+01 0.100E+03   -.836E+00 0.785E-01 -.456E+00   0.424E-05 -.188E-04 0.543E-04
   -.355E+01 -.179E+02 -.748E+02   0.439E+01 0.186E+02 0.738E+02   -.542E+00 -.898E+00 0.321E+00   -.928E-04 0.355E-05 0.155E-04
   0.888E+01 0.250E+00 -.451E+02   -.927E+01 -.190E+01 0.449E+02   0.152E+01 0.154E+01 0.772E+00   -.379E-04 0.588E-04 0.770E-04
   0.387E+02 0.134E+02 -.161E+03   -.386E+02 -.135E+02 0.160E+03   0.442E+00 0.247E+00 0.331E+00   0.804E-05 -.727E-04 0.400E-04
   0.156E+02 0.935E+01 0.198E+03   -.151E+02 -.972E+01 -.197E+03   -.222E+00 0.491E+00 -.777E+00   0.148E-04 -.410E-04 -.283E-04
   0.158E+02 0.390E+02 0.183E+03   -.174E+02 -.397E+02 -.183E+03   0.148E+01 0.898E-01 0.468E+00   -.671E-04 0.103E-03 -.544E-04
   -.111E+02 -.109E+02 -.181E+03   0.955E+01 0.820E+01 0.179E+03   0.102E+01 0.337E+01 0.147E+01   0.251E-05 -.259E-04 0.543E-04
   -.565E+02 0.116E+02 -.167E+03   0.551E+02 -.116E+02 0.165E+03   0.208E+01 -.376E+00 0.265E+01   0.900E-05 -.493E-05 0.848E-04
   -.564E+01 0.973E+01 -.644E+02   0.649E+01 -.780E+01 0.638E+02   -.102E+01 -.232E+01 0.170E+01   -.208E-04 -.311E-04 0.506E-04
   -.192E+02 0.228E+02 0.159E+03   0.180E+02 -.189E+02 -.155E+03   0.173E+01 -.378E+01 -.306E+01   -.418E-04 0.388E-04 -.286E-04
   0.241E+02 0.850E+01 0.608E+02   -.233E+02 -.682E+01 -.628E+02   -.107E+01 -.195E+01 0.207E+01   0.374E-04 -.372E-04 0.214E-05
   -.245E+02 0.375E+02 -.744E+02   0.231E+02 -.352E+02 0.716E+02   0.200E+01 -.297E+01 0.325E+01   -.372E-04 -.159E-04 0.471E-04
   0.345E+01 -.164E+02 0.158E+03   -.426E+01 0.158E+02 -.156E+03   0.718E+00 0.654E+00 -.105E+01   0.264E-04 -.314E-04 -.606E-04
   0.633E+00 -.632E+01 0.233E+03   -.384E+00 0.605E+01 -.236E+03   0.465E-01 0.262E+00 0.272E+01   0.443E-04 -.307E-05 -.402E-04
   0.474E+01 -.105E+01 0.184E+03   -.544E+01 0.136E+01 -.188E+03   0.560E+00 -.140E+00 0.320E+01   -.513E-04 0.860E-06 -.122E-03
   -.989E+01 0.141E+02 -.209E+03   0.946E+01 -.153E+02 0.211E+03   0.449E+00 0.889E+00 -.892E+00   -.904E-05 -.232E-04 0.887E-04
   -.280E+02 -.321E+01 -.152E+03   0.263E+02 0.157E+01 0.151E+03   0.203E+01 0.235E+01 0.327E+00   -.685E-04 -.366E-05 0.350E-04
   0.125E+02 0.142E+02 -.143E+03   -.114E+02 -.131E+02 0.140E+03   -.921E+00 -.166E+01 0.172E+01   -.114E-04 -.400E-04 0.771E-04
   0.150E+02 -.108E+02 -.614E+02   -.152E+02 0.909E+01 0.607E+02   -.439E+00 0.208E+01 0.147E+01   0.529E-05 -.177E-04 0.948E-04
   0.224E+01 0.199E+02 0.117E+03   -.237E+01 -.207E+02 -.116E+03   0.207E+00 0.219E+00 -.110E+01   0.507E-04 0.187E-04 0.295E-04
   -.296E+02 -.563E+01 0.139E+03   0.271E+02 0.518E+01 -.138E+03   0.332E+01 0.902E+00 -.122E+01   0.322E-04 -.366E-04 0.307E-04
   0.183E+02 -.599E+01 -.200E+03   -.174E+02 0.670E+01 0.198E+03   -.189E+00 -.181E+01 0.266E+01   -.114E-04 -.281E-04 0.905E-04
   -.566E+01 -.419E+01 -.194E+03   0.633E+01 0.473E+01 0.195E+03   -.197E+00 -.187E+00 -.335E-01   -.682E-05 0.158E-04 0.126E-03
   0.632E+01 -.119E+02 0.156E+03   -.638E+01 0.993E+01 -.154E+03   0.815E+00 0.148E+01 -.147E+01   0.183E-04 -.133E-04 -.759E-04
   -.661E+01 0.237E+01 -.159E+02   0.621E+01 -.827E+00 0.160E+02   0.629E-01 -.927E+00 0.841E-02   -.394E-04 -.631E-04 -.998E-06
   0.130E+02 -.420E+01 0.125E+03   -.140E+02 0.319E+01 -.124E+03   0.496E+00 0.950E+00 0.426E-01   0.301E-04 -.157E-04 -.550E-04
   0.140E+02 0.462E+01 0.166E+03   -.137E+02 -.388E+01 -.167E+03   -.108E+00 -.183E+01 -.363E-01   0.881E-04 0.360E-04 -.514E-04
   0.271E+02 -.236E+02 0.198E+03   -.262E+02 0.228E+02 -.199E+03   -.124E+01 0.875E+00 0.909E+00   0.409E-04 -.125E-04 0.144E-04
   0.197E+01 -.558E+01 -.957E+01   0.112E+01 0.321E+01 0.102E+02   -.348E+01 0.178E+01 -.140E+01   0.804E-04 0.653E-04 -.484E-04
   0.391E+00 -.102E+02 0.193E+03   0.118E+01 0.864E+01 -.195E+03   -.207E+01 0.249E+01 0.196E+01   -.522E-05 -.678E-04 -.721E-04
   0.231E+02 -.493E+01 0.562E+02   -.205E+02 0.686E+01 -.580E+02   -.347E+01 -.117E+01 0.167E+01   0.885E-04 0.758E-05 0.255E-04
   -.225E+02 0.114E+02 0.199E+03   0.221E+02 -.121E+02 -.200E+03   0.441E+00 0.512E+00 0.109E+01   0.313E-04 -.183E-04 -.560E-04
   0.243E+02 -.155E+02 0.170E+03   -.228E+02 0.144E+02 -.168E+03   -.126E+01 0.552E+00 -.359E+01   0.474E-04 -.728E-04 -.164E-04
   -.317E+02 -.126E+02 -.197E+03   0.303E+02 0.135E+02 0.195E+03   0.829E+00 -.214E+00 0.132E+01   0.107E-04 -.457E-04 0.117E-03
   0.989E+01 0.174E+01 -.181E+03   -.986E+01 -.603E+00 0.180E+03   0.591E-02 -.167E+01 0.161E+01   0.240E-04 -.248E-04 0.567E-04
   0.123E+02 -.188E+02 -.133E+03   -.117E+02 0.190E+02 0.133E+03   -.594E+00 0.213E-01 -.117E+01   -.587E-04 0.429E-04 0.664E-04
   0.312E+02 -.125E+02 -.118E+03   -.305E+02 0.104E+02 0.116E+03   0.287E-01 0.155E+01 0.194E+01   0.306E-04 0.137E-04 0.496E-04
   0.254E+02 0.261E+01 0.515E+02   -.238E+02 -.302E+01 -.511E+02   -.235E+01 0.401E+00 -.536E+00   -.115E-04 -.501E-04 0.353E-04
 -----------------------------------------------------------------------------------------------
   0.814E+01 -.652E+01 -.222E+02   0.249E-13 -.159E-12 -.639E-13   -.815E+01 0.653E+01 0.222E+02   0.147E-03 -.143E-03 0.790E-03


 POSITION                                       TOTAL-FORCE (eV/Angst)
 -----------------------------------------------------------------------------------
      8.83015     10.87960     11.20992         0.515535     -0.368607     -0.055787
     11.64660     13.77040     10.63096        -0.054143     -0.654281      0.057495
      9.10145      2.34650     11.73576        -0.219815     -0.003379     -0.234174
      9.61459      0.04234     11.36580         0.267183      0.963714     -0.001666
      5.84573      8.70058     14.63271        -0.214316      0.076088     -0.286914
     11.20370      1.98672     14.49245        -0.495815     -0.050696     -0.182105
     11.59240      5.43864     11.75143        -0.438215     -0.722015      0.120481
     13.26470      4.52211     10.49790        -0.140608     -0.384162      0.092229
      6.95925      0.92491     10.40775        -0.546161      0.634817     -0.016902
      7.58721      7.30059     13.95387        -0.287227      0.187576      0.060173
      3.38190      5.87557     13.29047        -0.515344     -0.144444     -0.283893
     10.72210      4.05552     13.47585         0.547740     -0.389249      0.740473
      5.98624      3.94124     12.97969        -0.689022     -0.154134     -0.582176
      0.92017      4.98129     10.80331         0.825896      0.180086      0.810679
      2.07094     10.26020     11.60349         0.339059      0.084372     -0.259780
      8.55683     10.76470     14.57021        -0.394302      0.951356     -0.738674
      2.57865      2.28447     13.32975        -0.182027      0.558860     -0.053338
      1.27096     11.47070     14.75189        -1.556828      0.471313     -0.354063
      3.39735     12.20570     12.05012         0.071798      0.211580     -1.137625
      9.34510      8.81296     13.66680         0.215927      0.269494     -0.152481
      1.02936      5.57973     13.22236         0.303051     -0.231302     -0.623167
     13.02170      1.99388     13.06754         1.242855      0.004738      0.581948
      7.36911      0.17458     14.13494         0.766711      0.386373     -0.228664
     14.07830     12.10530     10.72502         0.217263      0.230442      0.603502
     12.48960      2.34882     10.77502         0.153696     -0.460087      0.006566
      9.72680     14.49550     14.48376        -0.530946      0.924168     -0.586839
      3.03641     12.77970     14.23808         0.556229     -0.446834     -0.002141
     10.04140     12.45240     13.42799        -0.217408     -0.478983      1.255425
      9.23057     13.17400     11.39284         0.630974      0.048984      0.193037
      6.97787     13.73490     11.93108        -0.272400     -0.367605      0.117677
      0.48053      9.77717     13.21468         0.679797     -0.723856      0.586612
      3.20397      1.76537     11.09626         0.089094      0.034217      0.272798
     10.03460      5.24290     10.00000         0.271758      0.021495      0.069892
      3.02925      8.40837     10.48141        -0.040407      0.173694     -0.056725
     11.17140      7.77766     14.57490        -0.018910     -0.176785      0.407436
     14.38650      7.44064     13.85993         0.383503      0.804242     -0.291849
     12.14210     11.81610     14.03216         0.152124     -0.547267     -0.921907
      0.14490      0.25175     13.28376        -0.691927      0.440293      0.953508
      5.69202     11.75800     11.69163         0.051885     -0.401345      0.368172
      9.23524      9.38474     11.41078         0.795721      0.598482     -0.178319
     13.93590     13.10600     14.63780         0.692232     -1.305281      0.308945
      3.99922      3.90917     14.29200         0.427272      0.426795     -0.180559
      5.37153      2.61901     11.08283         0.800210     -0.494497      0.583379
     12.43950      7.29648     12.71459        -0.344133      0.560670      0.072198
      4.38253      6.73045     11.37105        -0.443152      0.110240      1.118716
      7.90794      5.07449     10.98197         0.306073     -1.143694     -0.034254
      7.24394      8.60772     10.62494        -0.287204      0.017526      0.237709
      8.74389      3.52359     12.61603        -0.591428     -0.543825     -0.900634
     12.46160      8.66549     10.88016        -0.637810      1.091193      0.162723
      6.69036      6.69550     11.90681        -0.974765      0.672045      0.005139
      2.61619     14.06930     10.59861        -0.050330     -0.114935      0.451278
      0.30535     14.28430     11.09077         0.169774     -0.613360     -1.267121
      2.19278      0.32637     14.45299        -0.630663      0.632276     -0.052400
      7.31312      2.51162     14.11662         0.030389     -0.610190      0.347588
      0.43576      3.33285     13.73702         0.041317      0.263932     -0.766039
      6.21436     10.85830     13.78419         0.756040     -0.540241     -0.035859
     13.11390     10.59320     12.25215        -0.835801      0.039992     -0.119723
 -----------------------------------------------------------------------------------
    total drift:                               -0.001847      0.006919      0.003870


--------------------------------------------------------------------------------------------------------



  FREE ENERGIE OF THE ION-ELECTRON SYSTEM (eV)
  ---------------------------------------------------
  free  energy   TOTEN  =      -483.02840277 eV

  energy  without entropy=     -482.87949971  energy(sigma->0) =     -482.95395124



--------------------------------------------------------------------------------------------------------


    POTLOK:  cpu time      3.0330: real time      3.0467


--------------------------------------------------------------------------------------------------------


     LOOP+:  cpu time   5211.2723: real time   5214.7893
    4ORBIT:  cpu time      0.0000: real time      0.0000



 total charge

# of ion       s       p       d       tot
------------------------------------------
    1        0.532   0.015   0.000   0.547
    2        0.386   0.001   0.000   0.387
    3        0.546   0.016   0.000   0.562
    4        0.581   0.019   0.000   0.600
    5        0.858   0.731   0.000   1.589
    6        0.794   0.825   0.000   1.619
    7        0.778   0.922   0.000   1.700
    8        0.804   0.888   0.000   1.692
    9        0.871   0.715   0.000   1.587
   10        0.825   0.828   0.000   1.653
   11        0.798   0.851   0.000   1.649
   12        0.812   0.852   0.000   1.665
   13        0.794   0.835   0.000   1.629
   14        0.881   0.705   0.000   1.586
   15        0.790   0.842   0.000   1.632
   16        0.814   0.795   0.000   1.609
   17        0.768   0.889   0.000   1.656
   18        0.803   0.829   0.000   1.632
   19        0.770   0.872   0.000   1.641
   20        0.772   0.943   0.000   1.714
   21        0.765   0.893   0.000   1.658
   22        0.772   0.874   0.000   1.646
   23        0.819   0.796   0.000   1.615
   24        0.846   0.723   0.000   1.569
   25        0.873   0.699   0.000   1.572
   26        0.806   0.800   0.000   1.606
   27        0.792   0.905   0.000   1.698
   28        0.762   0.922   0.000   1.684
   29        0.812   0.847   0.000   1.659
   30        0.778   0.890   0.000   1.668
   31        0.764   0.891   0.000   1.655
   32        0.805   0.828   0.000   1.633
   33        0.875   0.715   0.000   1.590
   34        0.849   0.736   0.000   1.585
   35        0.864   0.758   0.000   1.622
   36        0.805   0.847   0.000   1.652
   37        0.789   0.878   0.000   1.667
   38        0.779   0.913   0.000   1.691
   39        0.807   0.830   0.000   1.637
   40        0.794   0.874   0.000   1.668
   41        0.800   0.842   0.000   1.642
   42        0.827   0.833   0.000   1.660
   43        0.799   0.821   0.000   1.620
   44        0.765   1.003   0.000   1.767
   45        0.810   0.831   0.000   1.641
   46        0.814   0.852   0.000   1.667
   47        0.871   0.730   0.000   1.601
   48        0.766   0.954   0.000   1.720
   49        0.874   0.712   0.000   1.586
   50        0.758   0.923   0.000   1.681
   51        0.805   0.807   0.000   1.612
   52        0.797   0.865   0.000   1.662
   53        0.805   0.869   0.000   1.673
   54        0.808   0.877   0.000   1.685
   55        0.810   0.783   0.000   1.593
   56        0.805   0.808   0.000   1.612
   57        0.771   0.900   0.000   1.671
--------------------------------------------------
tot         44.815  44.402   0.000  89.217


 total amount of memory used by VASP MPI-rank0   329879. kBytes
=======================================================================

   base                                    :      30000. kBytes
   nonl-proj                               :      59814. kBytes
   fftplans                                :      95287. kBytes
   grid                                    :      73508. kBytes
   one-center                              :         12. kBytes
   wavefun                                 :      71258. kBytes

  
  
 General timing and accounting informations for this job:
 ========================================================
  
                  Total CPU time used (sec):     5341.608
                            User time (sec):     4700.956
                          System time (sec):      640.653
                         Elapsed time (sec):     5345.360
  
                   Maximum memory used (kb):      578436.
                   Average memory used (kb):          N/A
  
                          Minor page faults:     11384052
                          Major page faults:         1171
                 Voluntary context switches:         3051
