LAMMPS data file via write_data, version 2 Apr 2025, timestep = 6560000, units = metal

1000 atoms
2 atom types

-1.318699297921004 24.756286823004558 xlo xhi
-1.318699297921004 24.756286823004558 ylo yhi
-1.318699297921004 24.756286823004558 zlo zhi

Atom Type Labels

1 H
2 Si

Masses

1 1.00784
2 28.0855

Atoms # atomic

554 2 1.5333065061986249 2.0965923873488466 2.4324191648828895 1 0 1
823 2 2.1309082109624686 4.196400625715388 3.2537816772985133 0 0 0
875 2 -0.7591151943257725 2.376038068186964 2.005979508595676 0 0 0
370 2 0.15679858476302266 4.6011047941259084 4.450503986637911 0 1 1
546 2 -0.5620497578512423 4.727338424803304 -0.8747021545601599 0 0 1
905 2 -0.9944850562966032 2.5636885369909925 -0.3447378218492647 0 0 1
352 2 2.616906945470719 0.6929852115799897 4.012727574725008 0 0 0
483 2 2.709889906720945 0.5852245883781382 -0.7207426833829044 1 0 0
647 2 3.4671325207935784 2.183194405832551 0.8568181859117154 0 0 0
486 2 3.636288771243329 4.335463197227032 -0.3717632165769975 0 0 1
362 2 4.201344926827506 4.017570518843296 4.074784504886218 0 0 1
916 2 5.147988113143869 0.6544949208271253 3.8487902862118393 1 0 0
820 2 5.14407524301858 2.5135763066600747 2.4016181677462907 0 1 1
465 2 6.656881904945214 -0.893003648791116 2.5505754415944555 0 0 0
58 1 6.80086721802321 3.576383440489905 -0.34777097553057956 -2 1 1
314 1 10.36995751085749 1.2842010456707564 2.626112086195681 -2 1 1
959 2 7.100869094991236 3.421888847648491 1.088553209489783 0 0 1
248 1 7.143296507012524 0.082141339094437 1.5427527211485326 0 0 0
96 1 8.23445004459616 2.592367854765873 0.90538522697282 1 0 -1
242 1 10.777802662917471 1.4483983365689141 -0.8193547174226113 4 0 1
626 2 11.016729427519984 2.036330722653626 3.6494144170811227 0 0 0
710 2 11.18355475864643 4.429395205115791 3.563567846659513 0 1 0
112 1 8.039299903990289 2.6067573032690374 3.719672450709253 0 0 0
111 1 11.036879162095204 1.7562121736343976 -0.2571318765958024 0 1 2
97 1 6.106218075928934 -0.7543104248301571 -0.7350059508491308 0 1 1
38 1 11.621212951601324 -0.3861523083418724 0.506063403940127 -1 1 0
816 2 -1.1735745832379951 -1.2844086691486836 2.6219412793073444 0 1 1
975 2 7.799514801366614 2.7805743265852323 5.1267096644575565 0 0 0
192 1 9.774010041869097 3.6990219505113995 -1.0989886092756684 3 1 0
903 2 -0.013101945271978943 2.7554287338047345 5.746268033679391 0 1 0
433 2 1.90675209729494 1.56762317270687 6.081371799939513 1 0 0
989 2 1.7045780326318996 0.19014329936229224 7.969371091499875 0 1 0
542 2 0.021875588667819912 1.1734759164446253 9.129879760256559 0 1 0
965 2 -0.6292148923056193 3.173448843369406 8.016985124673424 0 0 0
246 1 0.26352563926335426 1.5266044770761278 10.61442622919657 0 1 -1
169 1 0.08929776253742427 4.223040701974896 8.746826961628118 -1 0 0
92 1 2.1989989393805605 3.6338209974044045 10.001857596749318 -2 1 0
288 1 1.587082302639899 3.509753703804969 10.37143754954914 -2 1 -1
40 1 2.7833094431123806 4.267752802391427 6.766147833997502 -2 1 0
231 1 4.0034324966106265 3.8347176002372763 9.790060351130128 -1 0 0
347 1 4.187850985364952 4.362071263660387 9.324746807095377 -3 1 0
635 2 6.371129364541999 1.0484593517301084 5.972449588398558 0 0 0
470 2 3.5082381784295125 3.1571204792843552 6.0581029459131805 0 0 1
261 1 4.34017962378016 0.49171459390687766 9.873892932412154 -1 1 -1
636 2 3.909524396006799 0.41125588483135234 8.515206907478088 1 1 0
638 2 5.0929738032229475 2.1998505693940587 7.508902544456946 0 1 0
194 1 5.938478969023008 3.200325980694524 8.297554283838982 2 0 1
445 2 6.984143558320376 -0.9395267371288284 6.658103758161717 1 0 0
70 1 7.420581603935526 1.807518709441232 10.424368633065399 2 1 0
277 1 7.15528253302346 1.9088422426836105 11.011887417212009 -2 1 1
125 1 7.176530215779254 4.589862664147843 10.742126262046655 -3 1 1
950 2 10.74028497115272 0.10716355499375951 6.705975788445242 0 1 0
154 1 8.583211116724451 3.637823485338269 8.868235451605827 1 -1 0
417 2 8.970248776916852 -0.7445089137463654 7.849360653450461 0 0 0
915 2 11.560715188187395 3.594663064242993 6.722449813210391 0 1 0
407 2 10.095756765080903 2.108078661068208 5.663010783312796 0 1 0
969 2 9.565079863138031 4.42794222356118 9.543704597787393 0 0 0
214 1 8.748974497290979 -0.1709150388999796 9.181960169207365 2 0 0
199 1 11.171049524160777 -1.1062225475958365 11.481754495067367 -2 0 0
8 1 2.9107722626984582 1.317827652131092 11.565417152154648 -2 1 0
132 1 2.4457459870900373 1.612563927234266 11.09108597681478 -1 0 0
545 2 7.5989704777321005 4.953801556509991 5.30152925582407 0 0 0
71 1 3.2049051022443287 -1.004864021328906 11.541709075016968 -2 1 0
148 1 7.040528475360972 4.7872211347133025 11.442109601857467 -1 1 -1
954 2 2.57481813779198 -0.5063455721382428 15.769909183737589 0 1 -1
5 1 1.1042913512207346 -0.17614679142519174 15.8858082713671 -1 1 0
332 1 1.631385722866387 2.676086930544677 16.86568503341003 2 1 0
158 1 0.17949703302241948 -0.19801180753533898 12.272705615921298 -4 1 0
225 1 1.8019941042627345 5.058622390405608 17.597738846303074 -2 0 -1
506 2 9.690127155163303 1.3022887804531762 15.341888030490548 0 0 -1
32 1 8.947190828188848 3.930780965248907 12.673934493606046 0 -1 -1
23 1 9.31032810783419 0.6351595782746033 12.674135746985046 2 0 -1
177 1 1.5869668187660757 2.730828967762819 16.13489879062461 1 1 0
348 1 10.016228752515469 1.4598447052990657 16.79251059686176 0 0 0
171 1 9.141940945886793 -0.48125152896392476 17.757110118139465 0 -1 0
337 1 8.520657773374298 0.42164202457484046 15.43935559793998 -1 0 1
264 1 11.370866735429125 4.638940696605228 14.2034647306636 -3 0 -1
52 1 -0.25160281544287466 -0.8108491238151088 14.568160975913704 1 -1 0
182 1 -0.5248995946360236 5.132622596991981 12.406083576882027 3 0 2
330 1 3.805476752781222 2.8334711077421044 16.417496229312047 1 1 0
88 1 3.9056808320656424 3.3014392701288937 15.869084776878452 3 -2 0
83 1 2.959442078436009 -0.40171596412700594 14.343483082208643 -1 0 0
193 1 3.5683370311418248 0.3969652642356609 16.566049902506816 -4 0 0
197 1 6.342673502160662 -0.11918570647152893 14.782231465875856 2 0 -2
341 1 9.436289681926555 3.5493519289743034 17.95160544967646 0 1 -1
78 1 6.50295938910378 4.16222103929 16.099496339420067 1 0 -1
677 2 6.352752653558973 1.2319367293360752 17.894139795820003 0 0 0
124 1 -0.7217054925938049 -0.6947810999037966 17.512667124285993 0 1 1
68 1 5.1335821496162115 0.8710521035805412 16.913958918330255 0 0 0
56 1 9.361943608313043 2.5471584640178953 14.678209297793975 0 0 -1
222 1 5.8442325094299035 1.5221256878603522 14.778164917415602 2 0 -1
33 1 8.768881418416521 4.640007498310188 16.406372049668466 0 1 -1
144 1 5.96486753298191 2.2936528957833384 14.981528294159062 5 0 0
311 1 10.744737228108383 0.5485790138080116 14.784665019034659 0 1 0
73 1 7.297579032629644 1.4340908558711738 16.82874815160698 -2 1 -1
924 2 9.853895170952041 4.730912994492246 11.789450498886636 0 0 0
466 2 -0.4720260797305611 -1.1292780956197053 13.224444096808199 0 0 0
145 1 9.13799385639899 0.02528683897614048 12.965462242418068 3 1 -1
41 1 6.188945503475278 2.6992372364171215 18.067851334415547 0 0 -1
259 1 3.290904830428322 1.80183274631136 18.202864096451048 -1 1 0
358 2 -0.3229655149362983 -0.025028658419903094 23.293675748633728 0 0 0
772 2 0.08781327586838383 4.016044532333651 21.505382376343228 0 0 0
287 1 1.328838559192739 2.424712148133667 23.675481815729267 -1 1 -1
250 1 1.1674911556829124 0.6010167508595696 19.079227513280266 0 1 -1
59 1 1.458849550969739 3.538264693365927 22.005687380170578 3 1 0
99 1 -0.5701363015500834 2.8662858618385947 20.87591885257476 -3 0 -1
582 2 1.2996372887691652 -0.8231644055850884 19.60246377593044 0 1 0
101 1 10.105749111525306 3.5087658645609396 24.360890968913957 1 0 0
325 1 2.781975823609308 -0.8973723359120824 19.65319862222146 5 1 0
206 1 1.9036885931159993 3.0886247441887713 19.783118034838093 1 0 0
382 2 0.6009964257102569 1.512225433600293 24.55652488288527 0 0 0
34 1 2.6528222896305302 1.1936273072140513 22.129483920403363 1 0 0
313 1 9.029497568250799 -0.9502939103218708 19.911928429483424 -1 1 -1
1 1 4.36629007315244 2.507100927243561 20.12457109764194 1 -1 1
359 2 3.2578761794662396 2.761000797642181 19.215317051114162 0 1 -1
18 1 5.4776989667614195 0.8187786442609837 19.264386027731646 3 0 0
163 1 4.306500855062353 2.2493891223374534 23.658742763721545 -1 1 0
452 2 3.579384923660122 1.1042483580169078 23.288389782360387 0 0 0
220 1 5.843429774836682 4.688856305888463 19.413572508268825 3 0 -1
55 1 4.4904149811076435 3.891498657797655 24.589790610419378 1 0 -1
203 1 4.584583779987372 0.16571412861498414 22.988749369030327 -5 -1 0
48 1 6.519254012831357 4.036942243578823 21.24851575888735 -1 1 0
292 1 7.054711754668261 3.586936166385838 21.219860547451596 -2 1 1
298 1 10.785591219300587 -1.2717984315204234 23.150714945951844 -3 1 0
187 1 7.623671050877542 0.3022893107999347 21.164195519254843 1 0 -1
54 1 4.74090604629698 -1.272461571403079 18.529591342404537 0 1 -1
14 1 -1.184038365798167 2.9665137919264604 18.48414232315073 4 1 0
262 1 7.3569754254642525 0.3105770101452361 18.36592872199216 -4 0 -1
61 1 11.187779300651517 -0.7560352588202129 18.919368355066084 3 0 0
139 1 7.199833070970875 0.9578040489686557 20.813165984604108 1 1 0
30 1 8.440924848496598 1.8284486907360762 19.09047784064061 -3 1 -2
973 2 9.801767738618212 -1.2435012852467022 18.733124966569722 1 0 0
228 1 9.023504342792679 4.455911936428438 22.0703443693855 -1 1 0
62 1 10.251771254798912 0.4328028793353125 21.934797285394268 -1 1 0
572 2 9.80831626390227 2.405256976794704 18.917606789794217 1 0 0
157 1 10.520727079796789 0.9881475750075879 22.362761089027394 -6 -1 0
275 1 10.285090160855443 3.1333500813481603 20.118966737489266 2 1 0
240 1 10.896443975634318 1.6078559482172543 18.34691539198492 3 0 -1
9 1 3.512249769158669 3.9709403758062836 18.37243973845824 0 -1 0
174 1 8.975819937602582 3.9872215048232373 21.544329042836775 0 1 -2
285 1 0.3213272793809301 4.886792924980986 20.23378208517254 1 1 -1
266 1 -0.4853084053210861 2.8965326991305202 18.262589693313583 -1 0 0
856 2 0.8960311672554901 7.969762402356485 2.0291994375927356 1 0 0
968 2 1.8670025063199502 10.083889093433621 2.4725143694699048 0 0 1
416 2 1.4073832955667727 7.702426067215772 -0.2958413709050933 0 0 1
389 2 2.099495302024248 5.86319325565521 1.791438987069001 1 0 1
235 1 1.5479028446562553 10.736923458502423 3.7154646397995688 2 0 -1
705 2 1.623133642857045 5.496944123712839 -0.4801749892521443 0 0 1
11 1 4.798991033089982 6.734671127427138 5.103397611303943 1 0 0
224 1 11.450457998140871 6.851825280285807 0.5986335034458623 -1 0 1
920 2 1.3125564358620716 11.590041194345195 0.7795536311911206 1 0 1
81 1 4.72223801224307 11.33042636829622 4.038184747769351 -6 -1 2
278 1 5.438205918939839 9.229307343326278 4.040378668064462 0 1 -1
860 2 4.288526507080738 6.202524304657615 0.8029549776858445 0 1 0
394 2 4.038338821346909 9.779629596457973 1.38974967664277 0 0 0
412 2 5.74344305989068 8.961200414005157 2.6732025062478435 0 0 0
998 2 5.958491873282661 6.662209355848455 2.2630515622468126 0 0 0
840 2 3.758362680863069 8.100072714543439 -0.3096135273265439 0 0 0
740 2 5.6070419106307785 5.752563471284741 4.336263838318412 0 0 0
682 2 7.180962218731366 10.612502477691184 -0.24966399251463534 0 0 0
980 2 4.708344803871263 11.604746863216262 0.03599722398595495 0 0 0
344 1 8.762745975351539 5.815758544254775 0.21559945703186578 0 1 0
836 2 9.219243712061289 5.676072542194538 3.7430958795133717 0 0 0
473 2 10.810368945039071 11.264541785722107 2.207506730046404 0 0 0
393 2 9.850933697299858 9.127254408809838 2.430500814983269 0 0 0
855 2 10.738715385083152 8.213927996434439 0.3045047474652922 0 0 0
937 2 8.042221447572128 5.563778569467171 1.6183552511222414 0 0 0
610 2 9.750295752599923 7.89117574506828 4.421336546098936 0 0 0
149 1 9.57212751427111 7.843885289286742 -0.5765954114363945 3 1 1
837 2 7.732489745065882 10.008929927022649 1.9432869013371628 1 0 0
335 1 0.1392671674434196 8.854426499541487 8.425780987405005 -2 0 1
236 1 1.0229940715542436 9.949570626848779 6.283975533679652 6 0 -1
339 1 1.4286264581110348 11.487559176391478 7.122857726486112 0 0 0
137 1 1.0626795198467143 9.547865624614571 5.677607002249755 1 2 0
215 1 3.306295895474351 8.863333495943017 10.883611647024695 -3 0 0
306 1 2.6879972861505284 9.098666757252298 10.678235402460722 -3 0 0
297 1 -1.004471615930931 11.101577681216927 6.514701715766009 1 1 0
46 1 2.813939015594811 8.42121367355602 5.729339930941157 0 1 0
188 1 4.133257594245882 7.799286429455755 7.832245733627996 -1 0 1
718 2 9.006589963309978 11.440139579814549 8.882643171319414 0 0 0
279 1 -0.550069174569114 6.465487884216796 11.251015452264019 0 0 0
86 1 2.9028381823322116 11.692861508763464 9.117385617963475 -1 0 1
620 2 11.610622295143163 11.648547511059274 11.26479514463914 0 0 0
597 2 7.945277157466629 10.327108289206807 10.544691555286025 1 0 0
774 2 9.253182021361992 6.546064623358572 8.558987433393382 0 0 -1
238 1 3.246481853684802 8.85512258243319 5.430836614342598 -1 0 1
168 1 5.156258350767585 8.46591616142084 10.584457949382843 0 0 0
130 1 3.4541954227735845 7.994091277469375 7.739477606346767 3 2 -1
291 1 5.843968735517691 10.793007404757665 7.226070661567446 2 0 0
415 2 5.996260442684704 7.203176322180571 10.608670343870159 0 0 0
268 1 6.420958496606869 7.081519243851734 7.305527545963356 -1 1 -1
265 1 4.9077196664017775 10.926775721483958 9.78651959433074 4 0 -1
64 1 5.726257092878037 6.159109541499277 9.54050573269375 -1 1 0
351 2 5.797741730206796 11.711337172799302 10.52768798969104 1 0 0
497 2 8.248680333312045 7.934615141532264 10.362860597596761 0 1 0
996 2 11.3819140200357 7.331942988433331 7.7707681058818245 0 0 0
375 2 8.349464132232246 8.754343762087814 6.0216975143230025 0 0 0
757 2 11.490918021242077 10.92020483147005 9.153385360181732 0 0 0
657 2 8.621364520640254 11.155610457204181 6.6227041995681715 0 0 0
482 2 7.749138117887528 6.6577441059226405 6.910093197117 0 0 0
229 1 -0.47891138607553996 7.051026044493096 10.793076216488375 -5 0 0
294 1 0.3764259818897655 10.626027035364652 11.415515272039881 -3 1 -1
49 1 -0.2123919713207214 5.859267345733676 5.207781218419472 2 0 0
565 2 -1.3044067488777065 8.541361431943145 8.776979625812542 1 0 0
431 2 11.636018453125187 8.135949508497173 11.699807081670421 0 1 0
201 1 7.032203647834118 8.75701666508053 5.272053462033887 -1 0 0
724 2 0.805060269765701 10.604153548651896 16.037828279722902 1 0 0
317 1 1.061214183084226 9.723807155781532 14.96852320942321 1 0 -1
580 2 2.702408003849472 10.478958427166825 17.354020339850994 0 0 0
994 2 0.9812520781813494 6.26089279044958 17.2855641998168 1 0 0
753 2 -1.1359001035046759 10.328148330123353 17.351028242593717 0 0 0
29 1 1.3958055143765886 7.218633495698084 16.16547625648537 -1 2 -1
233 1 -0.3833154258914878 5.692665968306094 17.04673023505399 2 0 -1
116 1 0.7524881722525092 9.008032436442798 12.776613328613434 0 0 1
209 1 1.4235352857729806 8.801645073398852 12.469336365672088 0 0 0
578 2 8.742421152309962 7.838618126614161 17.56771563818477 1 0 0
91 1 4.146698479467992 5.902335405605775 12.552701160216051 1 0 -1
87 1 4.36531682897518 5.461648537776708 13.043713449832532 -5 1 0
170 1 3.3401057833631054 8.55664995948388 14.428854143338858 0 0 1
663 2 3.8745272266001836 9.528789251808636 15.504779603167126 0 1 0
808 2 6.92356870372924 6.864236391480308 15.1821426202944 0 0 0
633 2 5.656366334574603 8.402208139648106 16.27969855347317 0 0 0
57 1 6.128752710944873 6.142683428136109 14.040499347015816 3 1 0
496 2 5.176567029565459 11.44977932500188 14.767027960042437 0 0 0
141 1 5.747780289619275 6.822360455745507 11.985799040148015 1 0 0
164 1 4.1014685913268485 5.490311502469237 15.33664561447199 -3 0 0
623 2 9.551465243220424 7.070739664171203 12.143950365341148 0 0 0
616 2 9.390823934126908 11.115724861801805 12.176004761585574 0 0 0
31 1 -0.3728173964265238 5.239636238712476 13.170324107579555 4 0 0
747 2 7.423346079142986 11.042028774500688 15.333837350000394 0 0 0
936 2 9.142650571343772 9.98992636060082 14.144387204340614 0 0 0
353 2 10.740239431143305 10.914249282324004 15.813728838110492 0 0 0
748 2 10.55397252037397 7.137625929352605 16.00208435263782 0 0 0
811 2 11.667313253097749 8.999602527080318 16.8733598657192 0 0 0
785 2 7.472095721883399 9.875719463098786 17.275851727925886 0 0 0
643 2 8.995017390801092 7.784407061517193 14.340553912087831 0 0 0
24 1 3.4117965529691183 5.4305558289144775 14.997359343303813 -2 0 2
77 1 -1.1721492742426953 8.603481278567418 12.81845005472379 -2 1 0
467 2 7.330198786212719 5.239780490952941 16.692237303851577 0 1 0
760 2 4.9263022266133065 7.455761539212965 18.236391268859215 0 1 0
960 2 0.9636769532506104 6.894559735159698 21.298539257741584 0 0 0
715 2 0.7166343488058349 7.660837771916762 19.17024766262988 0 0 0
540 2 2.0393899401660147 9.596832295033321 19.43413957830938 1 0 0
846 2 -0.6138270334569698 8.073926420662769 22.524087611272485 0 0 0
963 2 0.6535279335302122 11.036873804919656 20.667334641143256 0 -1 0
447 2 -1.15482311221073 9.965821756547173 21.385264561103476 1 0 0
436 2 3.0142086635549434 6.223675439925023 21.801833598753635 0 0 0
681 2 -0.06010047416700193 8.986633588661196 24.581026806263544 1 0 0
992 2 11.636431866570497 9.46954190713653 23.37623158118603 1 0 -1
128 1 5.909686135238796 6.9236423253814205 21.64370880934517 3 0 0
768 2 3.756026836926212 10.90959776696097 24.0630036640382 0 0 -1
653 2 4.890748687928796 8.756946008809111 23.822192593860766 0 0 -1
575 2 4.507111473125336 9.070167154767573 19.815520359560363 0 0 0
539 2 4.689144832279155 7.87497499745918 21.77318056946385 0 0 -1
993 2 4.867153572324335 11.485844960543304 20.094928395362615 0 0 0
535 2 6.504467757641306 5.810436199098471 18.772549501335664 0 1 0
460 2 7.249331664381989 9.020751338882933 23.94605313877429 0 1 0
172 1 3.2396276129096693 5.211357087609143 22.8458142651155 0 -1 0
399 2 9.997750979182252 11.008934160186914 22.25472031102556 -1 0 0
901 2 10.343619108949849 8.386881333491006 18.92560956189429 0 1 0
918 2 7.746792163525081 10.989165450215578 22.760949493319817 0 0 0
346 1 10.956734095923904 6.482493717646005 23.5380277757167 1 1 -1
804 2 11.668255584044886 7.370474773685492 22.582398862734415 0 0 0
853 2 1.2232090243138423 10.921936724200721 24.588740959669142 0 0 0
181 1 7.516731417040848 6.397813018443412 19.591909582216488 -1 1 0
183 1 10.140369391106821 5.443537936855536 20.09961999327802 6 1 0
413 2 8.590785232896678 11.336821034207063 18.92888924054294 0 0 0
898 2 11.0439516562076 6.570867032650573 20.414942082603513 0 0 0
799 2 10.380343420749758 10.347610841457314 20.037550732418957 0 0 0
185 1 3.3955634697246078 5.605417264888506 20.390677337237175 -2 1 0
123 1 3.5506239396445256 6.794636827231365 18.31721689334216 -2 0 -1
887 2 0.742303994187687 16.42779946380343 -0.19029491285464006 1 0 1
568 2 0.37856991666927287 13.223712390686408 3.8182856863708183 0 0 0
434 2 -0.37588917431455937 13.131458772265386 1.4373161794735267 1 0 0
143 1 1.7338734198422032 12.795507434183323 3.841045240604159 -4 0 0
767 2 0.8346428129844861 17.44068147421926 1.9909062319177173 1 0 0
484 2 -0.44300005256636443 15.314372980044734 4.824277353487669 1 0 0
926 2 2.0535346834979404 14.50597118802543 -0.7360989618243667 0 0 0
245 1 2.116784229859229 17.273501380406266 2.6959153514580274 -1 1 1
958 2 -0.8871222667498398 14.966933113519843 0.2413378287702499 1 0 0
256 1 -0.31764164680082607 12.047061122066221 4.3433349361830755 -1 0 0
343 1 3.1297665929967406 15.789702987312609 5.061395117784225 1 0 -1
462 2 -1.1351412726247225 16.765248775602103 3.255963616680787 0 0 1
310 1 3.3284768236516475 16.277710777122095 4.4473689176809845 1 0 -1
2 1 3.2967324175396726 13.390994328236161 2.295797350412284 -2 1 1
712 2 2.975378482772988 13.135148377919313 0.8440253978928927 1 0 1
25 1 4.179678159739934 15.965007233518264 0.8075088180968129 0 0 0
98 1 4.857668152918415 13.515401007353383 4.366490722736789 -2 1 0
319 1 4.81512923341784 15.808256799589373 3.0054916851784714 6 1 0
441 2 5.380422014700254 15.720290151266852 1.6609219316324415 0 0 0
716 2 5.763373815482205 12.276254960629334 4.434400498240955 0 0 0
324 1 6.588845688390632 15.005007910983078 4.88361125355265 3 1 0
797 2 5.970383995117258 13.418749091503074 1.2098676963325858 0 0 0
74 1 4.85806100399815 18.066354251992664 4.397183194936456 0 0 0
779 2 6.893335441721341 17.494918825064207 1.733865475994723 0 0 0
212 1 6.853741582289349 17.872112280782805 3.161002259070793 1 0 0
354 2 9.668971750940452 13.02055953077024 2.9686645663102196 0 0 0
468 2 9.960305075704774 13.585308072927823 -0.6901287988661526 0 0 1
756 2 9.217628712986885 17.019974820320733 1.4667873286937816 0 -1 0
696 2 10.721310664139649 18.237456396569705 3.2131841350515478 0 0 0
858 2 10.146490464484906 14.863861699128087 1.5243858197976743 0 0 0
671 2 10.16316867322092 17.854965961375363 -0.4471754300248172 0 0 0
991 2 7.423049242556729 12.259902850393038 2.72347115292672 0 0 0
714 2 11.454544976964423 11.912551226369194 0.03806905904724345 0 0 1
639 2 6.154467083616306 14.121419914830247 -1.0385934190663093 0 0 1
186 1 3.224809839084247 18.184407457680432 0.6308358098282749 -2 -1 2
824 2 -0.2535030666097966 15.159293787854 10.202171710934731 1 0 0
405 2 0.1989501124776052 16.707649537285235 6.717503763865855 1 0 0
695 2 1.687319258352526 16.624209876400354 9.914937230352152 1 0 0
985 2 -0.07090498811813051 13.031019989085326 9.294030293252156 1 0 0
544 2 2.4257455070342333 16.21656860079362 7.699298353326903 1 0 0
666 2 1.940475411886966 12.446778023631456 8.244861595645395 0 0 -1
93 1 3.0373252950241234 13.678258634632073 5.589091869701944 1 0 0
420 2 3.0159599869111 14.089975496741213 7.00051358658917 1 0 0
508 2 3.236065222649599 15.654233917763552 11.388909606436 0 0 0
602 2 6.635501996426996 15.661657949092863 6.154010390674655 0 0 0
911 2 6.2176280058508455 13.79985240849087 9.576770514847848 1 0 0
387 2 5.503744992383325 13.975205856150115 7.40311977087589 1 0 0
525 2 5.421296991115044 15.82871401400173 10.765626911103224 0 0 0
668 2 5.558948535347377 17.76704262156928 5.659772783026653 0 0 0
764 2 5.6572865691795755 17.619691550384204 9.254459475327275 0 0 0
430 2 4.047169092400146 17.852255645847805 7.38584748429329 0 0 0
549 2 6.431638194545896 11.995420644053693 6.5786110033789695 0 0 0
198 1 10.51645638832825 17.905590673486135 11.050782628013264 1 -1 -1
723 2 8.982328259194073 15.282898914672504 6.232268150733134 0 0 0
252 1 9.001341109634023 18.224556721605587 8.452833749524425 -3 -1 -1
967 2 10.06968918765578 17.37891686796441 5.452215434031832 0 0 0
380 2 8.505700094102059 13.657272270108468 9.534400182614267 0 0 0
301 1 9.38267111754765 16.710463854958395 9.004814341974564 3 0 0
717 2 9.727924274616761 15.442603743909551 8.322199851023965 0 0 0
494 2 9.872174895761804 13.085779585403634 5.435760919227754 0 0 0
828 2 -0.14667255662009615 11.995575233012385 11.418262068512282 0 0 0
408 2 -1.29417540393429 16.267756987147596 8.54325992310588 1 0 0
511 2 0.3311641688627909 16.64944506206178 16.68024457817747 0 0 0
476 2 0.7743273004071329 13.48123197856786 13.062367481171568 0 0 0
769 2 1.3737895004214549 14.679161857983862 16.273238675731108 1 0 0
365 2 0.3400687426826625 12.810156745201962 15.21225000467551 1 0 0
601 2 -0.9023273141476724 17.365612151068017 13.206194426531164 1 0 0
782 2 -1.0558885262556728 14.976155392480447 12.496793558615716 0 0 0
900 2 3.123700709343419 13.826449188804517 12.94325784811227 1 0 0
303 1 3.116684102039505 16.831433095185222 12.383147534544218 2 -1 0
843 2 0.5126494148631535 18.180157727235144 14.869491264767174 1 0 0
995 2 3.410086624586338 14.708406371927303 15.11753887746081 0 0 0
613 2 4.99688357685308 12.372033662742353 12.650386405649392 0 0 0
983 2 4.880526651911457 13.382318456628248 16.395116210843028 0 0 -1
970 2 6.1381391534173755 15.946336904903923 12.881052123072088 1 0 0
744 2 4.6765186388832864 16.569293015410224 14.553867829598675 1 0 0
801 2 6.111456233242734 16.773501382268652 16.39725526846168 0 0 0
464 2 6.83706305723044 14.576189933739705 16.867749356761593 0 -1 0
557 2 6.90403226088549 13.778285909837125 13.359082403457347 0 0 0
711 2 10.358788454380003 14.402076456256621 17.965516563590445 0 0 0
357 2 10.240362845621744 14.941210481026317 12.394439085566761 0 0 0
730 2 8.66675401947093 13.347169752401191 11.796815464779778 0 0 0
523 2 9.505665381041677 12.449765096454952 17.128857761180516 0 0 0
564 2 10.327685581619928 14.288413661734623 14.634135758619902 0 -1 0
961 2 7.879857893156073 18.03800282905636 15.273535774246803 0 0 0
897 2 7.785921806148371 17.594721254830517 13.12324881396214 0 0 0
864 2 8.216701235056714 13.400797763997684 15.347369677783515 0 0 0
891 2 9.885499082129007 17.788073440903766 16.47383436894737 0 0 0
458 2 9.990691810316218 17.37664068944748 12.28492836321245 0 0 0
366 2 11.001809039330047 15.803721514700317 16.29980915777682 0 0 0
117 1 10.929758963218585 18.216953969820914 13.15863917685975 0 0 1
491 2 5.3494740490056465 17.879950776980976 18.230169724401566 0 0 0
957 2 1.684541158292069 12.900274271079224 21.854475539166536 0 0 0
479 2 1.2614104625897564 14.672552742603907 20.380428831424908 1 0 0
733 2 0.6935890542373269 13.074428544947914 23.938150599348823 1 0 0
982 2 0.2569129488091726 17.005133571126528 23.633796150466235 1 0 -1
512 2 2.628671859354834 16.65805261527851 20.48482242317741 0 0 0
707 2 2.5324295426145476 17.648118164700236 22.675167870546215 0 0 -1
631 2 1.1416869614325327 17.57219988821616 18.71023685570183 0 0 0
883 2 -1.0419227228682084 15.38818946025976 20.539300002899264 1 0 0
841 2 -0.2474454315137362 12.048411247351304 18.82565008925674 1 0 0
426 2 -0.9951042733982574 17.64228954338472 19.875087856514618 0 0 0
676 2 1.469368681022261 13.616249260768859 18.449696010672593 0 0 0
654 2 4.678228776123265 17.803238366658128 23.925890174235327 0 0 -1
160 1 4.696003120178864 13.123716652808527 22.703514664046885 -2 0 -2
755 2 4.77876593227617 16.183853204683615 19.871408519510084 0 0 0
501 2 3.7988058367706055 12.13013054907965 22.148655502415746 0 0 0
276 1 4.794125865952411 14.86438928809126 19.05353275728121 -1 0 1
810 2 6.807044372929077 16.146616890872043 21.407298345856294 0 0 0
923 2 6.484896987220409 16.10170978142364 23.88775820672952 0 0 0
721 2 7.112010300369116 12.057584648188211 20.649273878673092 0 0 0
454 2 11.701080165895366 13.893587471639746 19.78002321484157 0 0 0
552 2 10.722988688534492 17.65146485158189 20.140032559251445 0 0 -1
257 1 3.196539652531146 14.84975624942669 24.45847586890961 0 1 -1
842 2 10.440537555618482 14.861671576525278 23.570371339392434 0 0 -1
423 2 7.797069227088045 12.505720086260522 24.722162047820564 0 0 -1
787 2 8.980058502888438 16.713247599769932 23.844007257943762 0 0 0
537 2 7.917079900903667 14.238100406985158 20.804246621948767 0 0 0
749 2 8.25792645572916 15.08762697849011 18.677179458383936 0 0 0
649 2 9.074890639571965 17.218328683458832 18.586816571821974 0 0 0
646 2 10.030395642003658 13.38268430910467 21.632971984529078 0 0 0
378 2 3.4855985554777407 12.460481549570117 18.248719319922394 0 0 0
659 2 0.1864077478122801 23.74110352726796 4.161508101533435 0 -1 1
869 2 0.44348264061143516 21.58358319668224 3.5468196860919248 0 0 0
446 2 -0.3233143467107803 21.71445843604083 1.2614011008419057 0 -1 1
679 2 1.1675177325309805 20.796470798816518 -0.2207276920346517 0 0 0
26 1 1.3125844315920028 19.451763700783008 0.00876213036081852 -1 0 0
632 2 2.4998149448679974 20.50446392820424 3.825550836989234 0 0 0
618 2 -0.18950066860677217 24.17931967535322 0.5628739189132228 0 -1 0
377 2 -0.9041986665686024 20.286676877915788 4.893972554032426 0 0 0
162 1 2.027284289551583 19.084910456061095 4.363852602576511 0 -2 1
63 1 2.5036147696132303 22.279840890195295 1.9867991353353118 5 -1 0
713 2 2.3175816952198045 24.530097112673094 4.084380514915671 0 0 1
210 1 0.500851448685528 18.857398987459987 1.925698230636268 -1 0 1
728 2 2.2900238550066874 24.573135458376708 0.12409446906516286 1 -1 1
847 2 11.633318988796182 21.844616167519654 3.480896759009884 0 -1 0
302 1 3.453737028166663 20.076559412625656 2.8373787500360166 2 0 1
930 2 3.110900306991791 23.599293492242282 2.132527404883134 0 0 0
726 2 4.141623447931013 19.042750979160587 -0.2693597986624696 0 -1 1
615 2 5.848746414143538 23.860944690733447 -0.5385176183265411 0 0 0
376 2 5.384550564969662 23.466780640515363 1.6718174467409974 1 0 1
665 2 6.1841285210806385 19.501829147081757 0.6693774514484194 0 0 1
889 2 6.236533517007545 21.32112592778024 2.2936723562386843 0 -1 0
762 2 5.992919957703327 21.524728055811817 4.615462751654932 0 0 0
987 2 11.522516233912123 22.763082675177476 -0.17213614057126403 0 -1 0
662 2 9.417922034554225 21.747427359598596 0.2681016198876538 0 0 1
884 2 10.872141714994125 23.984658675840684 3.2553901704995356 0 0 0
504 2 9.935123703081985 20.27618896193776 3.4611606530567665 0 0 0
608 2 8.567757691110183 21.801070986433448 2.3268860718546818 0 0 1
517 2 9.352428254334939 19.948252820406655 -1.181722807561181 0 -1 1
485 2 7.604994413472836 22.350270857717963 -1.010099345044495 0 0 1
570 2 8.541395035431592 23.881266491349123 3.227716490922549 0 0 0
398 2 0.7747452356313849 22.39513518365799 9.24537889172671 1 0 0
790 2 1.2937955219435637 23.85346526859302 7.517060972155397 1 0 0
990 2 1.2324550707806496 20.1503157090623 8.253834231822875 1 0 0
727 2 -0.17103082446634832 19.100060060815853 6.7066987124962925 1 0 0
371 2 -0.6859762757200104 23.666058941346858 6.241181425334139 0 0 1
680 2 1.9323694030569802 22.258808763402985 11.34956286218766 0 0 0
729 2 1.154620858351732 18.785501049486832 10.323451896562785 1 0 0
619 2 -0.8563038119361693 18.749524344771075 11.445757877144342 1 0 0
814 2 2.732249950539206 19.913003953892044 11.627876017035344 0 0 0
488 2 4.808725568456018 24.6039097550524 7.649080143488579 0 -1 0
673 2 3.124936760998777 23.5357875218319 6.20573171482382 0 0 0
780 2 3.414633151056287 20.134941150562945 7.492752401791998 1 0 0
404 2 4.995382844401696 21.12518564824474 8.980681312285489 0 0 0