LAMMPS data file via write_data, version 2 Apr 2025, timestep = 1000889, units = metal

1000 atoms
2 atom types

0 25.372208313009235 xlo xhi
0 25.372208313009235 ylo yhi
0 25.372208313009235 zlo zhi

Atom Type Labels

1 H
2 Si

Masses

1 1.00784
2 28.0855

Atoms # atomic

301 2 2.4037011936339234 0.30231193244787596 1.5370806219697417 1 1 -2
553 2 3.651978440405582 2.3572790952837575 2.1197822523247742 2 0 0
440 2 4.330715360686886 3.128608551550216 0.0480378390464354 1 1 0
249 2 0.022288318633066413 1.1189111329277683 5.528375596856366 -1 3 2
369 2 7.287013806466371 3.3580214772510546 4.092878816487685 1 0 0
17 1 7.402837900832269 1.4168344077328174 2.6348059913793827 1 0 1
578 2 5.17929221918847 0.44193440339288576 0.901217916769204 1 0 -1
486 2 8.674511681576384 0.30220931660665323 2.2879937356840183 0 1 1
606 2 10.781499938614576 1.7475137890043186 2.124896280648069 0 1 2
196 2 11.663958596200947 3.9338632962712587 2.446006427257869 0 -2 1
306 2 8.754760510558215 3.0807651182991687 1.9027223202856869 1 -1 0
39 1 10.08255133528299 12.16683392254472 12.607169899014197 -3 -1 -2
372 2 1.648040053313576 4.378138331679947 2.7388533667607624 0 0 0
744 2 4.016415964286617 8.131588764709134 3.320578979245347 1 0 -1
332 2 1.2219869728925075 2.7758890471621003 1.1257637109822958 -1 0 1
464 2 1.5708752553133438 6.623408951704747 2.0863718557853703 1 1 0
716 2 2.8731099478006716 5.308940301648583 0.4929671477285569 1 0 0
148 2 3.8954170142052673 4.450246859582884 3.8952587188045387 1 -1 2
917 2 8.339702148326504 5.424003362717792 0.15384323237581946 0 1 1
493 2 4.655009245596344 6.831763426511451 1.517827687917362 -1 -1 0
166 2 6.626418572653182 8.205430185744317 2.3944748826952904 1 -1 0
507 2 6.018586858852703 4.929239539511026 1.6409782347805093 -1 0 0
248 2 9.79980016644365 5.652101077425968 2.101158186504439 1 2 0
580 2 9.998549770663919 7.9326337596716066 1.1903920220080122 0 -1 3
176 2 10.949230672335535 7.343928067005588 3.3977700067719727 0 0 0
519 2 8.066250139303959 7.122244801499401 4.149066316061173 1 -1 -1
680 2 12.562616442093628 6.568083526282104 1.9461939588795203 -1 -1 0
463 2 1.7960998257604344 8.817815684309354 2.6992624595449026 1 -1 2
641 2 4.03704067058057 10.732335266139545 2.417453477075017 -1 0 1
905 2 2.2743542709849325 11.29645034484845 1.5840956546513676 0 0 1
586 2 8.205362119155982 0.8829408066632846 0.06594948879779508 0 1 0
192 2 7.529003012863494 10.440240813873402 3.2255558559389956 -1 0 0
789 2 5.9919277494767655 10.883458728953174 1.3470482517124733 0 -1 0
18 1 6.221142104137269 12.44160847844508 1.7436018624227916 -3 -1 0
82 1 2.606533529760052 10.853946938980101 7.292936557002968 0 -4 0
34 1 7.7990571055972175 12.654824500775367 8.731674619511017 3 0 2
101 2 8.981943935024262 10.15433953426968 1.452871099410149 0 2 -1
946 2 12.54463431385055 9.700886729951137 2.343713079176719 1 0 1
481 2 12.10073805265465 12.289770377960876 0.9489386712255259 1 1 -1
279 2 11.84396131258325 11.666982906831269 12.25391791952123 0 1 1
89 1 0.6405078275762572 2.033077814829258 3.4261596226806033 -2 3 0
16 1 1.129720321687962 2.3864569910606694 3.8902458270186155 0 0 -2
758 2 0.5106550433010519 2.915846208655774 7.012835761313279 1 2 0
873 2 2.4480213883343107 3.960995771337081 5.883344848677254 1 3 1
722 2 2.1934339069816886 1.5393315343433154 6.519614155916674 0 0 0
534 2 4.704679141514911 0.9587358846373516 7.059983958256302 -1 1 -1
324 2 5.617473084507556 3.7081890833524698 6.635818182300169 0 1 -1
374 2 7.532160623653523 2.2988845416018924 7.455275868589383 1 0 0
397 2 6.257854493528729 0.13639128670276826 8.557174968269305 1 1 0
558 2 4.644275705985076 2.596323494964849 5.0056721348314746 2 1 0
735 2 9.133186949539123 2.701161183592591 5.77368983063542 -1 1 1
992 2 10.52774926901651 1.5478638887382303 4.66603798668695 -2 0 0
638 2 10.23862262425109 0.6523910559632957 7.664323944279487 0 1 -1
958 2 4.687061962833047 12.305187623726882 10.503510699369432 0 -1 0
385 2 1.3339150077888162 6.597473834759612 7.1294121353685 1 2 2
91 1 1.4518190098651125 6.2463143466077895 11.3495703135144 3 -1 1
124 2 2.7266321376635463 6.2789984610615726 5.523596538237288 1 1 0
952 2 6.4961190806469835 5.917749078540944 6.178231020277708 0 0 0
33 1 6.954983763755641 8.309527378164546 6.132032636766431 0 0 -1
62 1 5.68234283088898 9.646210737639237 4.231910899224017 -1 1 2
137 2 4.209146043413508 7.202788514219051 6.836870481668823 0 2 -1
74 1 6.989083956086016 6.223169112043688 3.2071194680116384 -1 2 0
618 2 9.821768475351899 4.443612898963377 7.776114737756101 0 0 -1
271 2 9.831593895474848 5.673949576979672 4.746025985547447 0 1 1
719 2 8.41206369230062 6.072023014612831 7.421352520180925 -1 2 3
146 2 12.089805083651013 5.457412466362108 8.261483817855567 0 -1 -1
668 2 11.089557743684075 6.70337111115972 6.164683273486015 -1 2 0
38 1 4.8206536124637545 11.367228126022097 8.047355658120198 -1 -2 1
269 2 1.1056103158889357 10.652779581831986 4.309483049914687 0 1 1
329 2 2.599094375587394 9.74163474901054 6.3749241354707245 0 0 0
895 2 2.567021424968088 12.407709666007134 4.438465352952436 1 0 -2
60 1 4.23658092335489 8.721124826515931 1.606260082093119 2 -2 0
752 2 4.9120048490476504 9.535341012132886 5.7676761640594485 -1 0 -1
567 2 8.076415182699884 9.955783948953831 8.808566522117987 1 2 1
779 2 5.918873672394798 11.564038516857073 6.280555034672951 0 0 1
1 1 7.770871683510555 11.01949055566728 7.666011794876116 2 1 -1
406 2 8.07792563515545 11.387636678962005 5.391953847802783 1 1 1
656 2 8.560284598519374 8.713977496667969 6.073138781885738 0 1 3
996 2 11.736290356867308 11.385589561639298 3.8985076173739337 0 0 0
7 1 11.038619360532454 11.318787934727792 7.538355843474106 0 2 2
37 1 0.4348548997500153 8.985238833594579 8.398864495964528 1 1 -2
475 2 10.999993632292213 9.126408296960069 5.060215236810114 0 0 1
83 1 11.08186138842707 12.057112701799527 7.593937222511994 0 3 -1
543 2 3.5791730255655225 2.8820119466626597 12.400718030639174 0 -1 -1
416 2 2.8738670669400115 1.0652756657592084 9.401409879357058 0 -1 -3
683 2 1.880046459982581 3.3160470393349004 9.911304441968669 0 2 1
685 2 4.168362691860677 3.504529984548614 8.392683103093518 -1 -2 -1
357 2 0.5264024063131002 5.21768747859851 4.552568860446803 2 0 0
945 2 6.927044051436391 0.819409503274437 12.379577602414047 -1 -1 -1
296 2 6.249609577990477 3.220303239811265 9.68198987586893 1 0 1
368 2 4.9482789972149925 1.464740822143544 11.068992341255857 2 1 1
759 2 8.87323779665337 0.18953800085435818 11.255622589200799 0 1 1
574 2 9.125549192627401 3.0725326616093858 9.408656045599528 -2 -1 0
886 2 11.741024693659615 1.7851105908240734 8.606809009892403 -1 2 0
624 2 11.363998161261609 4.002413079214168 10.457803950822308 1 0 1
133 2 11.644431899976807 10.282306912077122 10.61766497330338 -1 1 -1
902 2 1.4003365335563396 9.706566401937495 0.3172627720448671 1 0 1
72 1 3.6308918669571186 5.277838099423155 8.654795061109125 2 -1 0
796 2 2.7242516721033994 7.907371725824175 8.539082431134688 1 -1 -1
792 2 0.31004644360865385 5.866399892552755 9.098852550216245 -2 1 0
95 1 11.778661434695845 11.650918424628081 9.012351136950524 0 2 1
982 2 3.6529163951063257 4.886398431009762 11.694056365609336 1 0 -1
108 2 6.176890894451749 5.350813360379499 8.746839345089233 -1 -1 1
418 2 5.899778307610981 3.918630042698068 12.050459197953625 -1 1 1
257 2 8.12001168715652 6.898748253296924 9.771348943594425 1 0 1
702 2 4.722207692632586 6.893732388537955 12.19491445657064 0 0 -1
122 2 5.040059463671397 7.028047884119732 9.87789122895158 -1 0 1
852 2 7.45822524887759 5.996177118221599 11.885544458758236 -1 0 0
177 2 9.304412879955205 8.434780197778482 11.843558408819648 1 1 -1
159 2 9.41773415688951 3.9034593523265273 11.932410431814455 2 0 0
876 2 11.96183976227423 6.508014844964839 12.321414610293518 2 0 2
762 2 10.4518572848284 6.151013308911947 10.025660076218376 2 2 1
105 2 11.259641639267162 8.069668858372223 7.889983818588773 0 1 -1
689 2 2.04727577199349 10.702524527950185 10.417875580886452 0 0 -1
940 2 7.440391876804739 7.898340754374007 0.18255115037232428 0 0 -1
143 2 1.0878872887798754 8.77321635214753 11.456666910221099 -1 0 2
4 1 10.054569989176391 12.321524432965772 9.590940349817725 0 -1 -1
477 2 6.4558458102671334 10.733083098449207 11.1611004708579 -1 0 -1
127 2 4.014959683003024 10.406971866154565 8.894999042009513 2 -3 0
51 1 11.961571708633391 11.441784287222534 5.3771831955380724 3 0 1
941 2 5.867515685868786 9.207522470275459 9.271438000504936 1 0 -2
322 2 8.583349136201567 11.940775671056336 10.477742365450121 1 0 1
540 2 8.383745764652918 0.8768111208072277 8.965361094299066 0 2 1
537 2 9.527816331412009 10.570938539987448 12.15403610775775 0 0 -1
681 2 12.047047482999892 1.327587059721023 11.612113171596855 1 -1 -2
42 1 11.230605897372161 12.134256397683828 9.275717308352327 -1 -3 0
21 1 3.7849935742790115 12.257993913561046 5.502245017357439 2 -1 -1
98 1 8.89633490782893 12.450918491845611 4.646151694199439 1 -1 -1
750 2 3.2567816030710137 1.115222867066187 14.617774569579348 -1 0 0
293 2 1.3720134916727582 3.8583791211361045 13.473328295996795 1 1 1
708 2 1.3731286709582318 2.2035493804645134 15.468482244982432 -1 0 0
299 2 2.4657672142204006 0.6194556519268186 16.674338787974673 0 1 -1
933 2 4.559535438853612 2.9554077369783953 16.96161058887464 -1 0 1
408 2 5.961116451451307 3.7372909678873745 14.626567068423325 0 0 0
635 2 5.681955329335166 1.0914465904278554 15.56141153688074 0 1 2
549 2 7.696791437641841 2.686555819683865 13.204847105260427 0 2 -1
444 2 7.590933430502239 0.30283132143649855 16.999229084422677 1 0 1
59 1 8.569036591000454 1.2992945070739002 14.656710872893662 3 -2 3
370 2 12.336940718767586 1.6480814520121452 21.70109018733759 1 1 -3
993 2 10.924589049900424 2.246200369883779 13.993668579338014 1 -1 0
732 2 10.741365287213503 0.2189712706836738 16.276368350659922 -1 3 -2
532 2 10.587104550352246 4.435182025918591 14.066892010861201 -1 1 0
307 2 2.950235280920629 8.372397660747778 13.055981703601464 -1 0 -1
163 2 2.018267294803768 5.438916586535722 16.739803707312856 0 -1 1
436 2 2.2925341939151282 7.600022067823258 15.143309648067449 0 0 1
20 1 0.9225797845462254 6.304780978911669 14.921718781312924 5 1 -1
949 2 4.080164934163414 4.969060019548106 15.449128027948143 -2 -1 0
878 2 5.605907686932561 6.999221384737978 14.467474788877642 1 0 0
790 2 7.178065699620886 5.583870006458638 15.597639799839135 0 1 0
723 2 0.5892094412107691 9.235971439426772 18.41633293727491 2 0 -1
804 2 9.550654985970013 5.720498091757551 16.00355152661074 0 -1 -1
287 2 10.463380049727693 7.7575715643836745 16.43951639988912 0 1 1
883 2 8.560955284587392 7.216328950234605 13.549899083231612 -2 0 -1
66 1 11.382334107953621 3.1624059427948583 16.509198208062852 2 0 -2
401 2 0.7629101643910355 9.050122850693532 13.920433078659388 1 -1 0
839 2 1.639232649486512 10.455192749994577 15.392383749847347 2 0 1
244 2 3.6671793097303933 9.084434347195993 17.020005632352984 0 1 -2
448 2 2.5667078081428345 11.275581566183108 12.69042002192575 0 0 -1
45 1 4.876948744740941 7.636157977499407 16.998095783974378 -1 2 -1
967 2 8.09087061420313 8.717834111603684 15.642447779659518 1 2 1
395 2 4.887173833631213 9.095906486065218 14.565230840144409 1 2 1
70 1 5.004643234245687 11.928725929167026 14.628874562543464 0 -1 -1
503 2 8.382059722565595 10.716285915393138 14.144599758008248 -2 0 1
268 2 5.017807687912816 11.187361947580285 13.22388452599596 0 1 0
27 1 7.389302781395139 11.88222328062613 16.086106555916487 0 -2 0
64 1 12.10524144324149 1.4520399176058585 18.13111656560023 0 2 1
625 2 10.544929876109672 11.776679249570654 24.74836635825768 -1 1 1
382 2 12.319423524716195 8.229251774010546 15.209901263793325 0 -1 -2
348 2 11.068992304151198 10.472213298235799 15.220481987932565 0 -1 1
226 2 0.2503784282731307 5.328677759709286 18.590504020486996 1 -3 0
662 2 10.436685709046285 9.401770258710291 23.342112543769115 -2 0 -1
183 2 0.9596517480568002 2.2052491814137194 19.31966040952455 1 1 -2
677 2 2.7032240819038043 3.2454195648013795 18.183654499105323 0 1 0
457 2 0.10879671204390032 4.1731541004515185 20.396070354682244 1 0 2
822 2 2.900598586326114 1.4417822699588225 20.50852640865435 -1 3 1
684 2 8.154855465340603 0.5026257290293263 19.516571933668732 2 -1 1
579 2 4.690820070607352 0.21651656665895508 17.63213942800957 2 0 0
428 2 6.656926250584635 3.7712513211839576 18.455976759880354 0 1 0
283 2 6.207368147151807 1.7944395465702998 20.32613101002403 0 1 -2
153 2 11.892276817165213 11.19784111658135 22.7859460344839 0 -1 1
422 2 7.935004640334153 2.861514477391781 16.601579313477412 1 0 -2
830 2 9.271148885771376 4.166241575499227 19.202334088385363 0 1 0
331 2 11.859142620458707 2.3503710068989867 19.518001481794144 0 0 1
342 2 9.684527538240275 1.7188402341284619 18.087895751463243 0 1 -2
24 1 10.497995691947974 6.910853892985907 13.680915999787745 0 2 1
225 2 3.864465848294573 7.187536351047991 18.96571038329778 -1 1 -2
979 2 2.5129539056205243 5.447073402554813 18.94786204641626 1 0 2
12 1 3.9902719172655345 2.760722524384609 18.906065815502764 0 -1 0
551 2 0.18197916891787916 6.44250008886249 20.881167920442287 1 0 0
845 2 3.3397294158005146 5.186802789005428 21.028273829014882 2 -1 -2
339 2 6.710860906247468 6.072954585709716 19.664947769021055 0 1 2
215 2 5.416248118381561 5.693931861924322 17.13763280861868 0 0 -2
173 2 5.516193413552967 7.738148068151003 20.514773904165946 1 1 -1
935 2 8.110682240527206 7.413116337625907 18.181245053845153 1 2 1
46 1 10.184382869447681 8.385116336532048 20.066043177453707 0 1 0
734 2 10.372754974470272 6.318635045389225 18.613382195599048 -1 0 -1
931 2 10.115275148149719 7.2822573387215295 21.019576097558737 0 0 0
833 2 11.475125544311021 4.866763736502179 20.689226900787578 0 1 0
658 2 2.8991643388030544 11.384971453113824 18.157736702867787 -1 0 0
837 2 1.9242621538605549 10.92092290333034 20.243760926264706 0 -1 -1
590 2 1.8627765122370334 8.261939084882783 20.226162303115448 0 2 -1
87 1 2.22280855852026 8.716430534564442 18.05044740962147 1 0 0
234 2 3.7545056959700225 11.301925765607017 22.06156447510821 -1 1 1
237 2 6.279715955061284 8.768100737316843 17.302781748992373 -1 -1 0
587 2 6.0781458609108014 12.253549831411513 16.833588207019215 0 0 -1
900 2 7.339213226739447 12.215580218398097 20.78157226882018 1 0 0
631 2 4.7557281639150855 9.755939530454675 18.95089361854188 0 1 0
347 2 9.264919939190817 9.238383536626444 18.142063724394607 -1 -1 -2
513 2 11.139629971104322 10.440313605709164 17.470206648572248 0 0 -1
327 2 8.047179313603861 11.35763146995609 17.731233104109855 -1 -1 -1
117 2 11.208324591622151 10.1741282398425 20.44600873255564 1 1 0
312 2 8.653655319254185 10.255442942092829 20.429037129577424 1 -1 0
323 2 10.006060657383282 11.729492110464726 22.003714665203628 -1 0 1
805 2 9.295018850504945 0.12449636051447653 14.55645032768261 2 1 0
592 2 3.524259059613383 3.1426435297037583 22.047719771670852 0 0 -1
848 2 2.1661506128511197 0.7261224898745733 24.344122696763755 0 -1 1
919 2 2.3086683967316244 3.164261987090132 24.317770946605716 0 -1 -2
317 2 6.309925484540705 2.022885687373959 24.548049039190406 1 1 -3
659 2 6.269240109593651 3.9797186457519 21.351384835569228 -1 0 1
970 2 7.07231694796891 1.3141290617117811 22.440685185170356 -1 1 0
458 2 8.83239075338099 2.358671526382068 23.14353436971917 0 -1 -1
669 2 9.63661243091649 1.9196435014902575 21.064506569126674 -1 1 -1
976 2 8.045655111846708 8.75848214281908 21.84406952646656 -2 1 1
637 2 10.5740877943008 0.15459414791413462 21.582080776778124 -1 1 0
831 2 10.766434973283904 3.6206334909876725 24.38219589108836 -1 -1 0
5 1 5.677896282411264 5.907759166223494 23.989255247263277 4 -2 1
120 2 12.452965372518026 1.373785922578646 15.380721914171703 -1 -1 -1
899 2 1.2947031277968968 4.332289502358916 22.459923631820054 2 1 1
715 2 2.33181614977702 6.876007516638107 22.487347913540066 1 1 -2
78 1 2.078222089582549 0.3362355575781027 22.88503044556091 4 -3 0
126 2 8.599909226184515 4.425449971622273 21.523717721264372 0 1 -1
617 2 4.796420574953259 6.801586674724361 22.47570500311331 0 -2 1
988 2 8.100190527269138 6.5522411883393366 21.892468192781276 1 1 0
568 2 5.088411550906023 7.504535037747975 24.914602853993397 -1 1 -1
274 2 6.597406807482133 4.354584851301706 23.855532051301918 0 0 -3
265 2 8.28378934675692 10.781930024839689 24.755354013043608 1 1 -1
736 2 11.454105254268827 5.153082655164459 22.935002136245735 1 1 1
386 2 10.123104362562875 6.758334437252476 24.082007182044414 1 2 -1
245 2 2.971809957500907 11.493961975531066 24.36761873978427 -1 0 -1
783 2 1.9937427797408835 9.275659331635202 22.42747531385211 1 -1 -2
309 2 1.574028784525689 7.056860379190158 25.038448022365717 1 0 0
446 2 4.170666856247856 9.598450819466944 24.347538295458 -1 -1 -1
150 2 0.24397352980791576 11.082056263448209 13.084958239008621 2 1 -1
928 2 5.427604039848391 10.05684492978471 21.084167136521106 -1 0 -1
227 2 12.590469700203261 6.012045370235082 18.53373557873375 1 1 -1
413 2 6.512968787097041 10.245165236083864 23.375869571861625 0 -1 0
937 2 4.546862919402015 0.23424079864576425 23.915851780184358 1 2 -1
594 2 2.017447198023761 12.24290564197288 16.19817308122543 1 1 1
947 2 4.811419466630866 0.0383137080048815 19.906012041767326 1 -2 0
795 2 12.326659042622131 1.381654752986538 25.29340515837414 0 2 -1
781 2 12.260338800670379 9.2308895503911 25.333643615154518 -1 1 -1
809 2 0.4273404534764128 16.555952561463197 4.25274116269385 1 1 1
600 2 2.3255688005884823 15.593967062528195 2.785630665616523 2 0 -1
978 2 1.4922330373211605 13.446533657595518 2.534445728984785 -1 0 0
696 2 3.0841176491695577 13.817849356840975 0.7350206327735257 1 0 1
581 2 4.658077316789184 13.583767723186075 4.321581588081094 1 0 -1
388 2 4.599324234263059 14.727470964860272 2.2592617176365475 0 1 2
812 2 6.291421134595209 17.034836352744954 3.281632755381054 2 0 1
77 1 6.696946670640032 13.920649217594484 3.9938757306026367 2 2 0
552 2 10.84223283466684 12.91447722106239 2.8100685663204388 0 0 1
188 2 10.091560743697887 18.809536591842733 0.3658424391680852 -1 -1 1
97 1 8.682356169132495 13.917723816880459 4.635559192039792 -1 1 2
778 2 9.113262289196792 14.348367521007177 1.2566519718633855 2 1 0
437 2 8.51044820817513 15.643058390239595 3.0153379694544498 1 2 0
425 2 11.909070502208564 15.298570308897936 1.676742876727832 0 0 1
733 2 0.7192233020314825 21.409950511956925 0.6768012166835699 3 -2 1
239 2 2.760430213534843 20.942028386679404 2.91317475915755 0 -1 0
142 2 2.9914797480056987 18.223901357786005 0.8601977028285583 1 0 0
663 2 1.1827162981525792 19.372328593883207 3.5931206886392215 0 0 0
116 2 2.9474194121325312 17.814080424182986 3.1878622350679255 1 -1 0
753 2 7.324273986014731 16.814749105496315 1.22900188547707 0 1 0
932 2 7.017567308757858 19.34914102781248 1.2622972001549941 0 1 0
178 2 5.168477354958526 20.030582450329465 3.8492417295721513 0 0 0
325 2 5.10493892359714 18.670177954721623 0.16145973171773448 -1 0 -1
528 2 3.9565571444128453 21.11515766595617 1.1496907655014263 2 0 0
977 2 8.244312148573565 21.706234840784504 0.19172278726254352 -1 0 1
213 2 7.315346343191134 18.997002144381007 3.9098829341526025 0 1 1
729 2 12.467417444423395 19.28635302963105 1.5202640073980336 1 0 1
599 2 11.978913060816222 20.668461230333246 4.360538063018742 0 0 1
675 2 11.692092977349603 18.058136561041863 4.0089533451957005 0 2 0
259 2 9.20151897277584 19.999253176634557 3.768360673858669 -1 0 2
107 2 10.214597189705014 17.188233897677545 2.3963541107507806 2 2 0
504 2 10.479521461826486 20.760662641880067 1.518966023826723 0 -1 0
610 2 1.6867607056133602 22.84932664300538 2.868068545844619 -1 -2 -1
613 2 3.004324169984865 24.545715752092406 3.092851339584044 -1 -2 1
168 2 4.200620843624101 23.912417664533294 0.747231840603581 0 -1 0
429 2 0.18812877921669283 24.60586597746835 4.224788542120699 0 1 1
106 2 5.942028875659272 13.53633902338242 12.2483024162252 -1 -1 -1
773 2 7.2358184859687515 23.496139585568482 2.9113847337633647 0 0 0
362 2 6.080551837691912 22.277886939897687 1.5536858078186135 0 1 0
221 2 4.448686553875908 22.14875326433087 5.182862872382004 0 0 1
654 2 5.187682644310858 24.186543462766192 3.919553903488968 -1 0 0
434 2 9.372704398010802 22.57692290013311 4.040429496465435 1 0 -1
841 2 9.507242670522253 23.48434843444961 1.713749898987171 1 0 1
472 2 12.012347228341147 17.428309072814 0.1392364495504625 1 0 0
604 2 11.564808481952396 23.695614982868577 0.04972276062071062 0 -1 1
14 1 5.870392273892462 16.5215565020619 0.43068686676428475 0 1 -2
170 2 1.7125128429750767 14.162112190940517 5.809171971152628 2 1 0
267 2 2.3971624705847496 15.528440803569236 8.393587410497098 -1 1 1
145 2 0.7141640170493523 14.05073885005755 8.001716125859891 4 -1 1
870 2 7.3886616110674765 15.280337516261229 5.492112534365026 1 1 -1
344 2 4.773027867502008 13.757123150692912 7.5380062820978235 1 0 0
489 2 3.5443593572473775 15.569525911008004 6.274100973245113 -1 1 0
739 2 7.042870508425888 17.06920215935211 6.800427333146567 0 -1 -1
974 2 7.152517866684257 13.487226800183912 7.244815451828658 0 2 1
23 1 12.54758963241263 16.623882978741467 6.386477917191019 2 0 1
803 2 11.762578910082132 15.98905098741851 8.779799570903958 -2 -1 0
572 2 6.333359723406542 14.528203680019217 0.5168825396750465 2 0 1
266 2 10.691066017941361 14.674347849274069 7.300577127483961 -2 -1 1
186 2 9.883653053538847 15.806177394348815 5.392600486957101 1 0 1
843 2 9.057424217061714 21.836486959420473 11.6572407668861 0 -2 1
360 2 4.357328669536683 18.037177043577703 6.488913697240551 0 -1 2
879 2 3.229490806335076 19.8203144006686 5.462804492820154 0 1 0
777 2 1.084931922550496 16.47952591602041 6.513817399374061 1 -3 2
860 2 5.223924845468266 18.38273167983029 8.5109328687637 0 -1 0
197 2 5.20950886972347 20.368659162583338 6.756585534896747 0 1 0
185 2 8.335894485861461 20.112905370757392 8.276193040956958 0 1 0
373 2 9.463984785719546 21.165261915914662 6.186053930206203 -1 0 0
647 2 10.650416283058197 18.238648830652313 5.8688771357155805 0 0 1
453 2 11.793593360215684 20.037453468654647 7.530811190117927 -3 2 1
774 2 8.71629178638227 17.737806661060265 8.582663800632917 0 -1 0
25 1 3.356157365332749 23.486705810042864 8.19401958392371 -2 -1 -1
605 2 2.0280859761942844 21.96380337512084 5.093764089806996 -2 0 1
768 2 3.2728096511524853 24.831375362795185 5.379015557243854 1 0 1
788 2 2.4688602758458216 23.26771171377956 6.958408880138089 2 -1 -2
346 2 0.6846761772026043 24.493500697757167 8.258689914646917 1 0 2
314 2 7.045147934299118 21.583305512979052 5.020443616458178 1 0 1
424 2 7.1474807671158835 24.378227231897156 6.38651851658298 -2 -1 2
71 1 6.013923668426724 24.09792580373648 5.419309800057436 1 1 -3
709 2 8.229658115233786 22.75978677076425 7.699399752530452 0 -1 2
174 2 8.88070773628766 24.785126887766072 4.857112718627029 0 -2 -1
891 2 11.887829047359665 23.361277830791977 3.466069875936543 1 -1 1
151 2 11.547123499929217 22.06763810806377 6.2984196134562165 -1 -1 -3
951 2 10.57903545293407 23.446727771906176 8.224912630710433 0 1 -1
158 2 11.204410116787907 24.759859941938966 5.966040682882929 0 -1 2
35 1 0.8521076225918769 16.641232507928308 10.428637257072197 0 3 -1
371 2 1.7751007883729215 16.458260190376794 11.703458029247201 1 0 0
189 2 1.1717348387497986 13.128375767229862 11.532092086908277 0 0 1
216 2 0.0047374918164373 16.664195800217886 9.090046291062695 1 -1 1
169 2 3.2522942166438553 14.362075588339868 10.655686964931201 0 0 1
19 1 8.222707444785755 13.842024770782698 11.044426872781441 3 -2 -2
975 2 7.165065294748604 16.71448930703325 12.65580339569535 0 0 0
336 2 6.494535430006907 15.229040042812592 8.924788752805501 -1 -3 0
511 2 6.099968643941665 24.034699011250137 12.660625290960999 1 0 1
490 2 4.470611708795517 16.562980325156417 9.94003391687115 0 0 1
648 2 9.745920950247003 20.906131760905115 9.764004904447715 0 1 1
797 2 10.343361857433607 14.05104471911495 9.89647322120642 -3 0 2
427 2 8.799121637385761 15.604162600227738 10.804388662813968 0 -1 -1
111 2 12.263421595022255 21.0780934321833 10.557181989821032 1 -1 -1
559 2 0.8486302179140702 18.957944434530177 8.608055104898872 0 0 0
859 2 3.4168084388405737 19.790689433201482 8.907695780694645 1 -1 -1
319 2 4.189455744095133 18.36571393173365 11.578038778916822 0 0 0
206 2 1.917155595627308 18.990052214113096 10.9127104629584 1 -1 1
250 2 1.6030333818680085 21.371534765724263 11.2031220369122 2 2 -1
799 2 7.0346354493872205 16.975886377720457 10.208620818909193 1 1 0
835 2 6.314069967516492 19.95418348238652 10.612688915435406 0 -2 1
90 1 9.062059124159981 13.455983154890943 2.4842428666635916 3 1 -1
81 1 4.2318173235815415 19.225599014390426 2.576118033054092 -2 -3 1
112 2 11.262233249073747 18.41871433103494 9.091586346520499 0 -1 0
775 2 8.564499950413818 18.299826845310264 11.31999701747815 1 -1 1
751 2 10.718316556108407 19.451452330479498 11.23076717065765 0 -1 1
295 2 10.78058710013006 25.357114019331167 9.866850627487665 -1 0 -2
471 2 1.8401945643957205 20.61067619837631 7.4905412502387865 0 1 0
973 2 3.814829229065892 22.667710075994602 11.267161656268131 0 -3 1
205 2 1.219904425535787 24.46366842696736 10.519012795865608 0 1 -1
100 1 8.736103981436836 23.22234250958936 9.287584436076624 -1 0 3
908 2 6.118284671657963 21.67768998656584 8.819994854821557 1 -1 0
877 2 4.234165817929121 24.63402347373547 9.707095357858353 -2 0 -1
772 2 7.26966919746112 23.678733333194362 10.412921254100606 0 -1 2
642 2 6.1268465330015855 22.00867276367159 11.789384200254156 0 -2 0
53 1 12.01155719524963 23.473000192873457 8.669134157174788 0 0 2
80 1 10.802199698089009 16.66564169138013 5.967673636490181 0 1 -1
455 2 12.635673427406589 21.509655608341305 1.5866598387719777 -1 -2 1
165 2 10.291783519729854 15.689157331979112 12.485938605236518 -1 0 -1
207 2 2.356956993421804 16.044932945625007 0.21410586801772946 1 -1 0
56 1 11.671040010480384 14.91402527471742 4.85573894636991 1 -2 2
432 2 0.07120211494905518 20.35660930584022 6.184848310568823 1 1 0
315 2 2.6074029869453152 12.781897200080754 9.023995302718571 0 1 0
378 2 12.100802164925517 17.23614946230432 12.599346250329747 -1 -1 0
960 2 12.416454275198888 21.61237434340393 22.662534336263146 0 -1 1
500 2 2.7784331082216562 13.236307610820788 14.129683991204134 -1 1 0
904 2 0.6961803094310944 13.924607640435761 14.142471228541549 0 -1 0
784 2 3.192390404733791 15.543764010320867 14.299253684445908 0 -1 1
591 2 0.413083809603481 15.852428973146646 14.987417579763331 2 0 0
156 2 7.70684499648988 14.240006722420558 13.292064819593941 0 0 0
313 2 6.155577748078033 15.288820311674833 15.213907917224532 0 -1 0
198 2 0.6378716709092314 25.23924486211672 17.86113555123149 1 0 0
466 2 4.97607122136104 14.663262397869977 17.1377320800147 0 1 0
251 2 5.008448816456965 15.497859909009412 12.949725962050534 2 -1 0
912 2 10.650755952436837 14.204317725692016 16.477761854142766 1 -1 2
467 2 11.875164369558568 14.447481334425829 13.476516813903045 0 -1 0
40 1 10.07881428527003 12.79976018365715 13.537026685958564 -2 1 1
277 2 8.69015354531383 15.74635589622429 16.021447374809274 -1 -1 0
195 2 3.479638087292044 17.305765499846444 15.80375210896247 -1 1 -1
229 2 2.3756058918614356 19.254199519674884 16.27075665434266 1 0 1
79 1 3.2797546424859187 19.766661226069175 13.16149402390584 1 1 -2
512 2 1.6555513215512119 17.594320769307483 13.722796840149726 0 1 1
3 1 2.4866471013992144 19.792556805660055 13.222982553623824 0 -1 4
598 2 5.9810872951472795 17.864272545246262 15.72473649888916 1 -1 1
383 2 5.489263411945677 17.803269865948113 13.383217767149938 0 1 -1
678 2 5.594895760084249 19.841118452160423 14.696428030303384 0 -1 1
682 2 8.11578535684069 19.514724653310594 14.651626335733143 0 0 0
745 2 8.935404681483002 17.177067756596 13.834869432486517 0 -1 0
786 2 10.985267915139401 19.02536472315068 13.742187281234905 0 -1 -1
246 2 11.38366162428542 20.20163795599783 15.650154854784807 2 -1 0
358 2 9.647196851952808 20.934451394170836 13.678802142260192 1 -2 0
963 2 1.3855085409958323 24.3697761989812 14.79836857470356 1 -1 -1
509 2 0.32868446274946694 22.396442812535433 15.817892717444677 1 -1 1
8 1 2.163609616950219 21.47198857115043 14.229315955623562 1 -1 -1
377 2 3.4173788391585584 20.815849514073957 15.166664468188884 0 0 0
573 2 3.6166684011520087 24.834966835499955 12.802938199941986 -1 -1 -1
701 2 4.147567693499203 23.351012839641854 16.750905587434296 0 -1 0
757 2 7.743713641517944 23.11097221282105 16.86099888670503 0 0 0
308 2 7.687908814593643 22.410937100489473 13.815968535893429 0 -2 1
180 2 0.13909713076428223 24.991839863963733 25.263385123747685 -1 -2 -1
785 2 5.441342493153111 24.255966952974532 14.947083554587229 0 -2 -2
311 2 11.716333877752362 23.669410276640974 13.289386353237276 0 0 0
410 2 12.029165709936773 22.887994724571918 15.486712323052805 0 -1 -1
290 2 10.768636940490902 23.937581212356672 17.579605130371863 0 0 -2
494 2 9.561186364951672 22.48012434064999 15.325077014586212 0 -1 1
76 1 7.07834202088266 24.084598969241384 14.08793558721344 3 0 0
273 2 9.421495878655689 24.05166534660481 12.8804540570277 -1 -1 -1
865 2 2.7611320042559497 14.520213575681543 16.459879394649953 1 -1 1
818 2 2.128094395618117 16.19161029081613 18.674853072707528 -1 0 -2
913 2 2.405640927713343 14.127861558326932 18.99624307641019 2 0 0
152 2 4.138739316852068 15.252174015512322 20.989287715274575 0 1 0
673 2 12.186467466604576 12.735688537358389 17.965123636123128 0 0 0
155 2 0.05546565237839042 14.645435234061143 18.275171609105804 2 0 1
506 2 0.47178238114481785 12.875369447106312 19.74964730766329 1 -1 2
118 2 5.4496404621963075 16.897090043485026 18.469853906883465 1 -1 -1
480 2 6.3752014404028525 14.907576555811229 18.954134229339104 1 -1 1
881 2 8.555718799240637 13.825925496263219 21.393543545723123 1 0 0
628 2 11.952788998680692 24.86750210217658 19.676011098923304 1 0 -3
639 2 9.064020756726315 13.167192079564908 18.379704106084613 0 0 0
815 2 8.896780358810181 15.780315486780834 18.377222394426465 2 -1 -2
381 2 10.755618476317691 13.174137324238764 19.71150479304091 1 0 1