 vasp.6.5.0 16Dec24 (build Jan 20 2025 08:32:48) complex                         
 executed on        HPECrayEX_GCC date 2025.07.21  20:26:09
 running  128 mpi-ranks, with    1 threads/rank, on    1 nodes
 distrk:  each k-point on  128 cores,    1 groups
 distr:  one band on NCORE=  16 cores,    8 groups


--------------------------------------------------------------------------------------------------------


 INCAR:
   SYSTEM = a-Si SPC
   NCORE = 16
   ISTART = 1
   ICHARG = 1
   ISPIN = 1
   ISYM = 1
   EDIFF = 1E-6
   NELM = 150
   EDIFFG = -0.01
   NSW = 0
   ISIF = 2
   IBRION = -1
   PREC = Accurate
   ENCUT = 1200
   KSPACING = 0.23
   KGAMMA = .TRUE.
   METAGGA = SCAN
   LASPH = .TRUE.
   LDIAG = .FALSE.
   LMIXTAU = .TRUE.
   ADDGRID = .TRUE.
   ALGO = Normal
   ISMEAR = 0
   SIGMA = 0.1
   LORBIT = 11
   NEDOS = 2000
   LWAVE = .FALSE.
   LCHARG = .FALSE.

 POTCAR:    PAW_PBE H 15Jun2001                   
 POTCAR:    PAW_PBE Si 05Jan2001                  
 POTCAR:    PAW_PBE H 15Jun2001                   
   SHA256 =  030f79b5d3ab3cf0e668861823c8fb652ff669f3e15e46930bd03bfd63a607b6 H/POTCAR              
   COPYR  = (c) Copyright 15Jun2001 Georg Kresse                                                    
   COPYR  = This file is part of the software VASP. Any use, copying, and all other rights are regul
   COPYR  = If you do not have a valid VASP license, you may not use, copy or distribute this file. 
   VRHFIN =H: ultrasoft test                                                                        
   LEXCH  = PE                                                                                      
   EATOM  =    12.4884 eV,    0.9179 Ry                                                             
                                                                                                    
   TITEL  = PAW_PBE H 15Jun2001                                                                     
   LULTRA =        F    use ultrasoft PP ?                                                          
   IUNSCR =        0    unscreen: 0-lin 1-nonlin 2-no                                               
   RPACOR =    0.000    partial core radius                                                         
   POMASS =    1.000; ZVAL   =    1.000    mass and valenz                                          
   RCORE  =    1.100    outmost cutoff radius                                                       
   RWIGS  =    0.700; RWIGS  =    0.370    wigner-seitz radius (au A)                               
   ENMAX  =  250.000; ENMIN  =  200.000 eV                                                          
   RCLOC  =    0.701    cutoff for local pot                                                        
   LCOR   =        T    correct aug charges                                                         
   LPAW   =        T    paw PP                                                                      
   EAUG   =  400.000                                                                                
   RMAX   =    1.123    core radius for proj-oper                                                   
   RAUG   =    1.200    factor for augmentation sphere                                              
   RDEP   =    1.112    radius for radial grids                                                     
   RDEPT  =    0.926    core radius for aug-charge                                                  
                                                                                                    
   Atomic configuration                                                                             
    2 entries                                                                                       
     n  l   j            E        occ.                                                              
     1  0  0.50        -6.4927   1.0000                                                             
     2  1  0.50        -3.4015   0.0000                                                             
   Description                                                                                      
     l       E           TYP  RCUT    TYP  RCUT                                                     
     0     -6.4927494     23  1.100                                                                 
     0      6.8029130     23  1.100                                                                 
     1     -4.0817478     23  1.100                                                                 
  local pseudopotential read in
  atomic valenz-charges read in
  non local Contribution for L=           0  read in
    real space projection operators read in
  non local Contribution for L=           0  read in
    real space projection operators read in
  non local Contribution for L=           1  read in
    real space projection operators read in
    PAW grid and wavefunctions read in

   number of l-projection  operators is LMAX  =           3
   number of lm-projection operators is LMMAX =           5

 POTCAR:    PAW_PBE Si 05Jan2001                  
   SHA256 =  79d9987ad8750f624c4d6acb2a16d13abf6a777132adc04dc6c8399be72b42bb Si/POTCAR             
   COPYR  = (c) Copyright 05Jan2001 Georg Kresse                                                    
   COPYR  = This file is part of the software VASP. Any use, copying, and all other rights are regul
   COPYR  = If you do not have a valid VASP license, you may not use, copy or distribute this file. 
   VRHFIN =Si: s2p2                                                                                 
   LEXCH  = PE                                                                                      
   EATOM  =   103.0669 eV,    7.5752 Ry                                                             
                                                                                                    
   TITEL  = PAW_PBE Si 05Jan2001                                                                    
   LULTRA =        F    use ultrasoft PP ?                                                          
   IUNSCR =        1    unscreen: 0-lin 1-nonlin 2-no                                               
   RPACOR =    1.500    partial core radius                                                         
   POMASS =   28.085; ZVAL   =    4.000    mass and valenz                                          
   RCORE  =    1.900    outmost cutoff radius                                                       
   RWIGS  =    2.480; RWIGS  =    1.312    wigner-seitz radius (au A)                               
   ENMAX  =  245.345; ENMIN  =  184.009 eV                                                          
   ICORE  =        2    local potential                                                             
   LCOR   =        T    correct aug charges                                                         
   LPAW   =        T    paw PP                                                                      
   EAUG   =  322.069                                                                                
   DEXC   =    0.000                                                                                
   RMAX   =    1.950    core radius for proj-oper                                                   
   RAUG   =    1.300    factor for augmentation sphere                                              
   RDEP   =    1.993    radius for radial grids                                                     
   RDEPT  =    1.837    core radius for aug-charge                                                  
                                                                                                    
   Atomic configuration                                                                             
    6 entries                                                                                       
     n  l   j            E        occ.                                                              
     1  0  0.50     -1785.8828   2.0000                                                             
     2  0  0.50      -139.4969   2.0000                                                             
     2  1  1.50       -95.5546   6.0000                                                             
     3  0  0.50       -10.8127   2.0000                                                             
     3  1  0.50        -4.0811   2.0000                                                             
     3  2  1.50        -4.0817   0.0000                                                             
   Description                                                                                      
     l       E           TYP  RCUT    TYP  RCUT                                                     
     0    -10.8127223     23  1.900                                                                 
     0     -7.6451159     23  1.900                                                                 
     1     -4.0811372     23  1.900                                                                 
     1      2.4879257     23  1.900                                                                 
     2     -4.0817478      7  1.900                                                                 
  local pseudopotential read in
  partial core-charges read in
  partial kinetic energy density read in
  atomic valenz-charges read in
  non local Contribution for L=           0  read in
    real space projection operators read in
  non local Contribution for L=           0  read in
    real space projection operators read in
  non local Contribution for L=           1  read in
    real space projection operators read in
  non local Contribution for L=           1  read in
    real space projection operators read in
    PAW grid and wavefunctions read in

   number of l-projection  operators is LMAX  =           4
   number of lm-projection operators is LMMAX =           8

 -----------------------------------------------------------------------------
|                                                                             |
|               ----> ADVICE to this user running VASP <----                  |
|                                                                             |
|     You have a (more or less) 'large supercell' and for larger cells it     |
|     might be more efficient to use real-space projection operators.         |
|     Therefore, try LREAL= Auto in the INCAR file.                           |
|     Mind: For very accurate calculation, you might also keep the            |
|     reciprocal projection scheme (i.e. LREAL=.FALSE.).                      |
|                                                                             |
 -----------------------------------------------------------------------------

 -----------------------------------------------------------------------------
|                                                                             |
|               ----> ADVICE to this user running VASP <----                  |
|                                                                             |
|     You enforced a specific xc type in the INCAR file but a different       |
|     type was found in the POTCAR file.                                      |
|     I HOPE YOU KNOW WHAT YOU ARE DOING!                                     |
|                                                                             |
 -----------------------------------------------------------------------------

  PAW_PBE H 15Jun2001                   :
 energy of atom  1       EATOM=  -12.4884
 kinetic energy error for atom=    0.0000 (will be added to EATOM!!)
  PAW_PBE Si 05Jan2001                  :
 energy of atom  2       EATOM= -103.0669
 kinetic energy error for atom=    0.0001 (will be added to EATOM!!)


 POSCAR:  H Si
  positions in cartesian coordinates
  No initial velocities read in


 exchange-correlation table for SCAN
   RHO(1)=    0.500       N(1)  =     2000
   RHO(2)=  100.500       N(2)  =     4000



--------------------------------------------------------------------------------------------------------


 ion  position               nearest neighbor table
   1  0.242  0.564  0.574-  52 1.51
   2  0.603  0.551  0.410-  57 2.41  46 2.43
   3  0.265  0.360  0.400-  54 2.33  24 2.34
   4  0.410  0.189  0.482-  54 2.29  14 2.35  29 2.38  53 2.47
   5  0.345  0.720  0.406-  10 2.34  11 2.36  58 2.54
   6  0.272  0.023  0.574-  62 2.34  12 2.35  53 2.42
   7  0.970  0.236  0.454-  42 2.37  15 2.38  63 2.40  27 2.45
   8  0.182  0.095  0.440-  63 2.31  54 2.33   9 2.35  12 2.45
   9  0.276  0.978  0.405-   8 2.35  58 2.37
  10  0.355  0.612  0.474-  38 2.28   5 2.34  57 2.42  25 2.45
  11  0.189  0.761  0.414-  19 2.24   5 2.36  55 2.50
  12  0.147  0.099  0.534-   6 2.35  31 2.44   8 2.45  48 2.56
  13  0.652  0.721  0.594-  20 2.32  23 2.35
  14  0.413  0.293  0.552-   4 2.35  16 2.45  44 2.46
  15  0.854  0.279  0.393-  39 2.25   7 2.38
  16  0.512  0.429  0.541-  47 2.30  14 2.45  56 2.45  57 2.47
  17  0.097  0.651  0.527-  55 2.36  59 2.38  25 2.40  51 2.54
  18  0.558  0.094  0.581-  50 2.33  34 2.35  53 2.36
  19  0.103  0.639  0.393-  11 2.24  51 2.33  25 2.65
  20  0.589  0.696  0.511-  13 2.32  28 2.35  38 2.49  46 2.57  23 2.95
  21  0.400  0.815  0.570-  62 2.36  41 2.37  38 2.39
  22  0.841  0.587  0.603-  23 2.32  59 2.42  61 2.45
  23  0.784  0.692  0.543-  22 2.32  13 2.35  35 2.37  46 2.43  20 2.95
  24  0.183  0.406  0.475-  25 2.25  44 2.28   3 2.34  27 2.34
  25  0.195  0.560  0.471-  24 2.25  17 2.40  10 2.45  19 2.65
  26  0.840  0.680  0.418-  51 2.28  46 2.29
  27  0.027  0.379  0.493-  33 2.17  24 2.34  40 2.36   7 2.45
  28  0.624  0.844  0.482-  20 2.35  37 2.39  41 2.52
  29  0.533  0.182  0.419-  32 2.33   4 2.38
  30  0.874  0.332  0.603-  40 2.22  49 2.29  61 2.37
  31  0.000  0.022  0.550-  42 2.35  43 2.36  12 2.44
  32  0.668  0.197  0.468-  50 2.24  29 2.33  45 2.44  39 2.50
  33  0.952  0.487  0.453-  27 2.17  36 2.29  51 2.30
  34  0.687  1.000  0.591-  37 2.33  18 2.35
  35  0.863  0.835  0.542-  37 2.32  23 2.37  43 2.41
  36  0.801  0.470  0.476-  61 2.27  33 2.29  39 2.38  46 2.39
  37  0.749  0.936  0.515-  35 2.32  34 2.33  28 2.39  45 2.41
  38  0.433  0.659  0.547-  10 2.28  56 2.33  21 2.39  20 2.49
  39  0.730  0.345  0.432-  15 2.25  36 2.38  32 2.50
  40  0.021  0.360  0.585-  30 2.22  27 2.36  48 2.40
  41  0.467  0.906  0.503-  58 2.26  53 2.34  21 2.37  28 2.52
  42  0.899  0.133  0.514-  45 2.28  31 2.35   7 2.37  49 2.37
  43  0.996  0.892  0.495-  31 2.36  35 2.41  55 2.46  60 2.54
  44  0.254  0.351  0.548-  52 2.23  24 2.28  48 2.43  14 2.46
  45  0.782  0.073  0.466-  42 2.28  37 2.41  32 2.44
  46  0.724  0.614  0.466-  26 2.29  36 2.39  23 2.43   2 2.43  20 2.57
  47  0.642  0.377  0.584-  16 2.30  61 2.31  50 2.40
  48  0.142  0.248  0.588-  40 2.40  44 2.43  12 2.56
  49  0.804  0.195  0.582-  30 2.29  42 2.37  50 2.43
  50  0.646  0.220  0.554-  32 2.24  18 2.33  47 2.40  49 2.43
  51  0.981  0.643  0.452-  26 2.28  33 2.30  19 2.33  17 2.54
  52  0.235  0.472  0.601-   1 1.51  44 2.23
  53  0.422  0.049  0.536-  41 2.34  18 2.36   6 2.42   4 2.47
  54  0.292  0.207  0.423-   4 2.29   3 2.33   8 2.33
  55  0.140  0.803  0.505-  17 2.36  43 2.46  11 2.50  62 2.51
  56  0.461  0.541  0.607-  38 2.33  16 2.45
  57  0.469  0.494  0.455-   2 2.41  10 2.42  16 2.47
  58  0.404  0.882  0.423-  41 2.26   9 2.37   5 2.54
  59  0.006  0.606  0.601-  17 2.38  22 2.42
  60  0.990  0.915  0.396-  43 2.54
  61  0.781  0.446  0.564-  36 2.27  47 2.31  30 2.37  22 2.45
  62  0.245  0.864  0.576-   6 2.34  21 2.36  55 2.51
  63  0.053  0.141  0.394-   8 2.31   7 2.40

  LATTYP: Found a simple tetragonal cell.
 ALAT       =    14.5237936979
 C/A-ratio  =     1.7515810214
  
  Lattice vectors:
  
 A1 = (  14.5237936979,   0.0000000000,   0.0000000000)
 A2 = (   0.0000000000,  14.5237936979,   0.0000000000)
 A3 = (   0.0000000000,   0.0000000000,  25.4396014000)


Analysis of symmetry for initial positions (statically):
=====================================================================
 Subroutine PRICEL returns:
 Original cell was already a primitive cell.
 

 Routine SETGRP: Setting up the symmetry group for a 
 simple tetragonal supercell.


 Subroutine GETGRP returns: Found  1 space group operations
 (whereof  1 operations were pure point group operations)
 out of a pool of 16 trial point group operations.


The static configuration has the point symmetry C_1 .


Analysis of symmetry for dynamics (positions and initial velocities):
=====================================================================
 Subroutine PRICEL returns:
 Original cell was already a primitive cell.
 

 Routine SETGRP: Setting up the symmetry group for a 
 simple tetragonal supercell.


 Subroutine GETGRP returns: Found  1 space group operations
 (whereof  1 operations were pure point group operations)
 out of a pool of 16 trial point group operations.


The dynamic configuration has the point symmetry C_1 .


 Subroutine INISYM returns: Found  1 space group operations
 (whereof  1 operations are pure point group operations),
 and found     1 'primitive' translations


----------------------------------------------------------------------------------------

                                     Primitive cell                                     

  volume of cell :    5366.2444

  direct lattice vectors                    reciprocal lattice vectors
    14.523793698  0.000000000  0.000000000     0.068852534  0.000000000  0.000000000
     0.000000000 14.523793698  0.000000000     0.000000000  0.068852534  0.000000000
     0.000000000  0.000000000 25.439601400     0.000000000  0.000000000  0.039308792

  length of vectors
    14.523793698 14.523793698 25.439601400     0.068852534  0.068852534  0.039308792

  position of ions in fractional coordinates (direct lattice)
     0.242380199  0.564244451  0.573766513
     0.603469740  0.550783780  0.410084743
     0.265016846  0.360052622  0.400172520
     0.410446480  0.189364436  0.481822070
     0.345216278  0.719612260  0.406070057
     0.272001936  0.022576195  0.574221709
     0.969781057  0.236138028  0.454471405
     0.181843674  0.095171415  0.439955848
     0.275640104  0.978298115  0.404965323
     0.355287338  0.611939290  0.474079024
     0.188658697  0.761357551  0.414304463
     0.147369898  0.098574796  0.534278473
     0.651673399  0.721395540  0.593656762
     0.413394057  0.293460516  0.552274038
     0.853647488  0.278724697  0.393172976
     0.512434296  0.428707549  0.541298237
     0.096598040  0.651196939  0.527014209
     0.557661460  0.094296299  0.580636118
     0.103110112  0.638870958  0.393087920
     0.588573494  0.695720430  0.510989586
     0.399635944  0.814828429  0.569977932
     0.841315999  0.587121394  0.603463127
     0.783961838  0.692057475  0.543232230
     0.182778691  0.406204475  0.474596328
     0.194657819  0.560277168  0.471330160
     0.840104194  0.679766610  0.417910416
     0.027289702  0.379111692  0.493298665
     0.624415369  0.844496986  0.481529219
     0.532718253  0.181818887  0.419480252
     0.874234395  0.331527706  0.603193861
     0.000088520  0.022305949  0.549754738
     0.668122269  0.197208805  0.468138286
     0.952402677  0.486705481  0.452617996
     0.687494618  0.999683506  0.590804123
     0.863417662  0.834761237  0.541644548
     0.801264480  0.469634184  0.476481184
     0.748509668  0.935533806  0.514615823
     0.433356472  0.659143899  0.546885982
     0.730497845  0.344624146  0.431650686
     0.020819010  0.360294294  0.585443190
     0.466586771  0.906002954  0.502907306
     0.899241636  0.132755259  0.514452691
     0.995821085  0.891537037  0.494748766
     0.254368802  0.351059104  0.548072322
     0.781510688  0.073447752  0.465542334
     0.724149642  0.613743226  0.465920484
     0.641662929  0.376675689  0.584376350
     0.142190122  0.247951746  0.587800145
     0.804466122  0.195249262  0.581626700
     0.645871884  0.220278535  0.554168329
     0.980652872  0.642788668  0.452218225
     0.235163764  0.472367629  0.600857347
     0.422172067  0.049256277  0.536198708
     0.292420155  0.207449931  0.423240570
     0.139629496  0.803378252  0.505370002
     0.461481355  0.541355803  0.606912080
     0.469084741  0.494370834  0.455371184
     0.403520604  0.881938994  0.422695396
     0.006476352  0.606413874  0.600859312
     0.990264686  0.914988210  0.395741476
     0.780698228  0.445667305  0.563829644
     0.245157710  0.863596679  0.575700506
     0.052674874  0.140609956  0.393734605

  ion indices of the primitive-cell ions
   primitive index   ion index
                 1           1
                 2           2
                 3           3
                 4           4
                 5           5
                 6           6
                 7           7
                 8           8
                 9           9
                10          10
                11          11
                12          12
                13          13
                14          14
                15          15
                16          16
                17          17
                18          18
                19          19
                20          20
                21          21
                22          22
                23          23
                24          24
                25          25
                26          26
                27          27
                28          28
                29          29
                30          30
                31          31
                32          32
                33          33
                34          34
                35          35
                36          36
                37          37
                38          38
                39          39
                40          40
                41          41
                42          42
                43          43
                44          44
                45          45
                46          46
                47          47
                48          48
                49          49
                50          50
                51          51
                52          52
                53          53
                54          54
                55          55
                56          56
                57          57
                58          58
                59          59
                60          60
                61          61
                62          62
                63          63

----------------------------------------------------------------------------------------


 -----------------------------------------------------------------------------
|                                                                             |
|           W    W    AA    RRRRR   N    N  II  N    N   GGGG   !!!           |
|           W    W   A  A   R    R  NN   N  II  NN   N  G    G  !!!           |
|           W    W  A    A  R    R  N N  N  II  N N  N  G       !!!           |
|           W WW W  AAAAAA  RRRRR   N  N N  II  N  N N  G  GGG   !            |
|           WW  WW  A    A  R   R   N   NN  II  N   NN  G    G                |
|           W    W  A    A  R    R  N    N  II  N    N   GGGG   !!!           |
|                                                                             |
|     The requested file  could not be found or opened for reading            |
|     k-point information. Automatic k-point generation is used as a          |
|     fallback, which may lead to unwanted results.                           |
|                                                                             |
 -----------------------------------------------------------------------------



Automatic generation of k-mesh.
 Grid dimensions derived from KSPACING:
 generate k-points for:    2    2    2

 Generating k-lattice:

  Cartesian coordinates                     Fractional coordinates (reciprocal lattice)
     0.034426267  0.000000000  0.000000000     0.500000000  0.000000000  0.000000000
     0.000000000  0.034426267  0.000000000     0.000000000  0.500000000  0.000000000
     0.000000000  0.000000000  0.019654396     0.000000000  0.000000000  0.500000000

  Length of vectors
     0.034426267  0.034426267  0.019654396

  Shift w.r.t. Gamma in fractional coordinates (k-lattice)
     0.000000000  0.000000000  0.000000000

 
 Subroutine IBZKPT returns following result:
 ===========================================
 
 Found      8 irreducible k-points:
 
 Following reciprocal coordinates:
            Coordinates               Weight
  0.000000  0.000000  0.000000      1.000000
  0.500000  0.000000  0.000000      1.000000
  0.000000  0.500000  0.000000      1.000000
  0.500000  0.500000  0.000000      1.000000
  0.000000  0.000000  0.500000      1.000000
  0.500000  0.000000  0.500000      1.000000
  0.000000  0.500000  0.500000      1.000000
  0.500000  0.500000  0.500000      1.000000
 
 Following cartesian coordinates:
            Coordinates               Weight
  0.000000  0.000000  0.000000      1.000000
  0.034426  0.000000  0.000000      1.000000
  0.000000  0.034426  0.000000      1.000000
  0.034426  0.034426  0.000000      1.000000
  0.000000  0.000000  0.019654      1.000000
  0.034426  0.000000  0.019654      1.000000
  0.000000  0.034426  0.019654      1.000000
  0.034426  0.034426  0.019654      1.000000
 


--------------------------------------------------------------------------------------------------------




 Dimension of arrays:
   k-points           NKPTS =      8   k-points in BZ     NKDIM =      8   number of bands    NBANDS=    160
   number of dos      NEDOS =   2000   number of ions     NIONS =     63
   non local maximal  LDIM  =      4   non local SUM 2l+1 LMDIM =      8
   total plane-waves  NPLWV = ******
   max r-space proj   IRMAX =      1   max aug-charges    IRDMAX= 405316
   dimension x,y,z NGX =   168 NGY =  168 NGZ =  288
   dimension x,y,z NGXF=   336 NGYF=  336 NGZF=  576
   support grid    NGXF=   672 NGYF=  672 NGZF= 1152
   ions per type =               1  62
   NGX,Y,Z   is equivalent  to a cutoff of  19.23, 19.23, 18.82 a.u.
   NGXF,Y,Z  is equivalent  to a cutoff of  38.46, 38.46, 37.64 a.u.

 SYSTEM =  a-Si SPC                                
 POSCAR =   H Si                                   

 Startparameter for this run:
   NWRITE =      2    write-flag & timer
   PREC   = accura    normal or accurate (medium, high low for compatibility)
   ISTART =      1    job   : 0-new  1-cont  2-samecut
   ICHARG =      1    charge: 1-file 2-atom 10-const
   ISPIN  =      1    spin polarized calculation?
   LNONCOLLINEAR =      F non collinear calculations
   LSORBIT =      F    spin-orbit coupling
   INIWAV =      1    electr: 0-lowe 1-rand  2-diag
   LASPH  =      T    aspherical Exc in radial PAW
 Electronic Relaxation 1
   ENCUT  = 1200.0 eV  88.20 Ry    9.39 a.u.  41.02 41.02 71.86*2*pi/ulx,y,z
   ENINI  = 1200.0     initial cutoff
   ENAUG  =  400.0 eV  augmentation charge cutoff
   NELM   =    150;   NELMIN=  2; NELMDL=  0     # of ELM steps 
   EDIFF  = 0.1E-05   stopping-criterion for ELM
   LREAL  =      F    real-space projection
   NLSPLINE    = F    spline interpolate recip. space projectors
   LCOMPAT=      F    compatible to vasp.4.4
   GGA_COMPAT  = T    GGA compatible to vasp.4.4-vasp.4.6
   LMAXPAW     = -100 max onsite density
   LMAXMIX     =    2 max onsite mixed and CHGCAR
   VOSKOWN=      0    Vosko Wilk Nusair interpolation
   ROPT   =    0.00000   0.00000
 Ionic relaxation
   EDIFFG = -.1E-01   stopping-criterion for IOM
   NSW    =      0    number of steps for IOM
   NBLOCK =      1;   KBLOCK =      1    inner block; outer block 
   IBRION =     -1    ionic relax: 0-MD 1-quasi-New 2-CG
   NFREE  =      0    steps in history (QN), initial steepest desc. (CG)
   ISIF   =      2    stress and relaxation
   IWAVPR =     10    prediction:  0-non 1-charg 2-wave 3-comb
   ISYM   =      1    0-nonsym 1-usesym 2-fastsym
   LCORR  =      T    Harris-Foulkes like correction to forces

   POTIM  = 0.5000    time-step for ionic-motion
   TEIN   =    0.0    initial temperature
   TEBEG  =    0.0;   TEEND  =   0.0 temperature during run
   SMASS  =  -3.00    Nose mass-parameter (am)
   estimated Nose-frequenzy (Omega)   =  0.10E-29 period in steps = 0.13E+47 mass=  -0.482E-26a.u.
   SCALEE = 1.0000    scale energy and forces
   NPACO  =    256;   APACO  = 10.0  distance and # of slots for P.C.
   PSTRESS=    0.0 pullay stress

  Mass of Ions in am
   POMASS =   1.00 28.09
  Ionic Valenz
   ZVAL   =   1.00  4.00
  Atomic Wigner-Seitz radii
   RWIGS  =  -1.00 -1.00
  virtual crystal weights 
   VCA    =   1.00  1.00
   NELECT =     249.0000    total number of electrons
   NUPDOWN=      -1.0000    fix difference up-down

 DOS related values:
   EMIN   =  10.00;   EMAX   =-10.00  energy-range for DOS
   EFERMI =   0.00;   METHOD = LEGACY      
   ISMEAR =     0;   SIGMA  =   0.10  broadening in eV -4-tet -1-fermi 0-gaus
   EFERMI_NEDOS =   21; number of points for ismear=-14 and -15

 Electronic relaxation 2 (details)
   IALGO  =     38    algorithm
   LDIAG  =      F    sub-space diagonalisation (order eigenvalues)
   LSUBROT=      F    optimize rotation matrix (better conditioning)
   TURBO    =      0    0=normal 1=particle mesh
   IRESTART =      0    0=no restart 2=restart with 2 vectors
   NREBOOT  =      0    no. of reboots
   NMIN     =      0    reboot dimension
   EREF     =   0.00    reference energy to select bands
   IMIX   =      4    mixing-type and parameters
     AMIX     =   0.40;   BMIX     =  1.00
     AMIX_MAG =   1.60;   BMIX_MAG =  1.00
     AMIN     =   0.10
     WC   =   100.;   INIMIX=   1;  MIXPRE=   1;  MAXMIX= -45

 Intra band minimization:
   WEIMIN = 0.0000     energy-eigenvalue tresh-hold
   EBREAK =  0.16E-08  absolut break condition
   DEPER  =   0.30     relativ break condition  

   TIME   =   0.40     timestep for ELM

  volume/ion in A,a.u.               =      85.18       574.81
  Fermi-wavevector in a.u.,A,eV,Ry     =   0.588281  1.111689  4.708622  0.346074
  Thomas-Fermi vector in A             =   1.635483

 Write flags
   LWAVE        =      F    write WAVECAR
   LDOWNSAMPLE  =      F    k-point downsampling of WAVECAR
   LCHARG       =      F    write CHGCAR
   LVTOT        =      F    write LOCPOT, total local potential
   LVHAR        =      F    write LOCPOT, Hartree potential only
   WRT_POTENTIAL= false  ! write potential to hdf5 file
   LELF         =      F    write electronic localiz. function (ELF)
   LORBIT       =     11    0 simple, 1 ext, 2 COOP (PROOUT), +10 PAW based schemes


 Python interface
   PLUGINS active      =      F    recompile with -DPLUGINS to activate

 Dipole corrections
   LMONO      =      F    monopole corrections only (constant potential shift)
   LDIPOL     =      F    correct potential (dipole corrections)
   IDIPOL     =      0    1-x, 2-y, 3-z, 4-all directions 
   EPSILON    =  1.0000000 bulk dielectric constant
   LVACPOTAV  =      F  vacuum potentials using an averaging scheme for the charge density
   VACPOTFLAT =  0.1000000 required flatness to determine vacuum potential

Coulomb truncation method
  LTRUNCATE          =      F  Coulomb kernel truncation to be used
  IDIMENSIONALITY    =      3  Dimensionality of cutoff (0 molecules / 2 surfaces)
  ISURFACE           =     -1  Direction of surface normal
  LCOARSEN           =      F  Coarsen the charge grid before padding, preferred


 Exchange correlation treatment:
   METAGGA = SCAN    functional components
   XC_C    = 1    coefficients multiplying the functional components
   LIBXC   =     F    Libxc                    
   VOSKOWN =     0    Vosko Wilk Nusair interpolation
   LHFCALC =     F    Hartree Fock is set to
   LHFONE  =     F    Hartree Fock one center treatment
   AEXX    =    0.0000 exact exchange contribution

 Parameters of functionals:
   SCAN:
     P1 =  0.000000E+00
     P2 =  0.000000E+00
     P3 =  0.000000E+00

 Accuracy and mixing parameters for tau-dependent meta-GGA functionals:
   LMAXTAU = 6
   LMIXTAU = T

 Van der Waals corrections
   IVDW    =     0    specifies the selected vdW correction

 Linear response parameters
   LEPSILON=     F    determine dielectric tensor
   LRPA    =     F    only Hartree local field effects (RPA)
   LNABLA  =     F    use nabla operator in PAW spheres
   LVEL    =     F    velocity operator in full k-point grid
   CSHIFT  =0.1000    complex shift for real part using Kramers Kronig
   OMEGAMAX=  -1.0    maximum frequency
   DEG_THRESHOLD= 0.2000000E-02 threshold for treating states as degnerate
   RTIME   =   -0.100 relaxation time in fs
  (WPLASMAI=    0.000 imaginary part of plasma frequency in eV, 0.658/RTIME)
   DFIELD  = 0.0000000 0.0000000 0.0000000 field for delta impulse in time

  Optional k-point grid parameters
   LKPOINTS_OPT  =     F    use optional k-point grid
   KPOINTS_OPT_MODE=     1    mode for optional k-point grid

 Orbital magnetization related:
   ORBITALMAG=     F  switch on orbital magnetization
   LCHIMAG   =     F  perturbation theory with respect to B field
   DQ        =  0.001000  dq finite difference perturbation B field
   LLRAUG    =     F  two centre corrections for induced B field
   LBONE     =     F  B-component reconstruction in AE one-centre
   LVGVCALC  =     T  calculate vGv susceptibility
   LVGVAPPL  =     F  apply vGv susceptibility instead of pGv for G=0

 Random number generation:
   RANDOM_GENERATOR = DEFAULT
   PCG_SEED         = not used


--------------------------------------------------------------------------------------------------------


 Static calculation
 charge density and potential will be updated during run
 non-spin polarized calculation
 Variant of blocked Davidson
 perform Loewdin sub-space diagonalisation
    ordering is kept fixed
    before iterative eigenvector-optimisation
 modified Broyden-mixing scheme, WC =      100.0
 initial mixing is a Kerker type mixing with AMIX =  0.4000 and BMIX =      1.0000
 Hartree-type preconditioning will be used
 using additional bands           35
 reciprocal scheme for non local part
 use partial core corrections
 calculate Harris-corrections to forces   (improved forces if not selfconsistent)
 use gradient corrections 
 use of overlap-Matrix (Vanderbilt PP)
 Gauss-broadening in eV      SIGMA  =   0.10


--------------------------------------------------------------------------------------------------------


  energy-cutoff  :     1200.00
  volume of cell :     5366.24
      direct lattice vectors                 reciprocal lattice vectors
    14.523793698  0.000000000  0.000000000     0.068852534  0.000000000  0.000000000
     0.000000000 14.523793698  0.000000000     0.000000000  0.068852534  0.000000000
     0.000000000  0.000000000 25.439601400     0.000000000  0.000000000  0.039308792

  length of vectors
    14.523793698 14.523793698 25.439601400     0.068852534  0.068852534  0.039308792



 old parameters found on file WAVECAR:
  energy-cutoff  :     1200.00
  volume of cell :     5366.24
      direct lattice vectors                 reciprocal lattice vectors
    14.523793698  0.000000000  0.000000000     0.068852534  0.000000000  0.000000000
     0.000000000 14.523793698  0.000000000     0.000000000  0.068852534  0.000000000
     0.000000000  0.000000000 25.439601400     0.000000000  0.000000000  0.039308792

  length of vectors


 k-points in units of 2pi/SCALE and weight: read from INCAR                         
   0.00000000  0.00000000  0.00000000       0.125
   0.03442627  0.00000000  0.00000000       0.125
   0.00000000  0.03442627  0.00000000       0.125
   0.03442627  0.03442627  0.00000000       0.125
   0.00000000  0.00000000  0.01965440       0.125
   0.03442627  0.00000000  0.01965440       0.125
   0.00000000  0.03442627  0.01965440       0.125
   0.03442627  0.03442627  0.01965440       0.125

 k-points in reciprocal lattice and weights: read from INCAR                         
   0.00000000  0.00000000  0.00000000       0.125
   0.50000000  0.00000000  0.00000000       0.125
   0.00000000  0.50000000  0.00000000       0.125
   0.50000000  0.50000000  0.00000000       0.125
   0.00000000  0.00000000  0.50000000       0.125
   0.50000000  0.00000000  0.50000000       0.125
   0.00000000  0.50000000  0.50000000       0.125
   0.50000000  0.50000000  0.50000000       0.125

 position of ions in fractional coordinates (direct lattice) 
   0.24238020  0.56424445  0.57376651
   0.60346974  0.55078378  0.41008474
   0.26501685  0.36005262  0.40017252
   0.41044648  0.18936444  0.48182207
   0.34521628  0.71961226  0.40607006
   0.27200194  0.02257620  0.57422171
   0.96978106  0.23613803  0.45447141
   0.18184367  0.09517142  0.43995585
   0.27564010  0.97829812  0.40496532
   0.35528734  0.61193929  0.47407902
   0.18865870  0.76135755  0.41430446
   0.14736990  0.09857480  0.53427847
   0.65167340  0.72139554  0.59365676
   0.41339406  0.29346052  0.55227404
   0.85364749  0.27872470  0.39317298
   0.51243430  0.42870755  0.54129824
   0.09659804  0.65119694  0.52701421
   0.55766146  0.09429630  0.58063612
   0.10311011  0.63887096  0.39308792
   0.58857349  0.69572043  0.51098959
   0.39963594  0.81482843  0.56997793
   0.84131600  0.58712139  0.60346313
   0.78396184  0.69205748  0.54323223
   0.18277869  0.40620448  0.47459633
   0.19465782  0.56027717  0.47133016
   0.84010419  0.67976661  0.41791042
   0.02728970  0.37911169  0.49329866
   0.62441537  0.84449699  0.48152922
   0.53271825  0.18181889  0.41948025
   0.87423440  0.33152771  0.60319386
   0.00008852  0.02230595  0.54975474
   0.66812227  0.19720881  0.46813829
   0.95240268  0.48670548  0.45261800
   0.68749462  0.99968351  0.59080412
   0.86341766  0.83476124  0.54164455
   0.80126448  0.46963418  0.47648118
   0.74850967  0.93553381  0.51461582
   0.43335647  0.65914390  0.54688598
   0.73049785  0.34462415  0.43165069
   0.02081901  0.36029429  0.58544319
   0.46658677  0.90600295  0.50290731
   0.89924164  0.13275526  0.51445269
   0.99582109  0.89153704  0.49474877
   0.25436880  0.35105910  0.54807232
   0.78151069  0.07344775  0.46554233
   0.72414964  0.61374323  0.46592048
   0.64166293  0.37667569  0.58437635
   0.14219012  0.24795175  0.58780015
   0.80446612  0.19524926  0.58162670
   0.64587188  0.22027854  0.55416833
   0.98065287  0.64278867  0.45221823
   0.23516376  0.47236763  0.60085735
   0.42217207  0.04925628  0.53619871
   0.29242015  0.20744993  0.42324057
   0.13962950  0.80337825  0.50537000
   0.46148136  0.54135580  0.60691208
   0.46908474  0.49437083  0.45537118
   0.40352060  0.88193899  0.42269540
   0.00647635  0.60641387  0.60085931
   0.99026469  0.91498821  0.39574148
   0.78069823  0.44566731  0.56382964
   0.24515771  0.86359668  0.57570051
   0.05267487  0.14060996  0.39373460

 position of ions in cartesian coordinates  (Angst):
   3.52028000  8.19497000 14.59639140
   8.76467000  7.99947000 10.43239240
   3.84905000  5.22933000 10.18022940
   5.96124000  2.75029000 12.25736140
   5.01385000 10.45150000 10.33026040
   3.95050000  0.32789200 14.60797140
  14.08490000  3.42962000 11.56157140
   2.64106000  1.38225000 11.19230140
   4.00334000 14.20860000 10.30215640
   5.16012000  8.88768000 12.06038140
   2.74004000 11.05780000 10.53974040
   2.14037000  1.43168000 13.59183140
   9.46477000 10.47740000 15.10239140
   6.00405000  4.26216000 14.04963140
  12.39820000  4.04814000 10.00216380
   7.44249000  6.22646000 13.77041140
   1.40297000  9.45785000 13.40703140
   8.09936000  1.36954000 14.77115140
   1.49755000  9.27883000 10.00000000
   8.54832000 10.10450000 12.99937140
   5.80423000 11.83440000 14.50001140
  12.21910000  8.52723000 15.35186140
  11.38610000 10.05130000 13.81961140
   2.65464000  5.89963000 12.07354140
   2.82717000  8.13735000 11.99045140
  12.20150000  9.87279000 10.63147440
   0.39635000  5.50614000 12.54932140
   9.06888000 12.26530000 12.24991140
   7.73709000  2.64070000 10.67141040
  12.69720000  4.81504000 15.34501140
   0.00128564  0.32396700 13.98554140
   9.70367000  2.86422000 11.90925140
  13.83250000  7.06881000 11.51442140
   9.98503000 14.51919700 15.02982140
  12.54010000 12.12390000 13.77922140
  11.63740000  6.82087000 12.12149140
  10.87120000 13.58750000 13.09162140
   6.29398000  9.57327000 13.91256140
  10.60960000  5.00525000 10.98102140
   0.30237100  5.23284000 14.89344140
   6.77661000 13.15860000 12.79376140
  13.06040000  1.92811000 13.08747140
  14.46310000 12.94850000 12.58621140
   3.69440000  5.09871000 13.94274140
  11.35050000  1.06674000 11.84321140
  10.51740000  8.91388000 11.85283140
   9.31938000  5.47076000 14.86630140
   2.06514000  3.60120000 14.95340140
  11.68390000  2.83576000 14.79635140
   9.38051000  3.19928000 14.09782140
  14.24280000  9.33573000 11.50425140
   3.41547000  6.86057000 15.28557140
   6.13154000  0.71538800 13.64068140
   4.24705000  3.01296000 10.76707140
   2.02795000 11.66810000 12.85641140
   6.70246000  7.86254000 15.43960140
   6.81289000  7.18014000 11.58446140
   5.86065000 12.80910000 10.75320240
   0.09406120  8.80743000 15.28562140
  14.38240000 13.28910000 10.06750540
  11.33870000  6.47278000 14.34360140
   3.56062000 12.54270000 14.64559140
   0.76503900  2.04219000 10.01645140



--------------------------------------------------------------------------------------------------------


 k-point     1 :   0.0000 0.0000 0.0000  plane waves:  506503
 k-point     2 :   0.5000 0.0000 0.0000  plane waves:  506514
 k-point     3 :   0.0000 0.5000 0.0000  plane waves:  506514
 k-point     4 :   0.5000 0.5000 0.0000  plane waves:  506332
 k-point     5 :   0.0000 0.0000 0.5000  plane waves:  506224
 k-point     6 :   0.5000 0.0000 0.5000  plane waves:  506596
 k-point     7 :   0.0000 0.5000 0.5000  plane waves:  506596
 k-point     8 :   0.5000 0.5000 0.5000  plane waves:  506504

 maximum and minimum number of plane-waves per node :     31766    31554

 maximum number of plane-waves:    506596
 maximum index in each direction: 
   IXMAX=   41   IYMAX=   41   IZMAX=   71
   IXMIN=  -41   IYMIN=  -41   IZMIN=  -72


 parallel 3D FFT for wavefunctions:
    minimum data exchange during FFTs selected (reduces bandwidth)
 parallel 3D FFT for charge:
    minimum data exchange during FFTs selected (reduces bandwidth)


 total amount of memory used by VASP MPI-rank0   349210. kBytes
=======================================================================

   base                                    :      30000. kBytes
   nonl-proj                               :      64390. kBytes
   fftplans                                :      98000. kBytes
   grid                                    :      75605. kBytes
   one-center                              :         12. kBytes
   wavefun                                 :      81203. kBytes

     INWAV:  cpu time     24.8275: real time     24.8447
 Broyden mixing: mesh for mixing (old mesh)
   NGX = 83   NGY = 83   NGZ =143
  (NGX  =336   NGY  =336   NGZ  =576)
  gives a total of 985127 points

 initial charge density was supplied:
 number of electron     248.9999999 magnetization 
 keeping initial charge density in first step


--------------------------------------------------------------------------------------------------------


 Maximum index for augmentation-charges        11247 (set IRDMAX)


--------------------------------------------------------------------------------------------------------


 First call to EWALD:  gamma=   0.101
 Maximum number of real-space cells   3x   3x   2
 Maximum number of reciprocal cells   2x   2x   4

    FEWALD:  cpu time      0.0112: real time      0.0116


--------------------------------------- Ionic step        1  -------------------------------------------




--------------------------------------- Iteration      1(   1)  ---------------------------------------


    POTLOK:  cpu time      2.0010: real time      2.0020
    SETDIJ:  cpu time      1.3264: real time      1.3274
    EDDIAG:  cpu time     47.8238: real time     47.8487
     EDDAV:  cpu time    208.3151: real time    208.4358
       DOS:  cpu time      0.0086: real time      0.0088
    CHARGE:  cpu time     27.1029: real time     27.1287
    MIXING:  cpu time      0.0463: real time      0.0470
    --------------------------------------------
      LOOP:  cpu time    286.6242: real time    286.7984

 eigenvalue-minimisations  :  2560
 total energy-change (2. order) :-0.6041906E+03  (-0.7125346E+00)
 number of electron     248.9999999 magnetization 
 augmentation part      -14.4622013 magnetization 

 Broyden mixing:
  rms(total) = 0.88361E+00    rms(broyden)= 0.22874E+02
  rms(prec ) = 0.91426E+00
  weight for this iteration     100.00
  WARNING: grid for Broyden might be to small

 Free energy of the ion-electron system (eV)
  ---------------------------------------------------
  alpha Z        PSCENC =        24.32417353
  Ewald energy   TEWEN  =     26552.22688790
  -Hartree energ DENC   =    -32040.97017869
  -exchange      EXHF   =         0.00000000
  -V(xc)+E(xc)   XCENC  =      -320.99326927
  PAW double counting   =     19295.76898214   -18676.37910060
  entropy T*S    EENTRO =        -0.21359266
  eigenvalues    EBANDS =     -1840.58670122
  atomic energy  EATOM  =      6402.63218022
  Solvation  Ediel_sol  =         0.00000000
  ---------------------------------------------------
  free energy    TOTEN  =      -604.19061864 eV

  energy without entropy =     -603.97702598  energy(sigma->0) =     -604.08382231


--------------------------------------------------------------------------------------------------------




--------------------------------------- Iteration      1(   2)  ---------------------------------------


    POTLOK:  cpu time      1.9671: real time      1.9840
    SETDIJ:  cpu time      1.3163: real time      1.3169
    EDDIAG:  cpu time     47.8458: real time     47.8699
     EDDAV:  cpu time    208.3212: real time    208.4420
       DOS:  cpu time      0.0036: real time      0.0036
    CHARGE:  cpu time     27.0265: real time     27.0503
    MIXING:  cpu time      0.0398: real time      0.0409
    --------------------------------------------
      LOOP:  cpu time    286.5204: real time    286.7076

 eigenvalue-minimisations  :  2560
 total energy-change (2. order) : 0.4447976E+02  (-0.6530701E+00)
 number of electron     248.9999999 magnetization 
 augmentation part      -14.4217290 magnetization 

 Broyden mixing:
  rms(total) = 0.60084E+00    rms(broyden)= 0.13247E+02
  rms(prec ) = 0.61649E+00
  weight for this iteration     100.00
  WARNING: grid for Broyden might be to small

 eigenvalues of (default mixing * dielectric matrix)
  average eigenvalue GAMMA=   0.6334
  0.6334

 Free energy of the ion-electron system (eV)
  ---------------------------------------------------
  alpha Z        PSCENC =        24.32417353
  Ewald energy   TEWEN  =     26552.22688790
  -Hartree energ DENC   =    -32031.73897204
  -exchange      EXHF   =         0.00000000
  -V(xc)+E(xc)   XCENC  =      -314.03991078
  PAW double counting   =     23023.42504833   -22403.89934771
  entropy T*S    EENTRO =        -0.19834205
  eigenvalues    EBANDS =     -1812.44257164
  atomic energy  EATOM  =      6402.63218022
  Solvation  Ediel_sol  =         0.00000000
  ---------------------------------------------------
  free energy    TOTEN  =      -559.71085423 eV

  energy without entropy =     -559.51251218  energy(sigma->0) =     -559.61168321


--------------------------------------------------------------------------------------------------------




--------------------------------------- Iteration      1(   3)  ---------------------------------------


    POTLOK:  cpu time      1.9555: real time      1.9773
    SETDIJ:  cpu time      1.3242: real time      1.3268
    EDDIAG:  cpu time     47.9473: real time     47.9715
     EDDAV:  cpu time    208.4312: real time    208.5523
       DOS:  cpu time      0.0041: real time      0.0041
    CHARGE:  cpu time     27.0235: real time     27.0475
    MIXING:  cpu time      0.0386: real time      0.0386
    --------------------------------------------
      LOOP:  cpu time    286.7244: real time    286.9182

 eigenvalue-minimisations  :  2560
 total energy-change (2. order) :-0.2092813E+01  (-0.5649026E+00)
 number of electron     248.9999999 magnetization 
 augmentation part      -14.3730429 magnetization 

 Broyden mixing:
  rms(total) = 0.26841E+00    rms(broyden)= 0.17991E+02
  rms(prec ) = 0.32533E+00
  weight for this iteration     100.00
  WARNING: grid for Broyden might be to small

 eigenvalues of (default mixing * dielectric matrix)
  average eigenvalue GAMMA=   0.8144
  1.0030  0.6257

 Free energy of the ion-electron system (eV)
  ---------------------------------------------------
  alpha Z        PSCENC =        24.32417353
  Ewald energy   TEWEN  =     26552.22688790
  -Hartree energ DENC   =    -32030.02366357
  -exchange      EXHF   =         0.00000000
  -V(xc)+E(xc)   XCENC  =      -316.27836085
  PAW double counting   =     27230.21068604   -26610.80089067
  entropy T*S    EENTRO =        -0.19983293
  eigenvalues    EBANDS =     -1813.89484642
  atomic energy  EATOM  =      6402.63218022
  Solvation  Ediel_sol  =         0.00000000
  ---------------------------------------------------
  free energy    TOTEN  =      -561.80366675 eV

  energy without entropy =     -561.60383382  energy(sigma->0) =     -561.70375029


--------------------------------------------------------------------------------------------------------




--------------------------------------- Iteration      1(   4)  ---------------------------------------


    POTLOK:  cpu time      1.9650: real time      1.9822
    SETDIJ:  cpu time      1.3206: real time      1.3218
    EDDIAG:  cpu time     47.9386: real time     47.9656
     EDDAV:  cpu time    214.9296: real time    215.0488
       DOS:  cpu time      0.0044: real time      0.0044
    CHARGE:  cpu time     27.0223: real time     27.0494
    MIXING:  cpu time      0.0388: real time      0.0388
    --------------------------------------------
      LOOP:  cpu time    293.2193: real time    293.4109

 eigenvalue-minimisations  :  2704
 total energy-change (2. order) : 0.2283358E+00  (-0.6208103E-01)
 number of electron     248.9999999 magnetization 
 augmentation part      -14.3671702 magnetization 

 Broyden mixing:
  rms(total) = 0.44521E-01    rms(broyden)= 0.19422E+01
  rms(prec ) = 0.56409E-01
  weight for this iteration     100.00
  WARNING: grid for Broyden might be to small

 eigenvalues of (default mixing * dielectric matrix)
  average eigenvalue GAMMA=   1.1595
  2.1671  0.6993  0.6122

 Free energy of the ion-electron system (eV)
  ---------------------------------------------------
  alpha Z        PSCENC =        24.32417353
  Ewald energy   TEWEN  =     26552.22688790
  -Hartree energ DENC   =    -32029.44360142
  -exchange      EXHF   =         0.00000000
  -V(xc)+E(xc)   XCENC  =      -316.85832395
  PAW double counting   =     30911.37071568   -30292.02780037
  entropy T*S    EENTRO =        -0.20030803
  eigenvalues    EBANDS =     -1813.59925456
  atomic energy  EATOM  =      6402.63218022
  Solvation  Ediel_sol  =         0.00000000
  ---------------------------------------------------
  free energy    TOTEN  =      -561.57533100 eV

  energy without entropy =     -561.37502297  energy(sigma->0) =     -561.47517699


--------------------------------------------------------------------------------------------------------




--------------------------------------- Iteration      1(   5)  ---------------------------------------


    POTLOK:  cpu time      1.9658: real time      1.9827
    SETDIJ:  cpu time      1.3221: real time      1.3229
    EDDIAG:  cpu time     47.8672: real time     47.8946
     EDDAV:  cpu time    231.8010: real time    231.9321
       DOS:  cpu time      0.0028: real time      0.0028
    CHARGE:  cpu time     27.0425: real time     27.0679
    MIXING:  cpu time      0.0396: real time      0.0396
    --------------------------------------------
      LOOP:  cpu time    310.0411: real time    310.2426

 eigenvalue-minimisations  :  3080
 total energy-change (2. order) :-0.2797179E-01  (-0.6648856E-02)
 number of electron     248.9999999 magnetization 
 augmentation part      -14.3680661 magnetization 

 Broyden mixing:
  rms(total) = 0.31680E-01    rms(broyden)= 0.21126E+00
  rms(prec ) = 0.38994E-01
  weight for this iteration     100.00
  WARNING: grid for Broyden might be to small

 eigenvalues of (default mixing * dielectric matrix)
  average eigenvalue GAMMA=   1.1368
  2.5544  0.7776  0.6236  0.5917

 Free energy of the ion-electron system (eV)
  ---------------------------------------------------
  alpha Z        PSCENC =        24.32417353
  Ewald energy   TEWEN  =     26552.22688790
  -Hartree energ DENC   =    -32029.69497418
  -exchange      EXHF   =         0.00000000
  -V(xc)+E(xc)   XCENC  =      -317.58864228
  PAW double counting   =     30588.19551674   -29968.83319919
  entropy T*S    EENTRO =        -0.19825655
  eigenvalues    EBANDS =     -1812.66698897
  atomic energy  EATOM  =      6402.63218022
  Solvation  Ediel_sol  =         0.00000000
  ---------------------------------------------------
  free energy    TOTEN  =      -561.60330279 eV

  energy without entropy =     -561.40504624  energy(sigma->0) =     -561.50417452


--------------------------------------------------------------------------------------------------------




--------------------------------------- Iteration      1(   6)  ---------------------------------------


    POTLOK:  cpu time      1.9590: real time      1.9755
    SETDIJ:  cpu time      1.3262: real time      1.3269
    EDDIAG:  cpu time     47.9371: real time     47.9643
     EDDAV:  cpu time    222.8414: real time    222.9732
       DOS:  cpu time      0.0047: real time      0.0047
    CHARGE:  cpu time     27.0197: real time     27.0461
    MIXING:  cpu time      0.0391: real time      0.0391
    --------------------------------------------
      LOOP:  cpu time    301.1271: real time    301.3298

 eigenvalue-minimisations  :  2880
 total energy-change (2. order) :-0.1945265E-02  (-0.1580861E-02)
 number of electron     248.9999999 magnetization 
 augmentation part      -14.3682484 magnetization 

 Broyden mixing:
  rms(total) = 0.20927E-01    rms(broyden)= 0.17299E+00
  rms(prec ) = 0.22785E-01
  weight for this iteration     100.00
  WARNING: grid for Broyden might be to small

 eigenvalues of (default mixing * dielectric matrix)
  average eigenvalue GAMMA=   1.0792
  2.5932  0.9638  0.6891  0.6259  0.5240

 Free energy of the ion-electron system (eV)
  ---------------------------------------------------
  alpha Z        PSCENC =        24.32417353
  Ewald energy   TEWEN  =     26552.22688790
  -Hartree energ DENC   =    -32029.58447201
  -exchange      EXHF   =         0.00000000
  -V(xc)+E(xc)   XCENC  =      -317.73900924
  PAW double counting   =     30524.44374204   -29905.07410661
  entropy T*S    EENTRO =        -0.19895759
  eigenvalues    EBANDS =     -1812.63568630
  atomic energy  EATOM  =      6402.63218022
  Solvation  Ediel_sol  =         0.00000000
  ---------------------------------------------------
  free energy    TOTEN  =      -561.60524805 eV

  energy without entropy =     -561.40629047  energy(sigma->0) =     -561.50576926


--------------------------------------------------------------------------------------------------------




--------------------------------------- Iteration      1(   7)  ---------------------------------------


    POTLOK:  cpu time      1.9663: real time      1.9817
    SETDIJ:  cpu time      1.3240: real time      1.3250
    EDDIAG:  cpu time     47.8724: real time     47.9007
     EDDAV:  cpu time    214.2364: real time    214.3618
       DOS:  cpu time      0.0027: real time      0.0027
    CHARGE:  cpu time     27.0686: real time     27.0929
    MIXING:  cpu time      0.0404: real time      0.0404
    --------------------------------------------
      LOOP:  cpu time    292.5107: real time    292.7051

 eigenvalue-minimisations  :  2688
 total energy-change (2. order) :-0.1039255E-02  (-0.8243689E-03)
 number of electron     248.9999999 magnetization 
 augmentation part      -14.3659781 magnetization 

 Broyden mixing:
  rms(total) = 0.92610E-02    rms(broyden)= 0.73828E-01
  rms(prec ) = 0.12365E-01
  weight for this iteration     100.00
  WARNING: grid for Broyden might be to small

 eigenvalues of (default mixing * dielectric matrix)
  average eigenvalue GAMMA=   1.0437
  2.5756  1.2290  0.7391  0.6384  0.6232  0.4567

 Free energy of the ion-electron system (eV)
  ---------------------------------------------------
  alpha Z        PSCENC =        24.32417353
  Ewald energy   TEWEN  =     26552.22688790
  -Hartree energ DENC   =    -32029.30488449
  -exchange      EXHF   =         0.00000000
  -V(xc)+E(xc)   XCENC  =      -317.59881856
  PAW double counting   =     30517.91564280   -29898.53832457
  entropy T*S    EENTRO =        -0.19915855
  eigenvalues    EBANDS =     -1813.06398558
  atomic energy  EATOM  =      6402.63218022
  Solvation  Ediel_sol  =         0.00000000
  ---------------------------------------------------
  free energy    TOTEN  =      -561.60628731 eV

  energy without entropy =     -561.40712876  energy(sigma->0) =     -561.50670803


--------------------------------------------------------------------------------------------------------




--------------------------------------- Iteration      1(   8)  ---------------------------------------


    POTLOK:  cpu time      1.9588: real time      1.9770
    SETDIJ:  cpu time      1.3284: real time      1.3292
    EDDIAG:  cpu time     47.9593: real time     47.9815
     EDDAV:  cpu time    218.6049: real time    218.7259
       DOS:  cpu time      0.0028: real time      0.0028
    CHARGE:  cpu time     27.0595: real time     27.0838
    MIXING:  cpu time      0.0403: real time      0.0403
    --------------------------------------------
      LOOP:  cpu time    296.9540: real time    297.1406

 eigenvalue-minimisations  :  2784
 total energy-change (2. order) :-0.2969651E-03  (-0.2277036E-03)
 number of electron     248.9999999 magnetization 
 augmentation part      -14.3657222 magnetization 

 Broyden mixing:
  rms(total) = 0.37408E-02    rms(broyden)= 0.33853E-01
  rms(prec ) = 0.54302E-02
  weight for this iteration     100.00
  WARNING: grid for Broyden might be to small

 eigenvalues of (default mixing * dielectric matrix)
  average eigenvalue GAMMA=   1.0628
  2.5584  1.6354  0.9105  0.6621  0.6621  0.5871  0.4237

 Free energy of the ion-electron system (eV)
  ---------------------------------------------------
  alpha Z        PSCENC =        24.32417353
  Ewald energy   TEWEN  =     26552.22688790
  -Hartree energ DENC   =    -32028.85559379
  -exchange      EXHF   =         0.00000000
  -V(xc)+E(xc)   XCENC  =      -317.55335614
  PAW double counting   =     30541.63222478   -29922.25049689
  entropy T*S    EENTRO =        -0.19860786
  eigenvalues    EBANDS =     -1813.56399602
  atomic energy  EATOM  =      6402.63218022
  Solvation  Ediel_sol  =         0.00000000
  ---------------------------------------------------
  free energy    TOTEN  =      -561.60658427 eV

  energy without entropy =     -561.40797641  energy(sigma->0) =     -561.50728034


--------------------------------------------------------------------------------------------------------




--------------------------------------- Iteration      1(   9)  ---------------------------------------


    POTLOK:  cpu time      1.9718: real time      1.9890
    SETDIJ:  cpu time      1.3197: real time      1.3205
    EDDIAG:  cpu time     47.9456: real time     47.9727
     EDDAV:  cpu time    215.7407: real time    215.8589
       DOS:  cpu time      0.0026: real time      0.0026
    CHARGE:  cpu time     27.0276: real time     27.0528
    MIXING:  cpu time      0.0392: real time      0.0401
    --------------------------------------------
      LOOP:  cpu time    294.0473: real time    294.2367

 eigenvalue-minimisations  :  2720
 total energy-change (2. order) :-0.1524505E-04  (-0.1036650E-03)
 number of electron     248.9999999 magnetization 
 augmentation part      -14.3660266 magnetization 

 Broyden mixing:
  rms(total) = 0.18888E-02    rms(broyden)= 0.16562E-01
  rms(prec ) = 0.24164E-02
  weight for this iteration     100.00
  WARNING: grid for Broyden might be to small

 eigenvalues of (default mixing * dielectric matrix)
  average eigenvalue GAMMA=   1.1480
  2.5844  2.5844  1.0161  0.8183  0.6416  0.6121  0.4875  0.4398

 Free energy of the ion-electron system (eV)
  ---------------------------------------------------
  alpha Z        PSCENC =        24.32417353
  Ewald energy   TEWEN  =     26552.22688790
  -Hartree energ DENC   =    -32028.58603633
  -exchange      EXHF   =         0.00000000
  -V(xc)+E(xc)   XCENC  =      -317.58433666
  PAW double counting   =     30552.99576010   -29933.61301683
  entropy T*S    EENTRO =        -0.19894833
  eigenvalues    EBANDS =     -1813.80326312
  atomic energy  EATOM  =      6402.63218022
  Solvation  Ediel_sol  =         0.00000000
  ---------------------------------------------------
  free energy    TOTEN  =      -561.60659952 eV

  energy without entropy =     -561.40765119  energy(sigma->0) =     -561.50712535


--------------------------------------------------------------------------------------------------------




--------------------------------------- Iteration      1(  10)  ---------------------------------------


    POTLOK:  cpu time      1.9620: real time      1.9827
    SETDIJ:  cpu time      1.3151: real time      1.3163
    EDDIAG:  cpu time     47.9045: real time     47.9340
     EDDAV:  cpu time    214.1742: real time    214.2922
       DOS:  cpu time      0.0036: real time      0.0036
    CHARGE:  cpu time     27.0036: real time     27.0307
    MIXING:  cpu time      0.0426: real time      0.0426
    --------------------------------------------
      LOOP:  cpu time    292.4056: real time    292.6020

 eigenvalue-minimisations  :  2688
 total energy-change (2. order) :-0.7179032E-04  (-0.4367020E-04)
 number of electron     248.9999999 magnetization 
 augmentation part      -14.3661468 magnetization 

 Broyden mixing:
  rms(total) = 0.12665E-02    rms(broyden)= 0.10649E-01
  rms(prec ) = 0.17137E-02
  weight for this iteration     100.00
  WARNING: grid for Broyden might be to small

 eigenvalues of (default mixing * dielectric matrix)
  average eigenvalue GAMMA=   1.1401
  2.7514  2.7514  0.9366  0.9366  0.7394  0.6336  0.5811  0.4652  0.4652

 Free energy of the ion-electron system (eV)
  ---------------------------------------------------
  alpha Z        PSCENC =        24.32417353
  Ewald energy   TEWEN  =     26552.22688790
  -Hartree energ DENC   =    -32028.31850422
  -exchange      EXHF   =         0.00000000
  -V(xc)+E(xc)   XCENC  =      -317.59959083
  PAW double counting   =     30551.04969797   -29931.66622165
  entropy T*S    EENTRO =        -0.19880486
  eigenvalues    EBANDS =     -1814.05648937
  atomic energy  EATOM  =      6402.63218022
  Solvation  Ediel_sol  =         0.00000000
  ---------------------------------------------------
  free energy    TOTEN  =      -561.60667131 eV

  energy without entropy =     -561.40786645  energy(sigma->0) =     -561.50726888


--------------------------------------------------------------------------------------------------------




--------------------------------------- Iteration      1(  11)  ---------------------------------------


    POTLOK:  cpu time      1.9652: real time      1.9816
    SETDIJ:  cpu time      1.3190: real time      1.3196
    EDDIAG:  cpu time     47.9394: real time     47.9676
     EDDAV:  cpu time    216.2623: real time    216.3870
       DOS:  cpu time      0.0025: real time      0.0025
    CHARGE:  cpu time     27.0275: real time     27.0522
    MIXING:  cpu time      0.0426: real time      0.0426
    --------------------------------------------
      LOOP:  cpu time    294.5585: real time    294.7532

 eigenvalue-minimisations  :  2736
 total energy-change (2. order) :-0.1977901E-03  (-0.2636735E-04)
 number of electron     248.9999999 magnetization 
 augmentation part      -14.3662438 magnetization 

 Broyden mixing:
  rms(total) = 0.67248E-03    rms(broyden)= 0.71119E-02
  rms(prec ) = 0.10389E-02
  weight for this iteration     100.00
  WARNING: grid for Broyden might be to small

 eigenvalues of (default mixing * dielectric matrix)
  average eigenvalue GAMMA=   1.1816
  3.0843  2.6512  1.4556  1.0144  0.8336  0.6607  0.6329  0.4478  0.5294  0.5065

 Free energy of the ion-electron system (eV)
  ---------------------------------------------------
  alpha Z        PSCENC =        24.32417353
  Ewald energy   TEWEN  =     26552.22688790
  -Hartree energ DENC   =    -32027.99821065
  -exchange      EXHF   =         0.00000000
  -V(xc)+E(xc)   XCENC  =      -317.60766709
  PAW double counting   =     30549.08197043   -29929.69778101
  entropy T*S    EENTRO =        -0.19888744
  eigenvalues    EBANDS =     -1814.36953499
  atomic energy  EATOM  =      6402.63218022
  Solvation  Ediel_sol  =         0.00000000
  ---------------------------------------------------
  free energy    TOTEN  =      -561.60686910 eV

  energy without entropy =     -561.40798166  energy(sigma->0) =     -561.50742538


--------------------------------------------------------------------------------------------------------




--------------------------------------- Iteration      1(  12)  ---------------------------------------


    POTLOK:  cpu time      1.9527: real time      1.9720
    SETDIJ:  cpu time      1.3186: real time      1.3193
    EDDIAG:  cpu time     47.8750: real time     47.9019
     EDDAV:  cpu time    211.3352: real time    211.4557
       DOS:  cpu time      0.0056: real time      0.0056
    CHARGE:  cpu time     27.0394: real time     27.0654
    MIXING:  cpu time      0.0430: real time      0.0431
    --------------------------------------------
      LOOP:  cpu time    289.5694: real time    289.7628

 eigenvalue-minimisations  :  2624
 total energy-change (2. order) :-0.2520240E-03  (-0.2675269E-04)
 number of electron     248.9999999 magnetization 
 augmentation part      -14.3663633 magnetization 

 Broyden mixing:
  rms(total) = 0.41317E-03    rms(broyden)= 0.56917E-02
  rms(prec ) = 0.71050E-03
  weight for this iteration     100.00
  WARNING: grid for Broyden might be to small

 eigenvalues of (default mixing * dielectric matrix)
  average eigenvalue GAMMA=   1.3276
  4.1109  2.5170  2.5170  0.9557  0.9557  0.8219  0.6297  0.6101  0.5240  0.5240
  0.4373

 Free energy of the ion-electron system (eV)
  ---------------------------------------------------
  alpha Z        PSCENC =        24.32417353
  Ewald energy   TEWEN  =     26552.22688790
  -Hartree energ DENC   =    -32027.67053383
  -exchange      EXHF   =         0.00000000
  -V(xc)+E(xc)   XCENC  =      -317.61707055
  PAW double counting   =     30548.35678226   -29928.97240647
  entropy T*S    EENTRO =        -0.19885075
  eigenvalues    EBANDS =     -1814.68828343
  atomic energy  EATOM  =      6402.63218022
  Solvation  Ediel_sol  =         0.00000000
  ---------------------------------------------------
  free energy    TOTEN  =      -561.60712112 eV

  energy without entropy =     -561.40827037  energy(sigma->0) =     -561.50769575


--------------------------------------------------------------------------------------------------------




--------------------------------------- Iteration      1(  13)  ---------------------------------------


    POTLOK:  cpu time      1.9706: real time      1.9812
    SETDIJ:  cpu time      1.3259: real time      1.3266
    EDDIAG:  cpu time     47.9302: real time     47.9592
     EDDAV:  cpu time    211.3117: real time    211.4336
       DOS:  cpu time      0.0130: real time      0.0134
    CHARGE:  cpu time     27.0392: real time     27.0645
    MIXING:  cpu time      0.0591: real time      0.0592
    --------------------------------------------
      LOOP:  cpu time    289.6500: real time    289.8381

 eigenvalue-minimisations  :  2624
 total energy-change (2. order) :-0.2151613E-03  (-0.1628865E-04)
 number of electron     248.9999999 magnetization 
 augmentation part      -14.3664318 magnetization 

 Broyden mixing:
  rms(total) = 0.30888E-03    rms(broyden)= 0.45772E-02
  rms(prec ) = 0.54774E-03
  weight for this iteration     100.00
  WARNING: grid for Broyden might be to small

 eigenvalues of (default mixing * dielectric matrix)
  average eigenvalue GAMMA=   1.4436
  5.8065  2.6424  2.6424  1.0153  1.0153  0.7501  0.7501  0.6300  0.4402  0.5752
  0.5539  0.5025

 Free energy of the ion-electron system (eV)
  ---------------------------------------------------
  alpha Z        PSCENC =        24.32417353
  Ewald energy   TEWEN  =     26552.22688790
  -Hartree energ DENC   =    -32027.45663148
  -exchange      EXHF   =         0.00000000
  -V(xc)+E(xc)   XCENC  =      -317.62332623
  PAW double counting   =     30548.58630136   -29929.20217441
  entropy T*S    EENTRO =        -0.19885514
  eigenvalues    EBANDS =     -1814.89589203
  atomic energy  EATOM  =      6402.63218022
  Solvation  Ediel_sol  =         0.00000000
  ---------------------------------------------------
  free energy    TOTEN  =      -561.60733628 eV

  energy without entropy =     -561.40848115  energy(sigma->0) =     -561.50790872


--------------------------------------------------------------------------------------------------------




--------------------------------------- Iteration      1(  14)  ---------------------------------------


    POTLOK:  cpu time      1.9625: real time      1.9795
    SETDIJ:  cpu time      1.3337: real time      1.3353
    EDDIAG:  cpu time     47.9237: real time     47.9508
     EDDAV:  cpu time    212.4724: real time    212.5915
       DOS:  cpu time      0.0028: real time      0.0028
    CHARGE:  cpu time     27.0225: real time     27.0487
    MIXING:  cpu time      0.0451: real time      0.0451
    --------------------------------------------
      LOOP:  cpu time    290.7624: real time    290.9533

 eigenvalue-minimisations  :  2648
 total energy-change (2. order) :-0.2243542E-03  (-0.2036378E-04)
 number of electron     248.9999999 magnetization 
 augmentation part      -14.3665107 magnetization 

 Broyden mixing:
  rms(total) = 0.20680E-03    rms(broyden)= 0.33479E-02
  rms(prec ) = 0.36416E-03
  weight for this iteration     100.00
  WARNING: grid for Broyden might be to small

 eigenvalues of (default mixing * dielectric matrix)
  average eigenvalue GAMMA=   1.5911
  7.7894  2.7183  2.7183  1.3827  0.9989  0.9419  0.8387  0.6344  0.6301  0.4425
  0.5524  0.5403  0.4961

 Free energy of the ion-electron system (eV)
  ---------------------------------------------------
  alpha Z        PSCENC =        24.32417353
  Ewald energy   TEWEN  =     26552.22688790
  -Hartree energ DENC   =    -32027.20086589
  -exchange      EXHF   =         0.00000000
  -V(xc)+E(xc)   XCENC  =      -317.62935978
  PAW double counting   =     30548.78817235   -29929.40443818
  entropy T*S    EENTRO =        -0.19885393
  eigenvalues    EBANDS =     -1815.14545686
  atomic energy  EATOM  =      6402.63218022
  Solvation  Ediel_sol  =         0.00000000
  ---------------------------------------------------
  free energy    TOTEN  =      -561.60756064 eV

  energy without entropy =     -561.40870671  energy(sigma->0) =     -561.50813367


--------------------------------------------------------------------------------------------------------




--------------------------------------- Iteration      1(  15)  ---------------------------------------


    POTLOK:  cpu time      1.9627: real time      1.9810
    SETDIJ:  cpu time      1.3187: real time      1.3199
    EDDIAG:  cpu time     47.9427: real time     47.9699
     EDDAV:  cpu time    216.2988: real time    216.4252
       DOS:  cpu time      0.0049: real time      0.0049
    CHARGE:  cpu time     27.0318: real time     27.0564
    MIXING:  cpu time      0.0451: real time      0.0451
    --------------------------------------------
      LOOP:  cpu time    294.6048: real time    294.8023

 eigenvalue-minimisations  :  2736
 total energy-change (2. order) :-0.1716458E-03  (-0.1420778E-04)
 number of electron     248.9999999 magnetization 
 augmentation part      -14.3665633 magnetization 

 Broyden mixing:
  rms(total) = 0.14173E-03    rms(broyden)= 0.27024E-02
  rms(prec ) = 0.22400E-03
  weight for this iteration     100.00
  WARNING: grid for Broyden might be to small

 eigenvalues of (default mixing * dielectric matrix)
  average eigenvalue GAMMA=   1.6740
  9.1642  2.7873  2.7873  1.8532  1.0481  0.9582  0.7866  0.7866  0.6347  0.6347
  0.4422  0.5509  0.5008  0.5008

 Free energy of the ion-electron system (eV)
  ---------------------------------------------------
  alpha Z        PSCENC =        24.32417353
  Ewald energy   TEWEN  =     26552.22688790
  -Hartree energ DENC   =    -32026.98806721
  -exchange      EXHF   =         0.00000000
  -V(xc)+E(xc)   XCENC  =      -317.63238714
  PAW double counting   =     30548.88238685   -29929.49897017
  entropy T*S    EENTRO =        -0.19885802
  eigenvalues    EBANDS =     -1815.35507825
  atomic energy  EATOM  =      6402.63218022
  Solvation  Ediel_sol  =         0.00000000
  ---------------------------------------------------
  free energy    TOTEN  =      -561.60773229 eV

  energy without entropy =     -561.40887426  energy(sigma->0) =     -561.50830327


--------------------------------------------------------------------------------------------------------




--------------------------------------- Iteration      1(  16)  ---------------------------------------


    POTLOK:  cpu time      1.9801: real time      1.9819
    SETDIJ:  cpu time      1.3248: real time      1.3259
    EDDIAG:  cpu time     47.9617: real time     47.9879
     EDDAV:  cpu time    214.9187: real time    215.0419
       DOS:  cpu time      0.0046: real time      0.0046
    CHARGE:  cpu time     27.0123: real time     27.0374
    MIXING:  cpu time      0.0463: real time      0.0463
    --------------------------------------------
      LOOP:  cpu time    293.2484: real time    293.4260

 eigenvalue-minimisations  :  2704
 total energy-change (2. order) :-0.7166258E-04  (-0.5438127E-05)
 number of electron     248.9999999 magnetization 
 augmentation part      -14.3665868 magnetization 

 Broyden mixing:
  rms(total) = 0.96985E-04    rms(broyden)= 0.20005E-02
  rms(prec ) = 0.14436E-03
  weight for this iteration     100.00
  WARNING: grid for Broyden might be to small

 eigenvalues of (default mixing * dielectric matrix)
  average eigenvalue GAMMA=   1.6697
  9.6187  2.8631  2.7965  2.0408  1.1418  1.0069  0.8986  0.7766  0.6885  0.6345
  0.4412  0.5846  0.5638  0.4951  0.4951

 Free energy of the ion-electron system (eV)
  ---------------------------------------------------
  alpha Z        PSCENC =        24.32417353
  Ewald energy   TEWEN  =     26552.22688790
  -Hartree energ DENC   =    -32026.86741916
  -exchange      EXHF   =         0.00000000
  -V(xc)+E(xc)   XCENC  =      -317.63285711
  PAW double counting   =     30548.91695956   -29929.53365414
  entropy T*S    EENTRO =        -0.19885967
  eigenvalues    EBANDS =     -1815.47521507
  atomic energy  EATOM  =      6402.63218022
  Solvation  Ediel_sol  =         0.00000000
  ---------------------------------------------------
  free energy    TOTEN  =      -561.60780395 eV

  energy without entropy =     -561.40894428  energy(sigma->0) =     -561.50837411


--------------------------------------------------------------------------------------------------------




--------------------------------------- Iteration      1(  17)  ---------------------------------------


    POTLOK:  cpu time      1.9693: real time      1.9867
    SETDIJ:  cpu time      1.3300: real time      1.3308
    EDDIAG:  cpu time     47.8839: real time     47.9131
     EDDAV:  cpu time    215.1481: real time    215.2698
       DOS:  cpu time      0.0033: real time      0.0033
    CHARGE:  cpu time     27.0683: real time     27.0946
    MIXING:  cpu time      0.0465: real time      0.0465
    --------------------------------------------
      LOOP:  cpu time    293.4494: real time    293.6448

 eigenvalue-minimisations  :  2712
 total energy-change (2. order) :-0.2875394E-04  (-0.1990239E-05)
 number of electron     248.9999999 magnetization 
 augmentation part      -14.3665981 magnetization 

 Broyden mixing:
  rms(total) = 0.66191E-04    rms(broyden)= 0.19294E-02
  rms(prec ) = 0.96597E-04
  weight for this iteration     100.00
  WARNING: grid for Broyden might be to small

 eigenvalues of (default mixing * dielectric matrix)
  average eigenvalue GAMMA=   1.6701
  9.8481  3.0150  2.7472  2.2190  1.5224  0.9709  0.9247  0.9247  0.7602  0.6473
  0.6253  0.4412  0.5446  0.5446  0.4932  0.4932

 Free energy of the ion-electron system (eV)
  ---------------------------------------------------
  alpha Z        PSCENC =        24.32417353
  Ewald energy   TEWEN  =     26552.22688790
  -Hartree energ DENC   =    -32026.80889813
  -exchange      EXHF   =         0.00000000
  -V(xc)+E(xc)   XCENC  =      -317.63322801
  PAW double counting   =     30548.90551886   -29929.52221875
  entropy T*S    EENTRO =        -0.19885926
  eigenvalues    EBANDS =     -1815.53338907
  atomic energy  EATOM  =      6402.63218022
  Solvation  Ediel_sol  =         0.00000000
  ---------------------------------------------------
  free energy    TOTEN  =      -561.60783270 eV

  energy without entropy =     -561.40897345  energy(sigma->0) =     -561.50840307


--------------------------------------------------------------------------------------------------------




--------------------------------------- Iteration      1(  18)  ---------------------------------------


    POTLOK:  cpu time      1.9638: real time      1.9783
    SETDIJ:  cpu time      1.3285: real time      1.3296
    EDDIAG:  cpu time     47.9429: real time     47.9680
     EDDAV:  cpu time    211.2642: real time    211.3774
       DOS:  cpu time      0.0056: real time      0.0056
    CHARGE:  cpu time     27.0405: real time     27.0647
    MIXING:  cpu time      0.0485: real time      0.0485
    --------------------------------------------
      LOOP:  cpu time    289.5939: real time    289.7721

 eigenvalue-minimisations  :  2624
 total energy-change (2. order) :-0.8733936E-05  (-0.9632970E-06)
 number of electron     248.9999999 magnetization 
 augmentation part      -14.3666086 magnetization 

 Broyden mixing:
  rms(total) = 0.45108E-04    rms(broyden)= 0.14089E-02
  rms(prec ) = 0.66158E-04
  weight for this iteration     100.00
  WARNING: grid for Broyden might be to small

 eigenvalues of (default mixing * dielectric matrix)
  average eigenvalue GAMMA=   1.6522
  9.9358  3.1762  2.7101  2.4259  1.6081  1.1110  0.9364  0.9364  0.7828  0.7227
  0.6347  0.6289  0.5479  0.5124  0.5124  0.4420  0.4632

 Free energy of the ion-electron system (eV)
  ---------------------------------------------------
  alpha Z        PSCENC =        24.32417353
  Ewald energy   TEWEN  =     26552.22688790
  -Hartree energ DENC   =    -32026.78398784
  -exchange      EXHF   =         0.00000000
  -V(xc)+E(xc)   XCENC  =      -317.63374159
[...]
  Total     -34.91317   -40.25938   -13.30298    -2.10150     0.85331     6.73114
  in kB     -10.42388   -12.02008    -3.97182    -0.62744     0.25477     2.00969
  external pressure =       -8.81 kB  Pullay stress =        0.00 kB


 VOLUME and BASIS-vectors are now :
 -----------------------------------------------------------------------------
  energy-cutoff  :     1200.00
  volume of cell :     5366.24
      direct lattice vectors                 reciprocal lattice vectors
    14.523793698  0.000000000  0.000000000     0.068852534  0.000000000  0.000000000
     0.000000000 14.523793698  0.000000000     0.000000000  0.068852534  0.000000000
     0.000000000  0.000000000 25.439601400     0.000000000  0.000000000  0.039308792

  length of vectors
    14.523793698 14.523793698 25.439601400     0.068852534  0.068852534  0.039308792


 FORCES acting on ions
    electron-ion (+dipol)            ewald-force                    non-local-force                 convergence-correction
 -----------------------------------------------------------------------------------------------
   -.306E+01 -.201E+02 -.415E+02   0.327E+01 0.227E+02 0.401E+02   -.265E+00 -.257E+01 0.117E+01   0.610E-05 0.494E-04 -.131E-04
   0.100E+02 -.126E+01 0.236E+03   -.971E+01 0.297E+01 -.239E+03   -.459E+00 -.194E+01 0.376E+01   -.553E-04 0.696E-04 -.515E-04
   -.236E+02 -.145E+02 0.248E+03   0.229E+02 0.166E+02 -.250E+03   0.992E+00 -.179E+01 0.190E+01   0.154E-04 0.436E-04 -.102E-03
   -.106E+02 0.708E+01 0.542E+02   0.114E+02 -.558E+01 -.556E+02   0.195E+00 -.190E+01 0.149E+01   -.121E-04 -.675E-04 -.850E-04
   -.419E+02 -.388E+00 0.231E+03   0.401E+02 -.142E+01 -.232E+03   0.178E+01 0.307E+01 0.442E+00   0.135E-04 -.157E-05 -.688E-04
   -.195E+00 -.706E+01 -.195E+03   -.107E+01 0.587E+01 0.194E+03   0.129E+01 0.735E+00 0.929E+00   -.605E-05 -.900E-04 -.416E-04
   -.819E+01 0.810E+01 0.116E+03   0.790E+01 -.952E+01 -.116E+03   0.600E+00 0.143E+01 0.361E+00   0.518E-04 -.801E-04 -.627E-04
   0.886E+00 0.197E+02 0.131E+03   -.228E+01 -.178E+02 -.132E+03   0.146E+01 -.193E+01 0.145E+01   -.109E-04 -.108E-03 -.901E-04
   -.872E+01 0.246E+01 0.217E+03   0.823E+01 -.334E+01 -.217E+03   0.218E+00 -.203E-01 0.449E+00   -.324E-04 -.618E-04 -.191E-04
   -.506E+01 0.446E+01 0.732E+02   0.639E+01 -.236E+01 -.725E+02   -.188E+01 -.247E+01 -.141E+01   0.539E-04 0.798E-04 -.118E-03
   -.128E+01 -.446E+02 0.201E+03   0.163E+01 0.397E+02 -.200E+03   0.586E+00 0.606E+01 0.471E+00   0.127E-04 0.373E-04 -.589E-04
   0.132E+01 0.749E+01 -.889E+02   -.146E+01 -.870E+01 0.891E+02   -.289E+00 0.172E+01 0.620E+00   -.238E-04 -.119E-03 -.505E-04
   0.140E+02 -.242E+02 -.242E+03   -.146E+02 0.250E+02 0.243E+03   0.543E+00 -.201E+00 -.119E+01   -.117E-04 0.366E-04 -.564E-05
   -.313E+01 0.124E+02 -.139E+03   0.397E+01 -.132E+02 0.140E+03   -.110E+01 0.155E+01 -.622E+00   0.423E-04 -.239E-04 -.294E-04
   0.524E+01 0.142E+02 0.266E+03   -.579E+01 -.137E+02 -.267E+03   0.707E+00 -.531E+00 0.497E+00   0.258E-04 0.198E-05 -.695E-04
   0.293E+01 0.230E+01 -.702E+02   -.213E+01 -.245E+01 0.723E+02   -.155E+01 0.253E+00 -.191E+01   0.120E-04 0.751E-04 -.770E-04
   -.500E+01 -.193E+02 -.101E+03   0.512E+01 0.201E+02 0.987E+02   -.651E+00 -.102E+01 0.101E+01   -.606E-05 0.992E-04 -.415E-04
   0.230E+02 0.128E+02 -.198E+03   -.215E+02 -.131E+02 0.196E+03   -.134E+01 0.296E+00 0.124E+01   0.118E-05 -.746E-04 -.320E-04
   0.681E+01 0.156E+02 0.271E+03   -.687E+01 -.151E+02 -.272E+03   0.127E+00 -.150E+01 0.395E+00   0.164E-04 0.635E-04 -.698E-04
   0.153E+02 -.200E+00 0.109E+02   -.154E+02 0.339E+01 -.692E+01   -.107E+00 -.348E+01 -.403E+01   -.350E-04 0.165E-04 -.960E-04
   -.346E+01 -.442E+01 -.187E+03   0.383E+01 0.535E+01 0.186E+03   -.507E+00 -.109E+01 0.855E+00   0.306E-05 0.190E-04 -.592E-04
   -.180E+01 -.157E+02 -.247E+03   0.647E-01 0.169E+02 0.247E+03   0.186E+01 -.171E+01 -.156E+00   0.674E-05 0.616E-04 0.675E-05
   -.145E+02 -.272E+02 -.885E+02   0.134E+02 0.272E+02 0.928E+02   0.167E+01 0.614E+00 -.364E+01   0.714E-05 0.474E-04 -.547E-04
   -.914E+01 0.121E+02 0.861E+02   0.971E+01 -.117E+02 -.852E+02   -.745E+00 -.135E+01 -.147E+01   0.704E-06 0.546E-04 -.114E-03
   -.188E+02 -.390E+01 0.769E+02   0.186E+02 0.175E+01 -.764E+02   0.439E+00 0.373E+01 -.783E+00   0.213E-04 0.910E-04 -.118E-03
   0.205E+02 -.482E+02 0.228E+03   -.207E+02 0.483E+02 -.230E+03   0.193E+00 0.115E+01 0.186E+01   0.363E-05 0.640E-04 -.762E-04
   -.451E+01 0.147E+02 0.268E+02   0.389E+01 -.130E+02 -.276E+02   0.130E+01 -.365E+01 0.103E+01   -.166E-05 0.326E-04 -.997E-04
   -.624E+01 -.230E+02 0.101E+03   0.620E+01 0.231E+02 -.102E+03   -.812E+00 0.609E+00 0.176E+01   -.918E-05 -.175E-05 -.544E-04
   -.262E+01 0.143E+02 0.220E+03   0.254E+01 -.152E+02 -.225E+03   -.193E+00 0.843E+00 0.386E+01   -.163E-04 -.546E-04 -.126E-03
   -.232E+01 0.117E+02 -.247E+03   0.191E+01 -.119E+02 0.244E+03   -.712E+00 0.305E+00 0.240E+01   -.354E-04 -.149E-04 0.396E-04
   -.419E+00 0.218E+02 -.155E+03   0.593E+00 -.219E+02 0.154E+03   0.528E+00 0.423E+00 0.100E-01   -.138E-04 -.890E-04 -.217E-04
   0.107E+02 0.182E+02 0.117E+03   -.136E+02 -.189E+02 -.115E+03   0.336E+01 0.680E+00 -.265E+01   -.248E-04 -.692E-04 -.544E-04
   -.416E+00 0.150E+01 0.154E+03   0.970E+00 -.152E+01 -.152E+03   -.166E+01 0.112E+01 -.287E+01   0.237E-05 0.964E-04 -.996E-04
   -.650E+01 0.232E+02 -.221E+03   0.738E+01 -.236E+02 0.222E+03   -.969E+00 0.968E+00 -.177E+00   0.415E-04 -.372E-04 -.457E-04
   -.187E+02 -.109E+02 -.115E+03   0.184E+02 0.107E+02 0.115E+03   0.810E+00 0.118E-01 -.715E+00   0.121E-04 0.446E-04 -.581E-04
   0.185E+02 0.355E+01 0.842E+02   -.164E+02 -.326E+01 -.821E+02   -.245E+01 -.242E+00 -.249E+01   -.246E-04 0.100E-03 -.761E-04
   0.164E+01 0.353E+01 0.212E+00   -.114E+01 -.347E+01 0.153E+01   -.865E+00 0.964E-01 -.219E+01   0.238E-04 -.263E-04 -.461E-04
   0.841E+01 -.152E+02 -.116E+03   -.924E+01 0.135E+02 0.117E+03   0.142E+01 0.240E+01 -.771E+00   0.104E-04 0.580E-04 -.746E-04
   0.482E+02 -.475E+01 0.184E+03   -.444E+02 0.456E+01 -.185E+03   -.444E+01 0.211E-01 0.983E+00   -.563E-04 0.487E-04 -.539E-04
   -.170E+02 -.863E+01 -.212E+03   0.155E+02 0.641E+01 0.210E+03   0.290E+01 0.251E+01 0.202E+01   -.103E-04 0.640E-05 0.998E-05
   -.254E+02 -.976E+01 0.797E+01   0.231E+02 0.918E+01 -.827E+01   0.324E+01 0.159E+00 0.882E+00   -.226E-04 -.462E-04 -.574E-04
   -.110E+02 0.197E+02 -.343E+02   0.100E+02 -.212E+02 0.333E+02   0.132E+01 0.155E+01 0.134E+01   0.187E-04 -.138E-03 -.320E-04
   0.644E+01 0.838E+00 0.189E+02   -.658E+01 0.692E+00 -.190E+02   0.556E+00 -.174E+01 -.517E+00   0.271E-05 -.293E-05 -.975E-04
   -.287E+02 0.243E+02 -.110E+03   0.272E+02 -.220E+02 0.111E+03   0.204E+01 -.379E+01 -.414E+00   0.312E-04 -.391E-04 -.605E-04
   0.173E+02 0.384E+02 0.141E+03   -.147E+02 -.383E+02 -.141E+03   -.281E+01 -.500E+00 -.863E+00   0.224E-04 -.127E-03 -.371E-04
   0.274E+02 -.170E+02 0.109E+03   -.247E+02 0.159E+02 -.110E+03   -.346E+01 0.360E+00 0.107E+01   -.306E-04 0.645E-04 -.957E-04
   0.194E+02 -.320E+01 -.207E+03   -.199E+02 0.320E+01 0.206E+03   0.647E-01 -.112E+00 0.306E+00   -.177E-04 0.341E-04 -.202E-05
   -.988E+01 0.380E+02 -.217E+03   0.107E+02 -.374E+02 0.218E+03   -.460E+00 -.713E+00 -.183E+01   0.728E-05 -.873E-04 0.113E-06
   -.292E+01 0.381E+02 -.205E+03   0.357E+01 -.369E+02 0.203E+03   -.857E+00 -.182E+01 0.190E+01   -.254E-04 -.113E-03 0.630E-05
   0.231E+02 0.395E+01 -.128E+03   -.222E+02 -.438E+01 0.125E+03   -.368E+00 0.841E+00 0.429E+01   -.350E-05 -.490E-04 -.179E-04
   0.150E+02 -.359E+02 0.109E+03   -.154E+02 0.335E+02 -.112E+03   0.767E+00 0.189E+01 0.290E+01   -.123E-04 0.935E-04 -.928E-04
   -.311E+01 -.155E+02 -.250E+03   0.453E+01 0.141E+02 0.251E+03   -.133E+01 0.204E+01 0.785E+00   0.238E-04 0.886E-04 -.495E-05
   0.109E+01 0.535E+00 -.838E+02   -.514E+00 -.163E+01 0.827E+02   -.720E+00 0.169E+01 0.103E+01   -.624E-05 -.860E-04 -.572E-04
   -.193E+02 0.385E+01 0.199E+03   0.182E+02 -.229E+01 -.195E+03   0.547E+00 -.143E+01 -.273E+01   0.795E-05 -.822E-04 -.656E-04
   -.622E+01 -.285E+02 -.334E+02   0.538E+01 0.279E+02 0.324E+02   0.725E+00 0.128E+01 0.132E+01   -.155E-04 0.388E-04 -.803E-04
   0.256E+01 -.168E+01 -.250E+03   -.335E+01 0.143E+01 0.254E+03   0.459E+00 -.291E+00 -.314E+01   0.186E-04 0.590E-04 0.153E-04
   0.151E+01 0.265E+02 0.143E+03   -.111E+01 -.260E+02 -.142E+03   -.309E+00 -.707E+00 -.326E+00   0.209E-04 0.100E-03 -.957E-04
   -.376E+02 -.832E+01 0.202E+03   0.384E+02 0.835E+01 -.199E+03   -.187E+01 -.759E+00 -.320E+01   -.403E-04 -.407E-04 -.206E-04
   -.200E+02 -.240E+02 -.235E+03   0.204E+02 0.244E+02 0.236E+03   -.566E+00 -.126E+01 -.125E+01   -.264E-04 0.813E-04 -.496E-06
   0.258E+02 -.394E+01 0.230E+03   -.267E+02 0.261E+01 -.233E+03   0.110E+01 0.151E+01 0.446E+01   0.980E-05 -.365E-04 -.260E-04
   0.149E+02 -.110E+02 -.147E+03   -.144E+02 0.951E+01 0.146E+03   0.295E+00 0.137E+01 0.244E+01   -.355E-04 0.895E-04 -.129E-04
   0.264E+02 0.124E+02 -.194E+03   -.250E+02 -.116E+02 0.193E+03   -.129E+01 -.767E+00 0.761E-01   0.286E-05 0.994E-05 -.597E-04
   0.147E+02 0.125E+02 0.249E+03   -.146E+02 -.124E+02 -.252E+03   -.641E+00 -.786E+00 0.230E+01   0.329E-04 -.117E-03 -.562E-04
 -----------------------------------------------------------------------------------------------
   0.159E+01 -.121E+01 -.147E+02   0.639E-13 0.746E-13 -.426E-12   -.159E+01 0.122E+01 0.147E+02   -.388E-04 0.713E-04 -.331E-02


 POSITION                                       TOTAL-FORCE (eV/Angst)
 -----------------------------------------------------------------------------------
      3.52028      8.19497     14.59639        -0.049156      0.046930     -0.226651
      8.76467      7.99947     10.43239        -0.216572     -0.363106      0.513382
      3.84905      5.22933     10.18023         0.352261      0.024655     -0.107430
      5.96124      2.75029     12.25736         0.968255     -0.523407      0.210028
      5.01385     10.45150     10.33026        -0.039017      1.541578     -0.019789
      3.95050      0.32789     14.60797         0.082299     -0.512039     -0.569032
     14.08490      3.42962     11.56157         0.287765      0.076375      0.238293
      2.64106      1.38225     11.19230         0.217587     -0.113847      0.231852
      4.00334     14.20860     10.30216        -0.227044     -0.888697      0.181551
      5.16012      8.88768     12.06038        -0.637497     -0.506940     -0.818318
      2.74004     11.05780     10.53974         0.999035      1.354733      0.824077
      2.14037      1.43168     13.59183        -0.413310      0.574729      0.923487
      9.46477     10.47740     15.10239         0.050967      0.569693     -0.022337
      6.00405      4.26216     14.04963        -0.397621      0.977350     -0.297636
     12.39820      4.04814     10.00216         0.133933     -0.026203      0.109631
      7.44249      6.22646     13.77041        -0.863030      0.088507      0.172315
      1.40297      9.45785     13.40703        -0.614946     -0.184283     -0.783910
      8.09936      1.36954     14.77115         0.255506     -0.048253     -0.105894
      1.49755      9.27883     10.00000         0.117829     -0.900397      0.596442
      8.54832     10.10450     12.99937        -0.154170     -0.452233     -0.176689
      5.80423     11.83440     14.50001        -0.263903     -0.254480     -0.564727
     12.21910      8.52723     15.35186         0.313972     -0.525943     -0.569891
     11.38610     10.05130     13.81961         0.586449      0.602768      0.420306
      2.65464      5.89963     12.07354        -0.191799     -0.967324     -0.660323
      2.82717      8.13735     11.99045         0.219286      1.813140     -0.367648
     12.20150      9.87279     10.63147        -0.004847      1.216395     -0.034069
      0.39635      5.50614     12.54932         0.753316     -2.153018      0.321036
      9.06888     12.26530     12.24991        -0.976885      0.649060      0.821761
      7.73709      2.64070     10.67141        -0.263414      0.064016     -0.157141
     12.69720      4.81504     15.34501        -1.133317      0.096289     -0.132596
      0.00129      0.32397     13.98554         0.749812      0.379413     -0.655589
      9.70367      2.86422     11.90925         0.608932     -0.027685     -1.033289
     13.83250      7.06881     11.51442        -1.267349      1.158613     -0.851287
      9.98503     14.51920     15.02982        -0.257332      0.751448     -0.108036
     12.54010     12.12390     13.77922         0.426147     -0.148318     -0.831848
     11.63740      6.82087     12.12149        -0.586897      0.037380     -0.496952
     10.87120     13.58750     13.09162        -0.440083      0.148321     -0.542104
      6.29398      9.57327     13.91256         0.692893      0.774869      0.018830
     10.60960      5.00525     10.98102        -0.630054     -0.275496      0.258309
      0.30237      5.23284     14.89344         1.416622      0.319473     -0.133133
      6.77661     13.15860     12.79376         1.145486     -0.415502      0.614018
     13.06040      1.92811     13.08747         0.322148      0.150162      0.427837
     14.46310     12.94850     12.58621         0.461222     -0.315982     -0.551564
      3.69440      5.09871     13.94274         0.659725     -1.626852      0.609664
     11.35050      1.06674     11.84321        -0.348440     -0.307876     -0.170569
     10.51740      8.91388     11.85283        -0.800338     -0.793083     -0.033888
      9.31938      5.47076     14.86630        -0.462649     -0.116876     -0.550460
      2.06514      3.60120     14.95340         0.346810     -0.052807     -1.185320
     11.68390      2.83576     14.79635        -0.214360     -0.495249     -0.438199
      9.38051      3.19928     14.09782         0.549828      0.431925      1.846702
     14.24280      9.33573     11.50425         0.398710     -0.515702      0.489881
      3.41547      6.86057     15.28557         0.045615      0.848184      1.157346
      6.13154      0.71539     13.64068        -0.136420      0.684247     -0.040819
      4.24705      3.01296     10.76707        -0.442295      0.053862      0.491412
      2.02795     11.66810     12.85641        -0.130482      0.684157      0.393502
      6.70246      7.86254     15.43960        -0.301390     -0.508212     -0.232531
      6.81289      7.18014     11.58446         0.153902     -0.099206      0.284403
      5.86065     12.80910     10.75320        -1.332103     -0.766687     -0.417955
      0.09406      8.80743     15.28562        -0.196273     -0.938927     -0.407086
     14.38240     13.28910     10.06751         0.275280      0.284353      1.335888
     11.33870      6.47278     14.34360         0.743324     -0.061520      1.746865
      3.56062     12.54270     14.64559         0.165191      0.164762     -1.055646
      0.76504      2.04219     10.01645        -0.507115     -0.681236      0.111540
 -----------------------------------------------------------------------------------
    total drift:                               -0.001965      0.017268      0.007501


--------------------------------------------------------------------------------------------------------



  FREE ENERGIE OF THE ION-ELECTRON SYSTEM (eV)
  ---------------------------------------------------
  free  energy   TOTEN  =      -561.60784297 eV

  energy  without entropy=     -561.40898221  energy(sigma->0) =     -561.50841259



--------------------------------------------------------------------------------------------------------


    POTLOK:  cpu time      3.2610: real time      3.3036


--------------------------------------------------------------------------------------------------------


     LOOP+:  cpu time   6290.9008: real time   6295.2441
    4ORBIT:  cpu time      0.0000: real time      0.0000



 total charge

# of ion       s       p       d       tot
------------------------------------------
    1        0.559   0.017   0.000   0.577
    2        0.880   0.675   0.000   1.555
    3        0.861   0.739   0.000   1.600
    4        0.762   0.922   0.000   1.684
    5        0.807   0.810   0.000   1.617
    6        0.789   0.842   0.000   1.631
    7        0.765   0.883   0.000   1.648
    8        0.777   0.888   0.000   1.665
    9        0.830   0.744   0.000   1.574
   10        0.769   0.899   0.000   1.669
   11        0.798   0.827   0.000   1.625
   12        0.773   0.836   0.000   1.610
   13        0.885   0.718   0.000   1.603
   14        0.822   0.788   0.000   1.610
   15        0.857   0.753   0.000   1.610
   16        0.765   0.881   0.000   1.646
   17        0.789   0.842   0.000   1.631
   18        0.788   0.857   0.000   1.645
   19        0.842   0.802   0.000   1.644
   20        0.783   0.844   0.000   1.627
   21        0.800   0.834   0.000   1.634
   22        0.811   0.813   0.000   1.624
   23        0.783   0.877   0.000   1.660
   24        0.768   0.962   0.000   1.729
   25        0.774   0.864   0.000   1.639
   26        0.861   0.752   0.000   1.613
   27        0.769   0.936   0.000   1.705
   28        0.814   0.798   0.000   1.612
   29        0.877   0.718   0.000   1.595
   30        0.786   0.906   0.000   1.693
   31        0.805   0.827   0.000   1.632
   32        0.778   0.895   0.000   1.672
   33        0.799   0.924   0.000   1.723
   34        0.855   0.731   0.000   1.587
   35        0.808   0.820   0.000   1.629
   36        0.781   0.910   0.000   1.690
   37        0.763   0.897   0.000   1.660
   38        0.775   0.896   0.000   1.671
   39        0.795   0.843   0.000   1.638
   40        0.784   0.866   0.000   1.650
   41        0.769   0.896   0.000   1.664
   42        0.757   0.931   0.000   1.688
   43        0.760   0.869   0.000   1.629
   44        0.762   0.942   0.000   1.704
   45        0.800   0.832   0.000   1.633
   46        0.756   0.918   0.000   1.673
   47        0.800   0.853   0.000   1.653
   48        0.817   0.770   0.000   1.587
   49        0.798   0.831   0.000   1.629
   50        0.765   0.912   0.000   1.677
   51        0.778   0.906   0.000   1.684
   52        0.838   0.793   0.000   1.632
   53        0.761   0.876   0.000   1.636
   54        0.798   0.866   0.000   1.663
   55        0.776   0.825   0.000   1.602
   56        0.868   0.712   0.000   1.580
   57        0.809   0.782   0.000   1.591
   58        0.802   0.821   0.000   1.623
   59        0.855   0.703   0.000   1.558
   60        0.927   0.554   0.000   1.481
   61        0.759   0.918   0.000   1.677
   62        0.789   0.828   0.000   1.617
   63        0.856   0.736   0.000   1.593
--------------------------------------------------
tot         50.288  51.713   0.000 102.000


 total amount of memory used by VASP MPI-rank0   349210. kBytes
=======================================================================

   base                                    :      30000. kBytes
   nonl-proj                               :      64390. kBytes
   fftplans                                :      98000. kBytes
   grid                                    :      75605. kBytes
   one-center                              :         12. kBytes
   wavefun                                 :      81203. kBytes

  
  
 General timing and accounting informations for this job:
 ========================================================
  
                  Total CPU time used (sec):     6430.424
                            User time (sec):     5673.991
                          System time (sec):      756.433
                         Elapsed time (sec):     6434.817
  
                   Maximum memory used (kb):      601128.
                   Average memory used (kb):          N/A
  
                          Minor page faults:      9982494
                          Major page faults:         1162
                 Voluntary context switches:         3233
