 vasp.6.5.0 16Dec24 (build Jan 20 2025 08:32:48) complex                         
 executed on        HPECrayEX_GCC date 2025.08.02  12:06:27
 running  128 mpi-ranks, with    1 threads/rank, on    2 nodes
 distrk:  each k-point on  128 cores,    1 groups
 distr:  one band on NCORE=  16 cores,    8 groups


--------------------------------------------------------------------------------------------------------


 INCAR:
   SYSTEM = a-Si SPC
   NCORE = 16
   ISTART = 1
   ICHARG = 1
   ISPIN = 1
   ISYM = 1
   EDIFF = 1E-6
   NELM = 150
   EDIFFG = -0.01
   NSW = 0
   ISIF = 2
   IBRION = -1
   PREC = Accurate
   ENCUT = 1200
   KSPACING = 0.23
   KGAMMA = .TRUE.
   METAGGA = SCAN
   LASPH = .TRUE.
   LDIAG = .FALSE.
   LMIXTAU = .TRUE.
   ADDGRID = .TRUE.
   ALGO = Normal
   ISMEAR = 0
   SIGMA = 0.1
   LORBIT = 11
   NEDOS = 2000
   LWAVE = .FALSE.
   LCHARG = .FALSE.

 POTCAR:    PAW_PBE H 15Jun2001                   
 POTCAR:    PAW_PBE Si 05Jan2001                  
 POTCAR:    PAW_PBE H 15Jun2001                   
   SHA256 =  030f79b5d3ab3cf0e668861823c8fb652ff669f3e15e46930bd03bfd63a607b6 H/POTCAR              
   COPYR  = (c) Copyright 15Jun2001 Georg Kresse                                                    
   COPYR  = This file is part of the software VASP. Any use, copying, and all other rights are regul
   COPYR  = If you do not have a valid VASP license, you may not use, copy or distribute this file. 
   VRHFIN =H: ultrasoft test                                                                        
   LEXCH  = PE                                                                                      
   EATOM  =    12.4884 eV,    0.9179 Ry                                                             
                                                                                                    
   TITEL  = PAW_PBE H 15Jun2001                                                                     
   LULTRA =        F    use ultrasoft PP ?                                                          
   IUNSCR =        0    unscreen: 0-lin 1-nonlin 2-no                                               
   RPACOR =    0.000    partial core radius                                                         
   POMASS =    1.000; ZVAL   =    1.000    mass and valenz                                          
   RCORE  =    1.100    outmost cutoff radius                                                       
   RWIGS  =    0.700; RWIGS  =    0.370    wigner-seitz radius (au A)                               
   ENMAX  =  250.000; ENMIN  =  200.000 eV                                                          
   RCLOC  =    0.701    cutoff for local pot                                                        
   LCOR   =        T    correct aug charges                                                         
   LPAW   =        T    paw PP                                                                      
   EAUG   =  400.000                                                                                
   RMAX   =    1.123    core radius for proj-oper                                                   
   RAUG   =    1.200    factor for augmentation sphere                                              
   RDEP   =    1.112    radius for radial grids                                                     
   RDEPT  =    0.926    core radius for aug-charge                                                  
                                                                                                    
   Atomic configuration                                                                             
    2 entries                                                                                       
     n  l   j            E        occ.                                                              
     1  0  0.50        -6.4927   1.0000                                                             
     2  1  0.50        -3.4015   0.0000                                                             
   Description                                                                                      
     l       E           TYP  RCUT    TYP  RCUT                                                     
     0     -6.4927494     23  1.100                                                                 
     0      6.8029130     23  1.100                                                                 
     1     -4.0817478     23  1.100                                                                 
  local pseudopotential read in
  atomic valenz-charges read in
  non local Contribution for L=           0  read in
    real space projection operators read in
  non local Contribution for L=           0  read in
    real space projection operators read in
  non local Contribution for L=           1  read in
    real space projection operators read in
    PAW grid and wavefunctions read in

   number of l-projection  operators is LMAX  =           3
   number of lm-projection operators is LMMAX =           5

 POTCAR:    PAW_PBE Si 05Jan2001                  
   SHA256 =  79d9987ad8750f624c4d6acb2a16d13abf6a777132adc04dc6c8399be72b42bb Si/POTCAR             
   COPYR  = (c) Copyright 05Jan2001 Georg Kresse                                                    
   COPYR  = This file is part of the software VASP. Any use, copying, and all other rights are regul
   COPYR  = If you do not have a valid VASP license, you may not use, copy or distribute this file. 
   VRHFIN =Si: s2p2                                                                                 
   LEXCH  = PE                                                                                      
   EATOM  =   103.0669 eV,    7.5752 Ry                                                             
                                                                                                    
   TITEL  = PAW_PBE Si 05Jan2001                                                                    
   LULTRA =        F    use ultrasoft PP ?                                                          
   IUNSCR =        1    unscreen: 0-lin 1-nonlin 2-no                                               
   RPACOR =    1.500    partial core radius                                                         
   POMASS =   28.085; ZVAL   =    4.000    mass and valenz                                          
   RCORE  =    1.900    outmost cutoff radius                                                       
   RWIGS  =    2.480; RWIGS  =    1.312    wigner-seitz radius (au A)                               
   ENMAX  =  245.345; ENMIN  =  184.009 eV                                                          
   ICORE  =        2    local potential                                                             
   LCOR   =        T    correct aug charges                                                         
   LPAW   =        T    paw PP                                                                      
   EAUG   =  322.069                                                                                
   DEXC   =    0.000                                                                                
   RMAX   =    1.950    core radius for proj-oper                                                   
   RAUG   =    1.300    factor for augmentation sphere                                              
   RDEP   =    1.993    radius for radial grids                                                     
   RDEPT  =    1.837    core radius for aug-charge                                                  
                                                                                                    
   Atomic configuration                                                                             
    6 entries                                                                                       
     n  l   j            E        occ.                                                              
     1  0  0.50     -1785.8828   2.0000                                                             
     2  0  0.50      -139.4969   2.0000                                                             
     2  1  1.50       -95.5546   6.0000                                                             
     3  0  0.50       -10.8127   2.0000                                                             
     3  1  0.50        -4.0811   2.0000                                                             
     3  2  1.50        -4.0817   0.0000                                                             
   Description                                                                                      
     l       E           TYP  RCUT    TYP  RCUT                                                     
     0    -10.8127223     23  1.900                                                                 
     0     -7.6451159     23  1.900                                                                 
     1     -4.0811372     23  1.900                                                                 
     1      2.4879257     23  1.900                                                                 
     2     -4.0817478      7  1.900                                                                 
  local pseudopotential read in
  partial core-charges read in
  partial kinetic energy density read in
  atomic valenz-charges read in
  non local Contribution for L=           0  read in
    real space projection operators read in
  non local Contribution for L=           0  read in
    real space projection operators read in
  non local Contribution for L=           1  read in
    real space projection operators read in
  non local Contribution for L=           1  read in
    real space projection operators read in
    PAW grid and wavefunctions read in

   number of l-projection  operators is LMAX  =           4
   number of lm-projection operators is LMMAX =           8

 -----------------------------------------------------------------------------
|                                                                             |
|               ----> ADVICE to this user running VASP <----                  |
|                                                                             |
|     You have a (more or less) 'large supercell' and for larger cells it     |
|     might be more efficient to use real-space projection operators.         |
|     Therefore, try LREAL= Auto in the INCAR file.                           |
|     Mind: For very accurate calculation, you might also keep the            |
|     reciprocal projection scheme (i.e. LREAL=.FALSE.).                      |
|                                                                             |
 -----------------------------------------------------------------------------

 -----------------------------------------------------------------------------
|                                                                             |
|               ----> ADVICE to this user running VASP <----                  |
|                                                                             |
|     You enforced a specific xc type in the INCAR file but a different       |
|     type was found in the POTCAR file.                                      |
|     I HOPE YOU KNOW WHAT YOU ARE DOING!                                     |
|                                                                             |
 -----------------------------------------------------------------------------

  PAW_PBE H 15Jun2001                   :
 energy of atom  1       EATOM=  -12.4884
 kinetic energy error for atom=    0.0000 (will be added to EATOM!!)
  PAW_PBE Si 05Jan2001                  :
 energy of atom  2       EATOM= -103.0669
 kinetic energy error for atom=    0.0001 (will be added to EATOM!!)


 POSCAR:  H Si
  positions in cartesian coordinates
  No initial velocities read in


 exchange-correlation table for SCAN
   RHO(1)=    0.500       N(1)  =     2000
   RHO(2)=  100.500       N(2)  =     4000



--------------------------------------------------------------------------------------------------------


 ion  position               nearest neighbor table
   1  0.272  0.959  0.289-  38 1.48
   2  0.222  0.227  0.280-  44 1.48
   3  0.487  0.457  0.295-  64 1.49
   4  0.256  0.492  0.289-  53 1.48
   5  0.263  0.733  0.285-  47 1.48
   6  0.006  0.740  0.284-  63 1.48
   7  0.464  0.745  0.292- 123 1.48
   8  0.004  0.492  0.290- 121 1.48
   9  0.245  0.007  0.713-  69 1.48
  10  0.296  0.247  0.717-  74 1.48
  11  0.189  0.524  0.715-  79 1.48
  12  0.245  0.759  0.717-  89 1.48
  13  0.496  0.765  0.718-  93 1.48
  14  0.491  0.476  0.715- 139 1.48
  15  0.495  0.013  0.710- 136 1.48
  16  0.019  0.277  0.717- 137 1.48
  17  0.756  0.998  0.281-  97 1.47
  18  0.978  0.271  0.288-  61 1.48
  19  0.757  0.247  0.281- 109 1.47
  20  0.708  0.546  0.284- 118 1.48
  21  0.766  0.758  0.287- 120 1.48
  22  0.966  0.052  0.287-  34 1.49
  23  0.520  0.962  0.287-  48 1.48
  24  0.505  0.249  0.279- 127 1.47
  25  0.750  0.008  0.712- 131 1.48
  26  0.752  0.247  0.715- 135 1.48
  27  0.539  0.204  0.708-  72 1.48
  28  0.996  0.005  0.712-  94 1.48
  29  0.749  0.498  0.714- 141 1.48
  30  0.955  0.552  0.702-  95 1.48
  31  0.741  0.764  0.716- 153 1.48
  32  0.996  0.757  0.715- 160 1.48
  33  0.335  0.828  0.488-  84 2.34  77 2.35  43 2.35  91 2.38
  34  0.034  0.052  0.320-  22 1.49  61 2.35  35 2.36
  35  0.003  0.009  0.388-  36 2.35  34 2.36 103 2.39  59 2.41
  36  0.085  0.089  0.418-  37 2.33  35 2.35 112 2.36  39 2.39
  37  0.086  0.087  0.491-  36 2.33  84 2.34  66 2.36 132 2.36
  38  0.302  0.007  0.322-   1 1.48  44 2.33  39 2.36  48 2.37
  39  0.253  0.997  0.391-  49 2.34  43 2.34  38 2.36  36 2.39
  40  0.083  0.334  0.412- 112 2.33  41 2.35  45 2.35 122 2.37
  41  0.084  0.331  0.486-  80 2.33 144 2.35  40 2.35  66 2.38
  42  0.496  0.501  0.393-  64 2.33  57 2.36 101 2.36 116 2.36
  43  0.333  0.830  0.414-  65 2.32  39 2.34  46 2.35  33 2.35
  44  0.207  0.182  0.319-   2 1.48  38 2.33  61 2.39  45 2.41
  45  0.245  0.239  0.384-  40 2.35  49 2.36  44 2.41  51 2.41
  46  0.256  0.741  0.388-  43 2.35  57 2.35  59 2.35  47 2.36
  47  0.296  0.665  0.321-   5 1.48  64 2.34  53 2.34  46 2.36
  48  0.479  0.933  0.323-  23 1.48  38 2.37 126 2.39 123 2.42
  49  0.334  0.081  0.417-  50 2.31  39 2.34  45 2.36 126 2.37
  50  0.334  0.083  0.490-  49 2.31  75 2.33  77 2.34  66 2.36
  51  0.331  0.328  0.404- 111 2.37  54 2.37  45 2.41  52 2.43
  52  0.334  0.329  0.480-  80 2.35  82 2.37  75 2.37  51 2.43
  53  0.216  0.569  0.322-   4 1.48  63 2.34  47 2.34  54 2.36
  54  0.246  0.504  0.391-  53 2.36  55 2.36  57 2.37  51 2.37
  55  0.082  0.587  0.419-  56 2.30  62 2.35 122 2.36  54 2.36
  56  0.084  0.585  0.492-  55 2.30  80 2.34  86 2.35 151 2.35
  57  0.331  0.583  0.421-  58 2.31  46 2.35  42 2.36  54 2.37
  58  0.332  0.584  0.494-  57 2.31  82 2.33  86 2.34  91 2.35
  59  0.086  0.835  0.408-  46 2.35  62 2.36  60 2.40  35 2.41
  60  0.086  0.833  0.483- 146 2.34  84 2.35  86 2.39  59 2.40
  61  0.043  0.200  0.321-  18 1.48 112 2.32  34 2.35  44 2.39
  62  0.005  0.746  0.387- 106 2.34  63 2.35  55 2.35  59 2.36
  63  0.041  0.671  0.320-   6 1.48  53 2.34 121 2.35  62 2.35
  64  0.468  0.544  0.322-   3 1.49  42 2.33  47 2.34
  65  0.500  0.747  0.394- 123 2.31  43 2.32 116 2.32 124 2.35
  66  0.170  0.169  0.518-  50 2.36  37 2.36  41 2.38  67 2.41
  67  0.174  0.169  0.594-  71 2.36  68 2.37  73 2.39  66 2.41
  68  0.254  0.995  0.610-  70 2.36  69 2.36  85 2.37  67 2.37
  69  0.285  0.931  0.679-   9 1.48  93 2.35  89 2.35  68 2.36
  70  0.418  0.912  0.582-  77 2.30 147 2.35  96 2.36  68 2.36
  71  0.004  0.258  0.614- 145 2.34  67 2.36 137 2.37 133 2.39
  72  0.473  0.287  0.679-  27 1.48 156 2.31  74 2.43 139 2.44
  73  0.262  0.254  0.614-  76 2.33  81 2.37  67 2.39  74 2.43
  74  0.309  0.299  0.680-  10 1.48  79 2.31  73 2.43  72 2.43
  75  0.420  0.166  0.510-  50 2.33 100 2.34  76 2.35  52 2.37
  76  0.422  0.162  0.584- 156 2.32  73 2.33  75 2.35 147 2.36
  77  0.419  0.913  0.509-  70 2.30  50 2.34 125 2.34  33 2.35
  78  0.238  0.500  0.612-  81 2.33  87 2.37  79 2.41  83 2.42
  79  0.185  0.466  0.678-  11 1.48  74 2.31  78 2.41  95 2.43
  80  0.170  0.413  0.507-  81 2.31  41 2.33  56 2.34  52 2.35
  81  0.168  0.413  0.580-  80 2.31  78 2.33 157 2.37  73 2.37
  82  0.412  0.413  0.511-  58 2.33  83 2.35 102 2.36  52 2.37
  83  0.408  0.413  0.585-  82 2.35 156 2.35 159 2.37  78 2.42
  84  0.167  0.916  0.509-  85 2.30  33 2.34  37 2.34  60 2.35
  85  0.168  0.916  0.582-  84 2.30  90 2.35  88 2.36  68 2.37
  86  0.165  0.671  0.516-  58 2.34  56 2.35  87 2.38  60 2.39
  87  0.164  0.670  0.591- 158 2.33  88 2.35  78 2.37  86 2.38
  88  0.247  0.755  0.614-  89 2.35  92 2.35  87 2.35  85 2.36
  89  0.210  0.829  0.681-  12 1.48  94 2.35  69 2.35  88 2.35
  90  0.003  0.997  0.609-  85 2.35 138 2.37  94 2.37 133 2.38
  91  0.417  0.665  0.519-  58 2.35 117 2.35  33 2.38  92 2.40
  92  0.418  0.663  0.594-  88 2.35  96 2.36  91 2.40 159 2.40
  93  0.460  0.832  0.681-  13 1.48  69 2.35  96 2.35 136 2.35
  94  0.035  0.931  0.678-  28 1.48  89 2.35 160 2.35  90 2.37
  95  0.027  0.466  0.675-  30 1.48 157 2.33  79 2.43 137 2.44
  96  0.498  0.753  0.615- 150 2.35  93 2.35  70 2.36  92 2.36
  97  0.722  0.063  0.318-  17 1.47  98 2.33 127 2.36 109 2.36
  98  0.752  0.005  0.387-  97 2.33  99 2.36 106 2.37 103 2.37
  99  0.584  0.080  0.411- 100 2.35 111 2.36  98 2.36 126 2.40
 100  0.585  0.083  0.485- 154 2.33  75 2.34  99 2.35 128 2.37
 101  0.580  0.331  0.414- 102 2.34 110 2.35  42 2.36 111 2.36
 102  0.581  0.332  0.488- 101 2.34 142 2.35 128 2.36  82 2.36
 103  0.835  0.088  0.414- 104 2.34 110 2.35  98 2.37  35 2.39
 104  0.836  0.087  0.488- 146 2.33 103 2.34 128 2.36 132 2.36
 105  0.836  0.833  0.483- 154 2.34 146 2.34 106 2.37 151 2.37
 106  0.836  0.834  0.409- 113 2.33  62 2.34 105 2.37  98 2.37
 107  0.826  0.341  0.407- 112 2.35 110 2.36 119 2.41 108 2.41
 108  0.831  0.333  0.483- 144 2.35 142 2.36 132 2.39 107 2.41
 109  0.720  0.218  0.318-  19 1.47 110 2.32 127 2.35  97 2.36
 110  0.745  0.252  0.387- 109 2.32 103 2.35 101 2.35 107 2.36
 111  0.503  0.246  0.385- 127 2.32  99 2.36 101 2.36  51 2.37
 112  0.998  0.253  0.390-  61 2.32  40 2.33 107 2.35  36 2.36
 113  0.753  0.748  0.390- 106 2.33 114 2.34 120 2.34 124 2.37
 114  0.831  0.587  0.419- 115 2.31 113 2.34 122 2.36 119 2.37
 115  0.832  0.586  0.492- 114 2.31 144 2.33 149 2.35 151 2.35
 116  0.581  0.583  0.419-  65 2.32 117 2.33 119 2.35  42 2.36
 117  0.582  0.584  0.492- 142 2.33 116 2.33  91 2.35 149 2.36
 118  0.694  0.609  0.322-  20 1.48 120 2.32 123 2.39 119 2.43
 119  0.740  0.517  0.388- 116 2.35 114 2.37 107 2.41 118 2.43
 120  0.794  0.683  0.321-  21 1.48 118 2.32 113 2.34 121 2.35
 121  0.967  0.569  0.324-   8 1.48  63 2.35 120 2.35 122 2.36
 122  0.997  0.507  0.393-  55 2.36 114 2.36 121 2.36  40 2.37
 123  0.531  0.756  0.323-   7 1.48  65 2.31 118 2.39  48 2.42
 124  0.588  0.826  0.417- 125 2.31  65 2.35 126 2.35 113 2.37
 125  0.589  0.828  0.490- 124 2.31 154 2.33  77 2.34 149 2.35
 126  0.501  0.990  0.390- 124 2.35  49 2.37  48 2.39  99 2.40
 127  0.568  0.216  0.317-  24 1.47 111 2.32 109 2.35  97 2.36
 128  0.669  0.165  0.513- 104 2.36 102 2.36 100 2.37 129 2.38
 129  0.672  0.164  0.588- 156 2.33 130 2.36 134 2.36 128 2.38
 130  0.754  0.994  0.608- 138 2.36 129 2.36 155 2.36 131 2.36
 131  0.785  0.932  0.678-  25 1.48 160 2.34 153 2.35 130 2.36
 132  0.918  0.171  0.515-  37 2.36 104 2.36 108 2.39 133 2.42
 133  0.921  0.170  0.591- 134 2.35  90 2.38  71 2.39 132 2.42
 134  0.751  0.253  0.612- 143 2.34 135 2.35 133 2.35 129 2.36
 135  0.714  0.321  0.681-  26 1.48 134 2.35 139 2.40 141 2.40
 136  0.534  0.934  0.677-  15 1.48 153 2.35  93 2.35 147 2.36
 137  0.972  0.342  0.680-  16 1.48  71 2.37 141 2.40  95 2.44
 138  0.918  0.918  0.580- 146 2.31 158 2.34 130 2.36  90 2.37
 139  0.533  0.407  0.679-  14 1.48 159 2.39 135 2.40  72 2.44
 140  0.752  0.491  0.611- 143 2.37 145 2.37 141 2.37 150 2.37
 141  0.792  0.423  0.680-  29 1.48 140 2.37 135 2.40 137 2.40
 142  0.667  0.415  0.510- 143 2.31 117 2.33 102 2.35 108 2.36
 143  0.665  0.414  0.583- 142 2.31 134 2.34 140 2.37 159 2.38
 144  0.916  0.415  0.508- 145 2.30 115 2.33  41 2.35 108 2.35
 145  0.915  0.415  0.581- 144 2.30  71 2.34 157 2.35 140 2.37
 146  0.919  0.918  0.507- 138 2.31 104 2.33  60 2.34 105 2.34
 147  0.504  0.992  0.607- 155 2.35  70 2.35  76 2.36 136 2.36
 148  0.915  0.672  0.589- 158 2.35 152 2.35 157 2.36 151 2.36
 149  0.667  0.665  0.519- 115 2.35 125 2.35 117 2.36 150 2.38
 150  0.667  0.665  0.594-  96 2.35 152 2.36 140 2.37 149 2.38
 151  0.915  0.671  0.514-  56 2.35 115 2.35 148 2.36 105 2.37
 152  0.748  0.755  0.613- 148 2.35 155 2.35 153 2.36 150 2.36
 153  0.710  0.832  0.680-  31 1.48 131 2.35 136 2.35 152 2.36
 154  0.670  0.916  0.508- 155 2.30 125 2.33 100 2.33 105 2.34
 155  0.670  0.914  0.580- 154 2.30 152 2.35 147 2.35 130 2.36
 156  0.504  0.246  0.608-  72 2.31  76 2.32 129 2.33  83 2.35
 157  0.999  0.498  0.603-  95 2.33 145 2.35 148 2.36  81 2.37
 158  0.996  0.759  0.612-  87 2.33 138 2.34 160 2.34 148 2.35
 159  0.500  0.487  0.612-  83 2.37 143 2.38 139 2.39  92 2.40
 160  0.961  0.829  0.679-  32 1.48 131 2.34 158 2.34  94 2.35

  LATTYP: Found a hexagonal cell.
 ALAT       =    15.3583592874
 C/A-ratio  =     2.0676879777
  
  Lattice vectors:
  
 A1 = (  -7.6791796437, -13.3007293033,   0.0000000000)
 A2 = (  15.3583592874,   0.0000000000,   0.0000000000)
 A3 = (   0.0000000000,   0.0000000000,  31.7562948564)


Analysis of symmetry for initial positions (statically):
=====================================================================
 Subroutine PRICEL returns:
 Original cell was already a primitive cell.
 

 Routine SETGRP: Setting up the symmetry group for a 
 hexagonal supercell.


 Subroutine GETGRP returns: Found  1 space group operations
 (whereof  1 operations were pure point group operations)
 out of a pool of 24 trial point group operations.


The static configuration has the point symmetry C_1 .


Analysis of symmetry for dynamics (positions and initial velocities):
=====================================================================
 Subroutine PRICEL returns:
 Original cell was already a primitive cell.
 

 Routine SETGRP: Setting up the symmetry group for a 
 hexagonal supercell.


 Subroutine GETGRP returns: Found  1 space group operations
 (whereof  1 operations were pure point group operations)
 out of a pool of 24 trial point group operations.


The dynamic configuration has the point symmetry C_1 .


 Subroutine INISYM returns: Found  1 space group operations
 (whereof  1 operations are pure point group operations),
 and found     1 'primitive' translations


----------------------------------------------------------------------------------------

                                     Primitive cell                                     

  volume of cell :    6487.0927

  direct lattice vectors                    reciprocal lattice vectors
    15.358359287  0.000000000  0.000000000     0.065111122 -0.037591924  0.000000000
     7.679179644 13.300729303  0.000000000     0.000000000  0.075183847  0.000000000
     0.000000000  0.000000000 31.756294856     0.000000000  0.000000000  0.031489820

  length of vectors
    15.358359287 15.358359287 31.756294856     0.075183847  0.075183847  0.031489820

  position of ions in fractional coordinates (direct lattice)
     0.272190368  0.959262874  0.289136934
     0.222032898  0.226999446  0.280353538
     0.487243483  0.457120368  0.294903802
     0.256495151  0.491665475  0.288858345
     0.262944306  0.733419312  0.284515706
     0.005598046  0.739966885  0.283686655
     0.463753294  0.745453379  0.292492861
     0.004122684  0.491686915  0.290370305
     0.244582733  0.007494979  0.712603476
     0.295575455  0.247395870  0.716565263
     0.189022279  0.524160813  0.714539807
     0.245440271  0.758850400  0.716651640
     0.496397797  0.764616264  0.718045803
     0.491383351  0.476195502  0.715305443
     0.495436796  0.013010563  0.709824754
     0.018631907  0.276985763  0.717028093
     0.755764422  0.997994487  0.281312178
     0.978493509  0.271191710  0.287780329
     0.756677466  0.247490809  0.281421927
     0.708161232  0.546235183  0.284215513
     0.766301795  0.758295891  0.287186371
     0.965614837  0.051850386  0.287149528
     0.519744060  0.961682779  0.287034067
     0.504967920  0.249376803  0.279253743
     0.750087483  0.007987829  0.711772709
     0.752416755  0.247409957  0.715464300
     0.539153961  0.203895939  0.707748288
     0.996298685  0.005474436  0.712414940
     0.749204990  0.498416835  0.713700102
     0.955217774  0.551900280  0.701665525
     0.740596774  0.763832016  0.716460014
     0.996357944  0.757162987  0.714903845
     0.335384289  0.827760274  0.487873465
     0.033907164  0.052092609  0.320215643
     0.003446508  0.008833630  0.387759202
     0.085139213  0.088650932  0.417906891
     0.086358853  0.086917572  0.491402818
     0.302150761  0.007299285  0.322064958
     0.252912070  0.997360513  0.391481948
     0.082869038  0.334398952  0.412384868
     0.084162805  0.331269524  0.486344605
     0.495688814  0.501360937  0.393408018
     0.332712380  0.829518653  0.413853536
     0.207112699  0.182484181  0.318977641
     0.244980372  0.238813238  0.383745535
     0.255890289  0.741132513  0.388137474
     0.296247899  0.665060211  0.321128896
     0.479340399  0.932953250  0.323391520
     0.334412141  0.080502190  0.417149870
     0.334249984  0.083440869  0.489985104
     0.330579597  0.328252078  0.403743290
     0.334331595  0.328742072  0.480084544
     0.216323114  0.569020159  0.322266661
     0.246246339  0.504070026  0.391252482
     0.082201923  0.587121428  0.419467120
     0.083613376  0.585263772  0.491991434
     0.331166620  0.582759209  0.420869373
     0.332329072  0.583516547  0.493590926
     0.085921532  0.834652063  0.408003971
     0.085500869  0.832796591  0.483424750
     0.043393555  0.200359332  0.320640061
     0.004899972  0.745925139  0.386929999
     0.041369514  0.670825493  0.320000520
     0.467604271  0.544070563  0.322225432
     0.499891722  0.746810930  0.393551008
     0.170011262  0.168943324  0.517758154
     0.173929418  0.168915937  0.593709552
     0.253705403  0.994729493  0.609699210
     0.284624365  0.930627246  0.679018721
     0.418012645  0.912067622  0.581748250
     0.003774388  0.258488960  0.614364825
     0.473163449  0.286537622  0.678840195
     0.262091170  0.254242850  0.613675683
     0.309154880  0.298760776  0.679796296
     0.419745724  0.165821644  0.510457130
     0.422414824  0.161893551  0.584386939
     0.418594100  0.913433203  0.509335672
     0.238232713  0.500123095  0.612167969
     0.184810645  0.465674710  0.678452385
     0.170086469  0.413086267  0.507498537
     0.168079981  0.412799184  0.580103790
     0.411776535  0.413401259  0.511062049
     0.408410820  0.413236168  0.585002352
     0.167371385  0.916455474  0.509218734
     0.167912558  0.915543630  0.581772210
     0.164838121  0.670963510  0.515942810
     0.163976516  0.670392980  0.590783010
     0.247163051  0.755486276  0.613622540
     0.210205335  0.829348496  0.680763090
     0.003084377  0.996526090  0.608795102
     0.417047528  0.664934550  0.518916158
     0.417605067  0.662796253  0.594336400
     0.460439897  0.831949647  0.681134480
     0.034646626  0.930725073  0.678040667
     0.026681651  0.466099591  0.675198351
     0.497819296  0.753237371  0.614744235
     0.722204012  0.063404389  0.318445126
     0.751841307  0.004849145  0.387473540
     0.584322585  0.080219694  0.411437492
     0.585413015  0.082823137  0.485420852
     0.580218838  0.331378058  0.414426806
     0.580590677  0.332372453  0.488245810
     0.835411288  0.087867133  0.413971576
     0.836283940  0.087110569  0.487755975
     0.836335009  0.833323450  0.483095486
     0.836417457  0.833996043  0.408565141
     0.826252483  0.341289489  0.406668109
     0.831343948  0.333396936  0.482604954
     0.720137427  0.218125130  0.318401782
     0.744666221  0.251987405  0.387104803
     0.502852497  0.245834975  0.385088361
     0.997912670  0.252773234  0.389714296
     0.753255895  0.747621079  0.389649706
     0.830592884  0.587079050  0.419380702
     0.831882784  0.585699789  0.492129279
     0.580548878  0.583215434  0.418899266
     0.582145051  0.584473439  0.492347809
     0.694485883  0.609098940  0.321687172
     0.739821589  0.516960942  0.387802996
     0.793933208  0.683078848  0.321087243
     0.967462367  0.569334722  0.323653558
     0.996722696  0.506807913  0.393236824
     0.531089569  0.756110575  0.322931068
     0.587806405  0.825999249  0.417040462
     0.588651012  0.827571131  0.489921315
     0.500791227  0.990350003  0.390336130
     0.567902345  0.216001236  0.317180327
     0.669436825  0.165025993  0.512723831
     0.672216518  0.164462703  0.587781036
     0.754320019  0.994224432  0.608214561
     0.785418814  0.932075518  0.677867238
     0.918147382  0.170796037  0.514847197
     0.920738119  0.170405725  0.591184739
     0.751329628  0.252558667  0.612425520
     0.713536743  0.320887772  0.680620955
     0.533941226  0.934378673  0.676908043
     0.971721327  0.342453534  0.680102714
     0.917909004  0.917824668  0.579907707
     0.533369559  0.406830241  0.679041637
     0.752070699  0.491382762  0.610880594
     0.791570859  0.422742164  0.679629332
     0.666667204  0.414784240  0.510026601
     0.665078724  0.413628602  0.582908761
     0.915523686  0.414851571  0.508170326
     0.914624724  0.414824706  0.580720722
     0.918650238  0.917746494  0.507019219
     0.504365316  0.992472262  0.606625466
     0.914871438  0.672122853  0.588563408
     0.667436699  0.664672212  0.518934637
     0.667364536  0.664990376  0.593784735
     0.915302042  0.671253350  0.514193217
     0.748066123  0.755427080  0.612888578
     0.709716785  0.831897552  0.679795124
     0.670428265  0.915721989  0.507882953
     0.669847275  0.914473237  0.580402521
     0.503644989  0.245877403  0.608138125
     0.998923667  0.498492687  0.603405946
     0.995939362  0.758721416  0.611685840
     0.500113295  0.487228341  0.611779520
     0.960754364  0.828851432  0.679433472

  ion indices of the primitive-cell ions
   primitive index   ion index
                 1           1
                 2           2
                 3           3
                 4           4
                 5           5
                 6           6
                 7           7
                 8           8
                 9           9
                10          10
                11          11
                12          12
                13          13
                14          14
                15          15
                16          16
                17          17
                18          18
                19          19
                20          20
                21          21
                22          22
                23          23
                24          24
                25          25
                26          26
                27          27
                28          28
                29          29
                30          30
                31          31
                32          32
                33          33
                34          34
                35          35
                36          36
                37          37
                38          38
                39          39
                40          40
                41          41
                42          42
                43          43
                44          44
                45          45
                46          46
                47          47
                48          48
                49          49
                50          50
                51          51
                52          52
                53          53
                54          54
                55          55
                56          56
                57          57
                58          58
                59          59
                60          60
                61          61
                62          62
                63          63
                64          64
                65          65
                66          66
                67          67
                68          68
                69          69
                70          70
                71          71
                72          72
                73          73
                74          74
                75          75
                76          76
                77          77
                78          78
                79          79
                80          80
                81          81
                82          82
                83          83
                84          84
                85          85
                86          86
                87          87
                88          88
                89          89
                90          90
                91          91
                92          92
                93          93
                94          94
                95          95
                96          96
                97          97
                98          98
                99          99
               100         100
               101         101
               102         102
               103         103
               104         104
               105         105
               106         106
               107         107
               108         108
               109         109
               110         110
               111         111
               112         112
               113         113
               114         114
               115         115
               116         116
               117         117
               118         118
               119         119
               120         120
               121         121
               122         122
               123         123
               124         124
               125         125
               126         126
               127         127
               128         128
               129         129
               130         130
               131         131
               132         132
               133         133
               134         134
               135         135
               136         136
               137         137
               138         138
               139         139
               140         140
               141         141
               142         142
               143         143
               144         144
               145         145
               146         146
               147         147
               148         148
               149         149
               150         150
               151         151
               152         152
               153         153
               154         154
               155         155
               156         156
               157         157
               158         158
               159         159
               160         160

----------------------------------------------------------------------------------------


 -----------------------------------------------------------------------------
|                                                                             |
|           W    W    AA    RRRRR   N    N  II  N    N   GGGG   !!!           |
|           W    W   A  A   R    R  NN   N  II  NN   N  G    G  !!!           |
|           W    W  A    A  R    R  N N  N  II  N N  N  G       !!!           |
|           W WW W  AAAAAA  RRRRR   N  N N  II  N  N N  G  GGG   !            |
|           WW  WW  A    A  R   R   N   NN  II  N   NN  G    G                |
|           W    W  A    A  R    R  N    N  II  N    N   GGGG   !!!           |
|                                                                             |
|     The requested file  could not be found or opened for reading            |
|     k-point information. Automatic k-point generation is used as a          |
|     fallback, which may lead to unwanted results.                           |
|                                                                             |
 -----------------------------------------------------------------------------



Automatic generation of k-mesh.
 Grid dimensions derived from KSPACING:
 generate k-points for:    3    3    1

 Generating k-lattice:

  Cartesian coordinates                     Fractional coordinates (reciprocal lattice)
     0.021703707 -0.012530641  0.000000000     0.333333333 -0.000000000  0.000000000
     0.000000000  0.025061282  0.000000000     0.000000000  0.333333333  0.000000000
     0.000000000  0.000000000  0.031489820     0.000000000  0.000000000  1.000000000

  Length of vectors
     0.025061282  0.025061282  0.031489820

  Shift w.r.t. Gamma in fractional coordinates (k-lattice)
     0.000000000  0.000000000  0.000000000

 
 Subroutine IBZKPT returns following result:
 ===========================================
 
 Found      5 irreducible k-points:
 
 Following reciprocal coordinates:
            Coordinates               Weight
  0.000000  0.000000  0.000000      1.000000
  0.333333  0.000000  0.000000      2.000000
  0.333333  0.333333  0.000000      2.000000
  0.000000  0.333333  0.000000      2.000000
 -0.333333  0.333333  0.000000      2.000000
 
 Following cartesian coordinates:
            Coordinates               Weight
  0.000000  0.000000  0.000000      1.000000
  0.021704 -0.012531  0.000000      2.000000
  0.021704  0.012531  0.000000      2.000000
  0.000000  0.025061  0.000000      2.000000
 -0.021704  0.037592  0.000000      2.000000
 


--------------------------------------------------------------------------------------------------------




 Dimension of arrays:
   k-points           NKPTS =      5   k-points in BZ     NKDIM =      5   number of bands    NBANDS=    360
   number of dos      NEDOS =   2000   number of ions     NIONS =    160
   non local maximal  LDIM  =      4   non local SUM 2l+1 LMDIM =      8
   total plane-waves  NPLWV = ******
   max r-space proj   IRMAX =      1   max aug-charges    IRDMAX= 481080
   dimension x,y,z NGX =   180 NGY =  180 NGZ =  360
   dimension x,y,z NGXF=   360 NGYF=  360 NGZF=  720
   support grid    NGXF=   720 NGYF=  720 NGZF= 1440
   ions per type =              32 128
   NGX,Y,Z   is equivalent  to a cutoff of  19.48, 19.48, 18.85 a.u.
   NGXF,Y,Z  is equivalent  to a cutoff of  38.97, 38.97, 37.69 a.u.

 SYSTEM =  a-Si SPC                                
 POSCAR =   H Si                                   

 Startparameter for this run:
   NWRITE =      2    write-flag & timer
   PREC   = accura    normal or accurate (medium, high low for compatibility)
   ISTART =      0    job   : 0-new  1-cont  2-samecut
   ICHARG =      1    charge: 1-file 2-atom 10-const
   ISPIN  =      1    spin polarized calculation?
   LNONCOLLINEAR =      F non collinear calculations
   LSORBIT =      F    spin-orbit coupling
   INIWAV =      1    electr: 0-lowe 1-rand  2-diag
   LASPH  =      T    aspherical Exc in radial PAW
 Electronic Relaxation 1
   ENCUT  = 1200.0 eV  88.20 Ry    9.39 a.u.  43.38 43.38 89.70*2*pi/ulx,y,z
   ENINI  = 1200.0     initial cutoff
   ENAUG  =  400.0 eV  augmentation charge cutoff
   NELM   =    150;   NELMIN=  2; NELMDL=  0     # of ELM steps 
   EDIFF  = 0.1E-05   stopping-criterion for ELM
   LREAL  =      F    real-space projection
   NLSPLINE    = F    spline interpolate recip. space projectors
   LCOMPAT=      F    compatible to vasp.4.4
   GGA_COMPAT  = T    GGA compatible to vasp.4.4-vasp.4.6
   LMAXPAW     = -100 max onsite density
   LMAXMIX     =    2 max onsite mixed and CHGCAR
   VOSKOWN=      0    Vosko Wilk Nusair interpolation
   ROPT   =    0.00000   0.00000
 Ionic relaxation
   EDIFFG = -.1E-01   stopping-criterion for IOM
   NSW    =      0    number of steps for IOM
   NBLOCK =      1;   KBLOCK =      1    inner block; outer block 
   IBRION =     -1    ionic relax: 0-MD 1-quasi-New 2-CG
   NFREE  =      0    steps in history (QN), initial steepest desc. (CG)
   ISIF   =      2    stress and relaxation
   IWAVPR =     10    prediction:  0-non 1-charg 2-wave 3-comb
   ISYM   =      1    0-nonsym 1-usesym 2-fastsym
   LCORR  =      T    Harris-Foulkes like correction to forces

   POTIM  = 0.5000    time-step for ionic-motion
   TEIN   =    0.0    initial temperature
   TEBEG  =    0.0;   TEEND  =   0.0 temperature during run
   SMASS  =  -3.00    Nose mass-parameter (am)
   estimated Nose-frequenzy (Omega)   =  0.10E-29 period in steps = 0.13E+47 mass=  -0.539E-26a.u.
   SCALEE = 1.0000    scale energy and forces
   NPACO  =    256;   APACO  = 10.0  distance and # of slots for P.C.
   PSTRESS=    0.0 pullay stress

  Mass of Ions in am
   POMASS =   1.00 28.09
  Ionic Valenz
   ZVAL   =   1.00  4.00
  Atomic Wigner-Seitz radii
   RWIGS  =  -1.00 -1.00
  virtual crystal weights 
   VCA    =   1.00  1.00
   NELECT =     544.0000    total number of electrons
   NUPDOWN=      -1.0000    fix difference up-down

 DOS related values:
   EMIN   =  10.00;   EMAX   =-10.00  energy-range for DOS
   EFERMI =   0.00;   METHOD = LEGACY      
   ISMEAR =     0;   SIGMA  =   0.10  broadening in eV -4-tet -1-fermi 0-gaus
   EFERMI_NEDOS =   21; number of points for ismear=-14 and -15

 Electronic relaxation 2 (details)
   IALGO  =     38    algorithm
   LDIAG  =      F    sub-space diagonalisation (order eigenvalues)
   LSUBROT=      F    optimize rotation matrix (better conditioning)
   TURBO    =      0    0=normal 1=particle mesh
   IRESTART =      0    0=no restart 2=restart with 2 vectors
   NREBOOT  =      0    no. of reboots
   NMIN     =      0    reboot dimension
   EREF     =   0.00    reference energy to select bands
   IMIX   =      4    mixing-type and parameters
     AMIX     =   0.40;   BMIX     =  1.00
     AMIX_MAG =   1.60;   BMIX_MAG =  1.00
     AMIN     =   0.10
     WC   =   100.;   INIMIX=   1;  MIXPRE=   1;  MAXMIX= -45

 Intra band minimization:
   WEIMIN = 0.0000     energy-eigenvalue tresh-hold
   EBREAK =  0.69E-09  absolut break condition
   DEPER  =   0.30     relativ break condition  

   TIME   =   0.40     timestep for ELM

  volume/ion in A,a.u.               =      40.54       273.61
  Fermi-wavevector in a.u.,A,eV,Ry     =   0.716569  1.354118  6.986191  0.513471
  Thomas-Fermi vector in A             =   1.805023

 Write flags
   LWAVE        =      F    write WAVECAR
   LDOWNSAMPLE  =      F    k-point downsampling of WAVECAR
   LCHARG       =      F    write CHGCAR
   LVTOT        =      F    write LOCPOT, total local potential
   LVHAR        =      F    write LOCPOT, Hartree potential only
   WRT_POTENTIAL= false  ! write potential to hdf5 file
   LELF         =      F    write electronic localiz. function (ELF)
   LORBIT       =     11    0 simple, 1 ext, 2 COOP (PROOUT), +10 PAW based schemes


 Python interface
   PLUGINS active      =      F    recompile with -DPLUGINS to activate

 Dipole corrections
   LMONO      =      F    monopole corrections only (constant potential shift)
   LDIPOL     =      F    correct potential (dipole corrections)
   IDIPOL     =      0    1-x, 2-y, 3-z, 4-all directions 
   EPSILON    =  1.0000000 bulk dielectric constant
   LVACPOTAV  =      F  vacuum potentials using an averaging scheme for the charge density
   VACPOTFLAT =  0.1000000 required flatness to determine vacuum potential

Coulomb truncation method
  LTRUNCATE          =      F  Coulomb kernel truncation to be used
  IDIMENSIONALITY    =      3  Dimensionality of cutoff (0 molecules / 2 surfaces)
  ISURFACE           =     -1  Direction of surface normal
  LCOARSEN           =      F  Coarsen the charge grid before padding, preferred


 Exchange correlation treatment:
   METAGGA = SCAN    functional components
   XC_C    = 1    coefficients multiplying the functional components
   LIBXC   =     F    Libxc                    
   VOSKOWN =     0    Vosko Wilk Nusair interpolation
   LHFCALC =     F    Hartree Fock is set to
   LHFONE  =     F    Hartree Fock one center treatment
   AEXX    =    0.0000 exact exchange contribution

 Parameters of functionals:
   SCAN:
     P1 =  0.000000E+00
     P2 =  0.000000E+00
     P3 =  0.000000E+00

 Accuracy and mixing parameters for tau-dependent meta-GGA functionals:
   LMAXTAU = 6
   LMIXTAU = T

 Van der Waals corrections
   IVDW    =     0    specifies the selected vdW correction

 Linear response parameters
   LEPSILON=     F    determine dielectric tensor
   LRPA    =     F    only Hartree local field effects (RPA)
   LNABLA  =     F    use nabla operator in PAW spheres
   LVEL    =     F    velocity operator in full k-point grid
   CSHIFT  =0.1000    complex shift for real part using Kramers Kronig
   OMEGAMAX=  -1.0    maximum frequency
   DEG_THRESHOLD= 0.2000000E-02 threshold for treating states as degnerate
   RTIME   =   -0.100 relaxation time in fs
  (WPLASMAI=    0.000 imaginary part of plasma frequency in eV, 0.658/RTIME)
   DFIELD  = 0.0000000 0.0000000 0.0000000 field for delta impulse in time

  Optional k-point grid parameters
   LKPOINTS_OPT  =     F    use optional k-point grid
   KPOINTS_OPT_MODE=     1    mode for optional k-point grid

 Orbital magnetization related:
   ORBITALMAG=     F  switch on orbital magnetization
   LCHIMAG   =     F  perturbation theory with respect to B field
   DQ        =  0.001000  dq finite difference perturbation B field
   LLRAUG    =     F  two centre corrections for induced B field
   LBONE     =     F  B-component reconstruction in AE one-centre
   LVGVCALC  =     T  calculate vGv susceptibility
   LVGVAPPL  =     F  apply vGv susceptibility instead of pGv for G=0

 Random number generation:
   RANDOM_GENERATOR = DEFAULT
   PCG_SEED         = not used


--------------------------------------------------------------------------------------------------------


 Static calculation
 charge density and potential will be updated during run
 non-spin polarized calculation
 Variant of blocked Davidson
 perform Loewdin sub-space diagonalisation
    ordering is kept fixed
    before iterative eigenvector-optimisation
 modified Broyden-mixing scheme, WC =      100.0
 initial mixing is a Kerker type mixing with AMIX =  0.4000 and BMIX =      1.0000
 Hartree-type preconditioning will be used
 using additional bands           88
 reciprocal scheme for non local part
 use partial core corrections
 calculate Harris-corrections to forces   (improved forces if not selfconsistent)
 use gradient corrections 
 use of overlap-Matrix (Vanderbilt PP)
 Gauss-broadening in eV      SIGMA  =   0.10


--------------------------------------------------------------------------------------------------------


  energy-cutoff  :     1200.00
  volume of cell :     6487.09
      direct lattice vectors                 reciprocal lattice vectors
    15.358359287  0.000000000  0.000000000     0.065111122 -0.037591924  0.000000000
     7.679179644 13.300729303  0.000000000     0.000000000  0.075183847  0.000000000
     0.000000000  0.000000000 31.756294856     0.000000000  0.000000000  0.031489820

  length of vectors
    15.358359287 15.358359287 31.756294856     0.075183847  0.075183847  0.031489820



 k-points in units of 2pi/SCALE and weight: read from INCAR                         
   0.00000000  0.00000000  0.00000000       0.111
   0.02170371 -0.01253064  0.00000000       0.222
   0.02170371  0.01253064  0.00000000       0.222
   0.00000000  0.02506128  0.00000000       0.222
  -0.02170371  0.03759192  0.00000000       0.222

 k-points in reciprocal lattice and weights: read from INCAR                         
   0.00000000  0.00000000  0.00000000       0.111
   0.33333333  0.00000000  0.00000000       0.222
   0.33333333  0.33333333  0.00000000       0.222
   0.00000000  0.33333333  0.00000000       0.222
  -0.33333333  0.33333333  0.00000000       0.222

 position of ions in fractional coordinates (direct lattice) 
   0.27219037  0.95926287  0.28913693
   0.22203290  0.22699945  0.28035354
   0.48724348  0.45712037  0.29490380
   0.25649515  0.49166548  0.28885834
   0.26294431  0.73341931  0.28451571
   0.00559805  0.73996689  0.28368665
   0.46375329  0.74545338  0.29249286
   0.00412268  0.49168692  0.29037031
   0.24458273  0.00749498  0.71260348
   0.29557546  0.24739587  0.71656526
   0.18902228  0.52416081  0.71453981
   0.24544027  0.75885040  0.71665164
   0.49639780  0.76461626  0.71804580
   0.49138335  0.47619550  0.71530544
   0.49543680  0.01301056  0.70982475
   0.01863191  0.27698576  0.71702809
   0.75576442  0.99799449  0.28131218
   0.97849351  0.27119171  0.28778033
   0.75667747  0.24749081  0.28142193
   0.70816123  0.54623518  0.28421551
   0.76630179  0.75829589  0.28718637
   0.96561484  0.05185039  0.28714953
   0.51974406  0.96168278  0.28703407
   0.50496792  0.24937680  0.27925374
   0.75008748  0.00798783  0.71177271
   0.75241676  0.24740996  0.71546430
   0.53915396  0.20389594  0.70774829
   0.99629868  0.00547444  0.71241494
   0.74920499  0.49841683  0.71370010
   0.95521777  0.55190028  0.70166552
   0.74059677  0.76383202  0.71646001
   0.99635794  0.75716299  0.71490384
   0.33538429  0.82776027  0.48787347
   0.03390716  0.05209261  0.32021564
   0.00344651  0.00883363  0.38775920
   0.08513921  0.08865093  0.41790689
   0.08635885  0.08691757  0.49140282
   0.30215076  0.00729928  0.32206496
   0.25291207  0.99736051  0.39148195
   0.08286904  0.33439895  0.41238487
   0.08416280  0.33126952  0.48634461
   0.49568881  0.50136094  0.39340802
   0.33271238  0.82951865  0.41385354
   0.20711270  0.18248418  0.31897764
   0.24498037  0.23881324  0.38374553
   0.25589029  0.74113251  0.38813747
   0.29624790  0.66506021  0.32112890
   0.47934040  0.93295325  0.32339152
   0.33441214  0.08050219  0.41714987
   0.33424998  0.08344087  0.48998510
   0.33057960  0.32825208  0.40374329
   0.33433159  0.32874207  0.48008454
   0.21632311  0.56902016  0.32226666
   0.24624634  0.50407003  0.39125248
   0.08220192  0.58712143  0.41946712
   0.08361338  0.58526377  0.49199143
   0.33116662  0.58275921  0.42086937
   0.33232907  0.58351655  0.49359093
   0.08592153  0.83465206  0.40800397
   0.08550087  0.83279659  0.48342475
   0.04339356  0.20035933  0.32064006
   0.00489997  0.74592514  0.38693000
   0.04136951  0.67082549  0.32000052
   0.46760427  0.54407056  0.32222543
   0.49989172  0.74681093  0.39355101
   0.17001126  0.16894332  0.51775815
   0.17392942  0.16891594  0.59370955
   0.25370540  0.99472949  0.60969921
   0.28462436  0.93062725  0.67901872
   0.41801265  0.91206762  0.58174825
   0.00377439  0.25848896  0.61436483
   0.47316345  0.28653762  0.67884019
   0.26209117  0.25424285  0.61367568
   0.30915488  0.29876078  0.67979630
   0.41974572  0.16582164  0.51045713
   0.42241482  0.16189355  0.58438694
   0.41859410  0.91343320  0.50933567
   0.23823271  0.50012310  0.61216797
   0.18481064  0.46567471  0.67845239
   0.17008647  0.41308627  0.50749854
   0.16807998  0.41279918  0.58010379
   0.41177653  0.41340126  0.51106205
   0.40841082  0.41323617  0.58500235
   0.16737139  0.91645547  0.50921873
   0.16791256  0.91554363  0.58177221
   0.16483812  0.67096351  0.51594281
   0.16397652  0.67039298  0.59078301
   0.24716305  0.75548628  0.61362254
   0.21020533  0.82934850  0.68076309
   0.00308438  0.99652609  0.60879510
   0.41704753  0.66493455  0.51891616
   0.41760507  0.66279625  0.59433640
   0.46043990  0.83194965  0.68113448
   0.03464663  0.93072507  0.67804067
   0.02668165  0.46609959  0.67519835
   0.49781930  0.75323737  0.61474424
   0.72220401  0.06340439  0.31844513
   0.75184131  0.00484915  0.38747354
   0.58432258  0.08021969  0.41143749
   0.58541301  0.08282314  0.48542085
   0.58021884  0.33137806  0.41442681
   0.58059068  0.33237245  0.48824581
   0.83541129  0.08786713  0.41397158
   0.83628394  0.08711057  0.48775597
   0.83633501  0.83332345  0.48309549
   0.83641746  0.83399604  0.40856514
   0.82625248  0.34128949  0.40666811
   0.83134395  0.33339694  0.48260495
   0.72013743  0.21812513  0.31840178
   0.74466622  0.25198741  0.38710480
   0.50285250  0.24583497  0.38508836
   0.99791267  0.25277323  0.38971430
   0.75325590  0.74762108  0.38964971
   0.83059288  0.58707905  0.41938070
   0.83188278  0.58569979  0.49212928
   0.58054888  0.58321543  0.41889927
   0.58214505  0.58447344  0.49234781
   0.69448588  0.60909894  0.32168717
   0.73982159  0.51696094  0.38780300
   0.79393321  0.68307885  0.32108724
   0.96746237  0.56933472  0.32365356
   0.99672270  0.50680791  0.39323682
   0.53108957  0.75611058  0.32293107
   0.58780641  0.82599925  0.41704046
   0.58865101  0.82757113  0.48992131
   0.50079123  0.99035000  0.39033613
   0.56790235  0.21600124  0.31718033
   0.66943683  0.16502599  0.51272383
   0.67221652  0.16446270  0.58778104
   0.75432002  0.99422443  0.60821456
   0.78541881  0.93207552  0.67786724
   0.91814738  0.17079604  0.51484720
   0.92073812  0.17040572  0.59118474
   0.75132963  0.25255867  0.61242552
   0.71353674  0.32088777  0.68062096
   0.53394123  0.93437867  0.67690804
   0.97172133  0.34245353  0.68010271
   0.91790900  0.91782467  0.57990771
   0.53336956  0.40683024  0.67904164
   0.75207070  0.49138276  0.61088059
   0.79157086  0.42274216  0.67962933
   0.66666720  0.41478424  0.51002660
   0.66507872  0.41362860  0.58290876
   0.91552369  0.41485157  0.50817033
   0.91462472  0.41482471  0.58072072
   0.91865024  0.91774649  0.50701922
   0.50436532  0.99247226  0.60662547
   0.91487144  0.67212285  0.58856341
   0.66743670  0.66467221  0.51893464
   0.66736454  0.66499038  0.59378474
   0.91530204  0.67125335  0.51419322
   0.74806612  0.75542708  0.61288858
   0.70971679  0.83189755  0.67979512
   0.67042826  0.91572199  0.50788295
   0.66984727  0.91447324  0.58040252
   0.50364499  0.24587740  0.60813813
   0.99892367  0.49849269  0.60340595
   0.99593936  0.75872142  0.61168584
   0.50011329  0.48722834  0.61177952
   0.96075436  0.82885143  0.67943347

 position of ions in cartesian coordinates  (Angst):
  11.54674940 12.75889582  9.18191774
   5.15323054  3.01925818  8.90298963
  10.99356989  6.08003428  9.36505209
   7.71493220  6.53950939  9.17307077
   9.67045178  9.75501174  9.03516464
   5.76831544  9.84209924  9.00883706
  12.84696013  9.91507361  9.28848952
   3.83906981  6.53979456  9.22108503
   3.81394477  0.09968869 22.62964611
   6.43935137  3.29054550 22.75545778
   6.92819711  6.97172108 22.69113681
   9.59690842 10.09326376 22.75820079
  13.49548137 10.16995394 22.80247425
  11.20363287  6.33374747 22.71545057
   7.70900677  0.17304997 22.54140419
   2.41317895  3.68411266 22.77015555
  19.27108049 13.27405452  8.93343248
  17.11058472  3.60704752  9.13883699
  13.52185077  3.29180826  8.93691769
  15.07083272  7.26532630  9.02563165
  17.59222866 10.08588838  9.11997506
  15.22842804  0.68964795  9.11880509
  15.36735083 12.79108232  9.11513846
   9.67048802  3.31689335  8.86806419
  11.58145303  0.10624395 22.60326401
  13.45579237  3.29073287 22.72049527
   9.84627379  2.71196469 22.47546332
  15.34355233  0.07281399 22.62365889
  15.33399182  6.62930740 22.66447088
  18.90871916  7.34067622 22.28229730
  17.23995461 10.15952288 22.75211546
  21.11681387 10.07081993 22.70269728
  11.50747226 11.00981533 15.49305361
   0.92078691  0.69286969 10.16886238
   0.12076774  0.11749372 12.31379555
   1.98836506  1.17912205 13.27117446
   1.99378595  1.15606710 15.60513280
   4.69659247  0.09708581 10.22758977
  11.54322500 13.26562221 12.43201618
   3.84064209  4.44774994 13.09581548
   3.83648078  4.40612626 15.44450268
  11.46300761  6.66846610 12.49318103
  11.47993902 11.03320305 13.14245492
   4.58224005  2.42717269 10.12954802
   5.59638633  3.17639024 12.18633636
   9.62134470  9.85760293 12.32580808
   9.65699850  8.84578583 10.19786390
  14.52619768 12.40895863 10.26971645
   5.75421259  1.07073784 13.24713426
   5.77428877  1.10982441 15.56011143
   7.59786691  4.36599204 12.82139096
   7.65925418  4.37250931 15.24570633
   7.69197612  7.56838310 10.23399512
   7.65278403  6.70449897 12.42472918
   5.77109758  7.80914319 13.32072153
   5.77850992  7.78443500 15.62382505
   9.56128859  7.75112249 13.36525191
   9.58495768  7.76119564 15.67461899
   7.72905689 11.10148116 12.95669440
   7.70834769 11.07680203 15.35177892
   2.20504911  2.66492523 10.18234033
   5.80334868  9.92134835 12.28746315
   5.78675732  8.92246829 10.16203088
  11.35964999  7.23653528 10.23268584
  13.41241197  9.93313003 12.49772186
   3.90844017  2.24706942 16.44208060
   3.96840631  2.24670515 18.85401558
  11.53520520 13.23062772 19.36178788
  11.51781706 12.37802108 21.56311872
  13.42391951 12.13116454 18.47416897
   2.04295157  3.43809168 19.50995054
   9.46738813  3.81115935 21.55744939
   5.97766687  3.38161532 19.48806593
   7.04234940  3.97373621 21.58781161
   7.71997984  2.20554880 16.21022712
   7.73080829  2.15330230 18.55796394
  13.44333625 12.14932777 16.17461379
   7.49939868  6.65200191 19.44018654
   6.41438804  6.19381326 21.54513399
   5.78441276  5.49434862 16.11627317
   5.75139183  5.49053021 18.42194699
   9.49879451  5.49853825 16.22943711
   9.44583488  5.49634240 18.57750718
   9.60817609 12.18952618 16.17090028
   9.60948541 12.17739798 18.47492985
   7.68409241  8.92430402 16.38443202
   7.66647837  8.91671555 18.76107945
   9.59753378 10.04851845 19.48637830
   9.59712514 11.03093984 21.61851342
   7.69987384 13.25452377 19.33307677
  11.51131763  8.84411445 16.47885451
  11.50346015  8.81567355 18.87392197
  13.46029216 11.06553704 21.63030738
   7.67932036 12.37932225 21.53205935
   3.98904887  6.19946449 21.44179793
  13.42993270 10.01860638 19.52199920
  11.57876239  0.84332461 10.11263733
  11.58428637  0.06449717 12.30472397
   9.59025764  1.06698043 13.06573030
   9.62699716  1.10160813 15.41516770
  11.45592101  4.40756985 13.16065984
  11.46926799  4.42079602 15.50487789
  13.50529421  1.16869694 13.14620343
  13.51288692  1.15863409 15.48932256
  19.24397403 11.08380964 15.34132270
  19.25040526 11.09275561 12.97451507
  15.31070579  4.53939911 12.91427237
  15.32829401  4.43442240 15.32574523
  12.73515139  2.90122330 10.11126087
  13.37190792  3.35161627 12.29301428
   9.61080025  3.26978445 12.22897954
  17.26739239  3.36206836 12.37588208
  17.30989125  9.94390560 12.37383095
  17.26482942  7.80857953 13.31797723
  17.27404858  7.79023435 15.62820248
  13.39489435  7.75719062 13.30268861
  13.42906940  7.77392300 15.63514218
  15.34354389  8.10146012 10.21559267
  15.33228172  6.87595755 12.31518628
  17.43899664  9.08544684 10.19654116
  19.23065824  7.57256703 10.27803782
  19.19989428  6.74091486 12.48774452
  13.96297335 10.05682208 10.25509423
  15.37073858 10.98639241 13.24365989
  15.39578112 11.00729959 15.55808573
  15.29640717 13.17237730 12.39562925
  10.38076055  2.87297397 10.07247200
  11.54871553  2.19496605 16.28220916
  11.58708145  2.18747389 18.66574789
  19.21994590 13.22391003 19.31464094
  19.22031968 12.39728416 21.52655187
  15.41281083  2.27171186 16.34963938
  15.44960301  2.26652042 18.77383690
  13.47863375  3.35921447 19.44836538
  13.42290852  4.26804139 21.61399974
  15.37572287 12.42791779 21.49609141
  17.55380746  4.55488175 21.59754233
  21.14571679 12.20773746 18.41572014
  11.31580383  5.41113891 21.56384645
  15.32398851  6.53574910 19.39930428
  15.40354267  5.62277909 21.58250945
  13.42411714  5.51693290 16.19655511
  13.39084633  5.50156207 18.51102250
  17.24666145  5.51782845 16.13760670
  17.23264857  5.51747113 18.44153847
  21.15650060 12.20669768 16.10105181
  15.36759653 13.20060489 19.26417718
  19.21227639  8.93972413 18.69059312
  15.35486995  8.84062517 16.47944135
  15.35620488  8.84485698 18.85640314
  19.21221267  8.92815910 16.32887143
  17.29012854 10.04773110 19.46307041
  17.28837612 11.06484414 21.58777439
  17.32867182 12.17977029 16.12848082
  17.31015939 12.16316099 18.43143358
   9.62329744  3.27034877 19.31221362
  19.16984348  6.63031629 19.16193714
  21.12235261 10.09154818 19.42487588
  11.42243362  6.48049227 19.42785081
  21.12050976 11.02432854 21.57628967



--------------------------------------------------------------------------------------------------------


 k-point     1 :   0.0000 0.0000 0.0000  plane waves:  612431
 k-point     2 :   0.3333 0.0000 0.0000  plane waves:  612295
 k-point     3 :   0.3333 0.3333 0.0000  plane waves:  612295
 k-point     4 :   0.0000 0.3333 0.0000  plane waves:  612295
 k-point     5 :  -0.3333 0.3333 0.0000  plane waves:  612066

 maximum and minimum number of plane-waves per node :     38333    38227

 maximum number of plane-waves:    612431
 maximum index in each direction: 
   IXMAX=   43   IYMAX=   43   IZMAX=   89
   IXMIN=  -43   IYMIN=  -43   IZMIN=  -89


 parallel 3D FFT for wavefunctions:
    minimum data exchange during FFTs selected (reduces bandwidth)
 parallel 3D FFT for charge:
    minimum data exchange during FFTs selected (reduces bandwidth)


 total amount of memory used by VASP MPI-rank0   531345. kBytes
=======================================================================

   base                                    :      30000. kBytes
   nonl-proj                               :     122521. kBytes
   fftplans                                :     134779. kBytes
   grid                                    :     105891. kBytes
   one-center                              :         30. kBytes
   wavefun                                 :     138124. kBytes

     INWAV:  cpu time      0.0000: real time      0.0000
 Broyden mixing: mesh for mixing (old mesh)
   NGX = 87   NGY = 87   NGZ =179
  (NGX  =360   NGY  =360   NGZ  =720)
  gives a total of ****** points

 initial charge density was supplied:
 charge density of overlapping atoms calculated
 number of electron     544.0000000 magnetization 
 keeping initial charge density in first step


--------------------------------------------------------------------------------------------------------


 Maximum index for augmentation-charges         6541 (set IRDMAX)


--------------------------------------------------------------------------------------------------------


 First call to EWALD:  gamma=   0.095
 Maximum number of real-space cells   4x   4x   2
 Maximum number of reciprocal cells   2x   2x   4

    FEWALD:  cpu time      0.0263: real time      0.0265
[...]
                                                                                                                                                                                                                                                                                                                                                                                                                                                                                                                                                                                                                                                                                                                                                                                                                                                                                                                                                                                                                                                                                                                                                                                                                                                                                                                                                                                                                                                                                                                                                                                                                                                                                                                                                                                                                                                                                                                                                                                                                                                                                                                                                                                                                                                                                                                                                                                                                                                                                                                                                                                                                                                                                                                                                                                                                                                                                                                                                                                                                                                                                                                                                                                                                                                                                                                                                                                                                                                                                                                                                                                                                                                                                                                                                                                                                                                                                                                                                                                                                                                                                                                                                                                                                                                                                                                                                                                                                                                                                                                                                                                                                                                                                                                                                                                                                                                                                                                                                                                                                                                                                                                                                                                                                                                                                                                                                                                                                                                                                                                                                                                                                                                                                                                                                                                                                                                                                                                                                                                                                                                                                                                                                                                                                                                                                                                                                                                                                                                                                                                                                                                                                                                                                                                                                                                                                                                                                                                                                                                                                                                                                                                                                                                                                                                                                                                                                                                                                                                                                                                                                                                                                                                                                                                                                                                                                                                                                                                                                                                                                                                                                                                                                                                                                                                                                                                                                                                                                                                                                                                                                                                                                                                                                                                                                                                                                                                                                                                                                                                                                                                                                                                                                                                                                                                                                                                                                                                                                                                                                                                                                                                                                                                                                                                                                                                                                                                                                                                                                                                                                                                                                                                                                                                                                                                                                                                                                                                                                                                                                                                                                                                                                                                                                                                                                                                                                                                                                                                                                                                                                                                                                                                                                                                                                                                                                                                                                                                                                                                                                                                                                                                                                                                                                                                                                                                                                                                                                                                                                                                                                                                                                                                                                                                                                                                                                                                                                                                                                                                                                                                                                                                                                                                                                                                                                                                                                                                                                                                                                                                                                                                                                                                                                                                                                                                                                                                                                                                                                                                                                                                                                                                                                                                                                                                                                                                                                                                                                                                                                                                                                                                                                                                                                                                                                                                                                                                                                                                                                                                                                                                                                                                                                                                                                                                                                                                                                                                                                                                                                                                                                                                                                                                                                                                                                                                                                                                                                                                                                                                                                                                                                                                                                                                                                                                                                                                                                                                                                                                                                                                                                                                                                                                                                                                                                                                                                                                                                                                                                                                                                                                                                                                                                                                                                                                                                                                                                                                                                                                                                                                                                                                                                                                                                                                                                                                                                                                                                                                                                                                                                                                                                                                                                                                                                                                                                                                                                                                                                                                                                                                                                                                                                                                                                                                                                                                                                                                                                                                                                                                                                                                                                                                                                                                                                                                                                                                                                                                                                                                                                                                                                                                                                                                                                                                                                                                                                                                                                                                                                                                                                                                                                                                                                                                                                                                                                                                                                                                                                                                                                                                                                                                                                                                                                                                                                                                                                                                                                                                                                                                                                                                                                                                                                                                                                                                                                                                                                                